MODEL 1
REMARK VINA RESULT:      -6.7      0.000      0.000
REMARK  2 active torsions:
REMARK  status: ('A' for Active; 'I' for Inactive)
REMARK    1  A    between atoms: C5_5  and  N6_21 
REMARK    2  A    between atoms: C18_14  and  N17_19 
ROOT
HETATM    1  O1  MIQ B 502      10.854   3.503   9.330  1.00142.91    -0.171 OA
HETATM    2  C2  MIQ B 502      11.518   2.306   9.605  1.00141.17     0.195 A 
HETATM    3  C3  MIQ B 502      11.419   1.479  10.926  1.00141.71     0.035 A 
HETATM    4  C4  MIQ B 502      10.667   1.664  12.190  1.00142.86     0.046 A 
HETATM    5  C5  MIQ B 502      10.783   0.716  13.238  1.00139.53     0.031 A 
HETATM    6  C12 MIQ B 502      11.644  -0.445  13.070  1.00139.38     0.030 A 
HETATM    7  C13 MIQ B 502      12.364  -0.624  11.858  1.00141.18     0.019 A 
HETATM    8  C14 MIQ B 502      12.237   0.373  10.760  1.00138.77     0.033 A 
HETATM    9  C15 MIQ B 502      12.847   0.514   9.328  1.00142.10     0.195 A 
HETATM   10  N17 MIQ B 502      12.347   1.631   8.826  1.00139.42    -0.288 N 
HETATM   11  O16 MIQ B 502      13.741  -0.362   8.710  1.00148.93    -0.171 OA
ENDROOT
BRANCH  10  12
HETATM   12  C18 MIQ B 502      12.709   2.095   7.500  1.00139.82     0.187 C 
HETATM   13  C19 MIQ B 502      13.286   3.509   7.640  1.00140.06     0.247 C 
HETATM   14  O25 MIQ B 502      14.145   3.705   8.425  1.00143.95    -0.271 OA
HETATM   15  N20 MIQ B 502      12.811   4.612   6.830  1.00140.02    -0.296 N 
HETATM   16  H13 MIQ B 502      13.191   5.532   6.936  1.00142.77     0.171 HD
HETATM   17  C21 MIQ B 502      11.755   4.350   5.886  1.00142.22     0.224 C 
HETATM   18  C22 MIQ B 502      10.730   3.305   6.283  1.00139.52     0.106 C 
HETATM   19  O24 MIQ B 502      11.696   4.918   4.852  1.00146.13    -0.273 OA
HETATM   20  C23 MIQ B 502      11.503   2.028   6.565  1.00139.15     0.045 C 
ENDBRANCH  10  12
BRANCH   5  21
HETATM   21  N6  MIQ B 502      10.053   0.918  14.476  1.00140.95    -0.377 N 
HETATM   22  C7  MIQ B 502       8.705   0.386  14.583  1.00142.12     0.149 C 
HETATM   23  C8  MIQ B 502       7.860   1.173  15.577  1.00144.10     0.187 C 
HETATM   24  O9  MIQ B 502       8.513   1.391  16.792  1.00148.65    -0.388 OA
HETATM   25  C10 MIQ B 502       9.873   1.101  16.926  1.00147.44     0.187 C 
HETATM   26  C11 MIQ B 502      10.771   1.229  15.700  1.00144.08     0.149 C 
ENDBRANCH   5  21
TORSDOF 2
ENDMDL
MODEL 2
REMARK VINA RESULT:      -6.5      4.227      5.066
REMARK  2 active torsions:
REMARK  status: ('A' for Active; 'I' for Inactive)
REMARK    1  A    between atoms: C5_5  and  N6_21 
REMARK    2  A    between atoms: C18_14  and  N17_19 
ROOT
HETATM    1  O1  MIQ B 502      12.050   3.433   8.359  1.00142.91    -0.171 OA
HETATM    2  C2  MIQ B 502      13.411   3.370   8.050  1.00141.17     0.195 A 
HETATM    3  C3  MIQ B 502      14.592   3.408   9.071  1.00141.71     0.035 A 
HETATM    4  C4  MIQ B 502      14.658   3.509  10.549  1.00142.86     0.046 A 
HETATM    5  C5  MIQ B 502      15.912   3.518  11.210  1.00139.53     0.031 A 
HETATM    6  C12 MIQ B 502      17.140   3.427  10.434  1.00139.38     0.030 A 
HETATM    7  C13 MIQ B 502      17.077   3.329   9.017  1.00141.18     0.019 A 
HETATM    8  C14 MIQ B 502      15.757   3.317   8.328  1.00138.77     0.033 A 
HETATM    9  C15 MIQ B 502      15.297   3.222   6.837  1.00142.10     0.195 A 
HETATM   10  N17 MIQ B 502      13.975   3.262   6.859  1.00139.42    -0.288 N 
HETATM   11  O16 MIQ B 502      16.120   3.119   5.714  1.00148.93    -0.171 OA
ENDROOT
BRANCH  10  12
HETATM   12  C18 MIQ B 502      13.195   3.212   5.637  1.00139.82     0.187 C 
HETATM   13  C19 MIQ B 502      12.347   4.488   5.570  1.00140.06     0.247 C 
HETATM   14  O25 MIQ B 502      12.870   5.535   5.716  1.00143.95    -0.271 OA
HETATM   15  N20 MIQ B 502      10.920   4.444   5.327  1.00140.02    -0.296 N 
HETATM   16  H13 MIQ B 502      10.376   5.284   5.292  1.00142.77     0.171 HD
HETATM   17  C21 MIQ B 502      10.303   3.153   5.163  1.00142.22     0.224 C 
HETATM   18  C22 MIQ B 502      10.892   2.009   5.965  1.00139.52     0.106 C 
HETATM   19  O24 MIQ B 502       9.386   2.995   4.434  1.00146.13    -0.273 OA
HETATM   20  C23 MIQ B 502      12.361   1.932   5.591  1.00139.15     0.045 C 
ENDBRANCH  10  12
BRANCH   5  21
HETATM   21  N6  MIQ B 502      15.963   3.633  12.657  1.00140.95    -0.377 N 
HETATM   22  C7  MIQ B 502      14.929   2.981  13.442  1.00142.12     0.149 C 
HETATM   23  C8  MIQ B 502      14.713   3.672  14.782  1.00144.10     0.187 C 
HETATM   24  O9  MIQ B 502      15.906   3.926  15.461  1.00148.65    -0.388 OA
HETATM   25  C10 MIQ B 502      17.135   3.756  14.819  1.00147.44     0.187 C 
HETATM   26  C11 MIQ B 502      17.210   3.985  13.313  1.00144.08     0.149 C 
ENDBRANCH   5  21
TORSDOF 2
ENDMDL
MODEL 3
REMARK VINA RESULT:      -6.4     21.631     24.490
REMARK  2 active torsions:
REMARK  status: ('A' for Active; 'I' for Inactive)
REMARK    1  A    between atoms: C5_5  and  N6_21 
REMARK    2  A    between atoms: C18_14  and  N17_19 
ROOT
HETATM    1  O1  MIQ B 502      23.580  23.494  12.224  1.00142.91    -0.171 OA
HETATM    2  C2  MIQ B 502      23.463  22.103  12.246  1.00141.17     0.195 A 
HETATM    3  C3  MIQ B 502      23.991  21.115  11.158  1.00141.71     0.035 A 
HETATM    4  C4  MIQ B 502      24.717  21.302   9.879  1.00142.86     0.046 A 
HETATM    5  C5  MIQ B 502      25.072  20.181   9.086  1.00139.53     0.031 A 
HETATM    6  C12 MIQ B 502      24.723  18.840   9.533  1.00139.38     0.030 A 
HETATM    7  C13 MIQ B 502      24.028  18.661  10.759  1.00141.18     0.019 A 
HETATM    8  C14 MIQ B 502      23.660  19.841  11.588  1.00138.77     0.033 A 
HETATM    9  C15 MIQ B 502      22.922  20.039  12.953  1.00142.10     0.195 A 
HETATM   10  N17 MIQ B 502      22.901  21.343  13.171  1.00139.42    -0.288 N 
HETATM   11  O16 MIQ B 502      22.393  19.038  13.769  1.00148.93    -0.171 OA
ENDROOT
BRANCH  10  12
HETATM   12  C18 MIQ B 502      22.273  21.903  14.353  1.00139.82     0.187 C 
HETATM   13  C19 MIQ B 502      21.213  22.909  13.888  1.00140.06     0.247 C 
HETATM   14  O25 MIQ B 502      20.417  22.576  13.082  1.00143.95    -0.271 OA
HETATM   15  N20 MIQ B 502      21.156  24.257  14.414  1.00140.02    -0.296 N 
HETATM   16  H13 MIQ B 502      20.463  24.906  14.097  1.00142.77     0.171 HD
HETATM   17  C21 MIQ B 502      22.144  24.643  15.388  1.00142.22     0.224 C 
HETATM   18  C22 MIQ B 502      23.521  24.026  15.243  1.00139.52     0.106 C 
HETATM   19  O24 MIQ B 502      21.889  25.399  16.260  1.00146.13    -0.273 OA
HETATM   20  C23 MIQ B 502      23.325  22.521  15.272  1.00139.15     0.045 C 
ENDBRANCH  10  12
BRANCH   5  21
HETATM   21  N6  MIQ B 502      25.769  20.380   7.828  1.00140.95    -0.377 N 
HETATM   22  C7  MIQ B 502      25.031  20.202   6.590  1.00142.12     0.149 C 
HETATM   23  C8  MIQ B 502      25.943  19.803   5.436  1.00144.10     0.187 C 
HETATM   24  O9  MIQ B 502      27.082  20.605   5.342  1.00148.65    -0.388 OA
HETATM   25  C10 MIQ B 502      27.405  21.499   6.366  1.00147.44     0.187 C 
HETATM   26  C11 MIQ B 502      27.000  21.150   7.794  1.00144.08     0.149 C 
ENDBRANCH   5  21
TORSDOF 2
ENDMDL
MODEL 4
REMARK VINA RESULT:      -6.3     20.565     23.570
REMARK  2 active torsions:
REMARK  status: ('A' for Active; 'I' for Inactive)
REMARK    1  A    between atoms: C5_5  and  N6_21 
REMARK    2  A    between atoms: C18_14  and  N17_19 
ROOT
HETATM    1  O1  MIQ B 502      22.367  18.997  13.577  1.00142.91    -0.171 OA
HETATM    2  C2  MIQ B 502      22.927  20.033  12.827  1.00141.17     0.195 A 
HETATM    3  C3  MIQ B 502      23.702  19.880  11.480  1.00141.71     0.035 A 
HETATM    4  C4  MIQ B 502      24.062  18.715  10.637  1.00142.86     0.046 A 
HETATM    5  C5  MIQ B 502      24.790  18.898   9.434  1.00139.53     0.031 A 
HETATM    6  C12 MIQ B 502      25.185  20.238   9.025  1.00139.38     0.030 A 
HETATM    7  C13 MIQ B 502      24.840  21.356   9.832  1.00141.18     0.019 A 
HETATM    8  C14 MIQ B 502      24.073  21.158  11.093  1.00138.77     0.033 A 
HETATM    9  C15 MIQ B 502      23.525  22.109  12.206  1.00142.10     0.195 A 
HETATM   10  N17 MIQ B 502      22.917  21.329  13.085  1.00139.42    -0.288 N 
HETATM   11  O16 MIQ B 502      23.655  23.498  12.258  1.00148.93    -0.171 OA
ENDROOT
BRANCH  10  12
HETATM   12  C18 MIQ B 502      22.294  21.874  14.277  1.00139.82     0.187 C 
HETATM   13  C19 MIQ B 502      21.217  22.869  13.829  1.00140.06     0.247 C 
HETATM   14  O25 MIQ B 502      20.418  22.532  13.029  1.00143.95    -0.271 OA
HETATM   15  N20 MIQ B 502      21.149  24.214  14.365  1.00140.02    -0.296 N 
HETATM   16  H13 MIQ B 502      20.445  24.856  14.059  1.00142.77     0.171 HD
HETATM   17  C21 MIQ B 502      22.142  24.605  15.332  1.00142.22     0.224 C 
HETATM   18  C22 MIQ B 502      23.525  24.006  15.169  1.00139.52     0.106 C 
HETATM   19  O24 MIQ B 502      21.887  25.353  16.211  1.00146.13    -0.273 OA
HETATM   20  C23 MIQ B 502      23.348  22.499  15.190  1.00139.15     0.045 C 
ENDBRANCH  10  12
BRANCH   5  21
HETATM   21  N6  MIQ B 502      25.148  17.747   8.626  1.00140.95    -0.377 N 
HETATM   22  C7  MIQ B 502      24.092  16.849   8.190  1.00142.12     0.149 C 
HETATM   23  C8  MIQ B 502      24.610  15.437   7.948  1.00144.10     0.187 C 
HETATM   24  O9  MIQ B 502      25.773  15.410   7.176  1.00148.65    -0.388 OA
HETATM   25  C10 MIQ B 502      26.462  16.592   6.892  1.00147.44     0.187 C 
HETATM   26  C11 MIQ B 502      26.410  17.728   7.908  1.00144.08     0.149 C 
ENDBRANCH   5  21
TORSDOF 2
ENDMDL
MODEL 5
REMARK VINA RESULT:      -6.0     17.391     21.717
REMARK  2 active torsions:
REMARK  status: ('A' for Active; 'I' for Inactive)
REMARK    1  A    between atoms: C5_5  and  N6_21 
REMARK    2  A    between atoms: C18_14  and  N17_19 
ROOT
HETATM    1  O1  MIQ B 502      18.909  19.605   0.436  1.00142.91    -0.171 OA
HETATM    2  C2  MIQ B 502      17.621  19.482  -0.091  1.00141.17     0.195 A 
HETATM    3  C3  MIQ B 502      16.969  18.172  -0.638  1.00141.71     0.035 A 
HETATM    4  C4  MIQ B 502      17.444  16.774  -0.764  1.00142.86     0.046 A 
HETATM    5  C5  MIQ B 502      16.599  15.777  -1.315  1.00139.53     0.031 A 
HETATM    6  C12 MIQ B 502      15.258  16.131  -1.758  1.00139.38     0.030 A 
HETATM    7  C13 MIQ B 502      14.802  17.472  -1.635  1.00141.18     0.019 A 
HETATM    8  C14 MIQ B 502      15.693  18.513  -1.055  1.00138.77     0.033 A 
HETATM    9  C15 MIQ B 502      15.551  20.043  -0.764  1.00142.10     0.195 A 
HETATM   10  N17 MIQ B 502      16.701  20.421  -0.232  1.00139.42    -0.288 N 
HETATM   11  O16 MIQ B 502      14.436  20.842  -1.020  1.00148.93    -0.171 OA
ENDROOT
BRANCH  10  12
HETATM   12  C18 MIQ B 502      16.940  21.800   0.155  1.00139.82     0.187 C 
HETATM   13  C19 MIQ B 502      18.237  22.258  -0.523  1.00140.06     0.247 C 
HETATM   14  O25 MIQ B 502      18.367  22.097  -1.684  1.00143.95    -0.271 OA
HETATM   15  N20 MIQ B 502      19.307  22.889   0.222  1.00140.02    -0.296 N 
HETATM   16  H13 MIQ B 502      20.151  23.177  -0.231  1.00142.77     0.171 HD
HETATM   17  C21 MIQ B 502      19.128  23.064   1.641  1.00142.22     0.224 C 
HETATM   18  C22 MIQ B 502      18.332  21.996   2.364  1.00139.52     0.106 C 
HETATM   19  O24 MIQ B 502      19.577  23.998   2.209  1.00146.13    -0.273 OA
HETATM   20  C23 MIQ B 502      16.980  21.925   1.677  1.00139.15     0.045 C 
ENDBRANCH  10  12
BRANCH   5  21
HETATM   21  N6  MIQ B 502      17.082  14.415  -1.446  1.00140.95    -0.377 N 
HETATM   22  C7  MIQ B 502      18.506  14.167  -1.308  1.00142.12     0.149 C 
HETATM   23  C8  MIQ B 502      18.944  12.922  -2.070  1.00144.10     0.187 C 
HETATM   24  O9  MIQ B 502      18.120  11.821  -1.831  1.00148.65    -0.388 OA
HETATM   25  C10 MIQ B 502      16.912  11.976  -1.146  1.00147.44     0.187 C 
HETATM   26  C11 MIQ B 502      16.166  13.301  -1.273  1.00144.08     0.149 C 
ENDBRANCH   5  21
TORSDOF 2
ENDMDL
MODEL 6
REMARK VINA RESULT:      -5.9      1.833      7.928
REMARK  2 active torsions:
REMARK  status: ('A' for Active; 'I' for Inactive)
REMARK    1  A    between atoms: C5_5  and  N6_21 
REMARK    2  A    between atoms: C18_14  and  N17_19 
ROOT
HETATM    1  O1  MIQ B 502       9.325   2.217  12.427  1.00142.91    -0.171 OA
HETATM    2  C2  MIQ B 502      10.571   1.613  12.240  1.00141.17     0.195 A 
HETATM    3  C3  MIQ B 502      11.537   1.846  11.036  1.00141.71     0.035 A 
HETATM    4  C4  MIQ B 502      11.467   2.694   9.822  1.00142.86     0.046 A 
HETATM    5  C5  MIQ B 502      12.531   2.694   8.885  1.00139.53     0.031 A 
HETATM    6  C12 MIQ B 502      13.699   1.856   9.118  1.00139.38     0.030 A 
HETATM    7  C13 MIQ B 502      13.767   1.044  10.282  1.00141.18     0.019 A 
HETATM    8  C14 MIQ B 502      12.648   1.050  11.263  1.00138.77     0.033 A 
HETATM    9  C15 MIQ B 502      12.369   0.319  12.617  1.00142.10     0.195 A 
HETATM   10  N17 MIQ B 502      11.184   0.743  13.024  1.00139.42    -0.288 N 
HETATM   11  O16 MIQ B 502      13.204  -0.597  13.260  1.00148.93    -0.171 OA
ENDROOT
BRANCH  10  12
HETATM   12  C18 MIQ B 502      10.588   0.258  14.255  1.00139.82     0.187 C 
HETATM   13  C19 MIQ B 502       9.097   0.020  13.990  1.00140.06     0.247 C 
HETATM   14  O25 MIQ B 502       8.773  -0.628  13.059  1.00143.95    -0.271 OA
HETATM   15  N20 MIQ B 502       8.071   0.565  14.855  1.00140.02    -0.296 N 
HETATM   16  H13 MIQ B 502       7.100   0.408  14.668  1.00142.77     0.171 HD
HETATM   17  C21 MIQ B 502       8.490   1.362  15.979  1.00142.22     0.224 C 
HETATM   18  C22 MIQ B 502       9.739   2.201  15.792  1.00139.52     0.106 C 
HETATM   19  O24 MIQ B 502       7.891   1.356  16.998  1.00146.13    -0.273 OA
HETATM   20  C23 MIQ B 502      10.847   1.243  15.395  1.00139.15     0.045 C 
ENDBRANCH  10  12
BRANCH   5  21
HETATM   21  N6  MIQ B 502      12.443   3.518   7.694  1.00140.95    -0.377 N 
HETATM   22  C7  MIQ B 502      13.510   3.436   6.711  1.00142.12     0.149 C 
HETATM   23  C8  MIQ B 502      13.644   4.723   5.907  1.00144.10     0.187 C 
HETATM   24  O9  MIQ B 502      12.421   5.191   5.423  1.00148.65    -0.388 OA
HETATM   25  C10 MIQ B 502      11.222   4.624   5.862  1.00147.44     0.187 C 
HETATM   26  C11 MIQ B 502      11.159   4.054   7.276  1.00144.08     0.149 C 
ENDBRANCH   5  21
TORSDOF 2
ENDMDL
MODEL 7
REMARK VINA RESULT:      -5.9      4.768      6.752
REMARK  2 active torsions:
REMARK  status: ('A' for Active; 'I' for Inactive)
REMARK    1  A    between atoms: C5_5  and  N6_21 
REMARK    2  A    between atoms: C18_14  and  N17_19 
ROOT
HETATM    1  O1  MIQ B 502      15.828   4.813   6.200  1.00142.91    -0.171 OA
HETATM    2  C2  MIQ B 502      15.073   4.247   7.231  1.00141.17     0.195 A 
HETATM    3  C3  MIQ B 502      15.525   4.073   8.716  1.00141.71     0.035 A 
HETATM    4  C4  MIQ B 502      16.767   4.414   9.450  1.00142.86     0.046 A 
HETATM    5  C5  MIQ B 502      16.884   4.125  10.833  1.00139.53     0.031 A 
HETATM    6  C12 MIQ B 502      15.777   3.492  11.535  1.00139.38     0.030 A 
HETATM    7  C13 MIQ B 502      14.586   3.166  10.832  1.00141.18     0.019 A 
HETATM    8  C14 MIQ B 502      14.468   3.473   9.380  1.00138.77     0.033 A 
HETATM    9  C15 MIQ B 502      13.353   3.274   8.302  1.00142.10     0.195 A 
HETATM   10  N17 MIQ B 502      13.847   3.757   7.173  1.00139.42    -0.288 N 
HETATM   11  O16 MIQ B 502      12.095   2.701   8.495  1.00148.93    -0.171 OA
ENDROOT
BRANCH  10  12
HETATM   12  C18 MIQ B 502      13.085   3.725   5.939  1.00139.82     0.187 C 
HETATM   13  C19 MIQ B 502      11.722   4.372   6.214  1.00140.06     0.247 C 
HETATM   14  O25 MIQ B 502      11.681   5.432   6.730  1.00143.95    -0.271 OA
HETATM   15  N20 MIQ B 502      10.480   3.719   5.852  1.00140.02    -0.296 N 
HETATM   16  H13 MIQ B 502       9.597   4.149   6.043  1.00142.77     0.171 HD
HETATM   17  C21 MIQ B 502      10.556   2.421   5.233  1.00142.22     0.224 C 
HETATM   18  C22 MIQ B 502      11.695   1.522   5.673  1.00139.52     0.106 C 
HETATM   19  O24 MIQ B 502       9.771   2.078   4.419  1.00146.13    -0.273 OA
HETATM   20  C23 MIQ B 502      12.977   2.294   5.417  1.00139.15     0.045 C 
ENDBRANCH  10  12
BRANCH   5  21
HETATM   21  N6  MIQ B 502      18.111   4.451  11.536  1.00140.95    -0.377 N 
HETATM   22  C7  MIQ B 502      19.077   5.317  10.882  1.00142.12     0.149 C 
HETATM   23  C8  MIQ B 502      20.495   5.064  11.379  1.00144.10     0.187 C 
HETATM   24  O9  MIQ B 502      20.583   5.016  12.771  1.00148.65    -0.388 OA
HETATM   25  C10 MIQ B 502      19.425   4.976  13.552  1.00147.44     0.187 C 
HETATM   26  C11 MIQ B 502      18.182   4.303  12.979  1.00144.08     0.149 C 
ENDBRANCH   5  21
TORSDOF 2
ENDMDL
MODEL 8
REMARK VINA RESULT:      -5.9     16.912     20.131
REMARK  2 active torsions:
REMARK  status: ('A' for Active; 'I' for Inactive)
REMARK    1  A    between atoms: C5_5  and  N6_21 
REMARK    2  A    between atoms: C18_14  and  N17_19 
ROOT
HETATM    1  O1  MIQ B 502      20.566  15.501  -1.751  1.00142.91    -0.171 OA
HETATM    2  C2  MIQ B 502      19.239  15.077  -1.647  1.00141.17     0.195 A 
HETATM    3  C3  MIQ B 502      17.999  15.988  -1.378  1.00141.71     0.035 A 
HETATM    4  C4  MIQ B 502      17.831  17.446  -1.169  1.00142.86     0.046 A 
HETATM    5  C5  MIQ B 502      16.544  17.994  -0.942  1.00139.53     0.031 A 
HETATM    6  C12 MIQ B 502      15.380  17.120  -0.916  1.00139.38     0.030 A 
HETATM    7  C13 MIQ B 502      15.540  15.722  -1.118  1.00141.18     0.019 A 
HETATM    8  C14 MIQ B 502      16.894  15.152  -1.358  1.00138.77     0.033 A 
HETATM    9  C15 MIQ B 502      17.452  13.715  -1.616  1.00142.10     0.195 A 
HETATM   10  N17 MIQ B 502      18.760  13.850  -1.757  1.00139.42    -0.288 N 
HETATM   11  O16 MIQ B 502      16.714  12.531  -1.681  1.00148.93    -0.171 OA
ENDROOT
BRANCH  10  12
HETATM   12  C18 MIQ B 502      19.618  12.705  -1.997  1.00139.82     0.187 C 
HETATM   13  C19 MIQ B 502      19.033  11.920  -3.177  1.00140.06     0.247 C 
HETATM   14  O25 MIQ B 502      18.771  12.492  -4.175  1.00143.95    -0.271 OA
HETATM   15  N20 MIQ B 502      18.796  10.493  -3.103  1.00140.02    -0.296 N 
HETATM   16  H13 MIQ B 502      18.407   9.994  -3.878  1.00142.77     0.171 HD
HETATM   17  C21 MIQ B 502      19.113   9.820  -1.870  1.00142.22     0.224 C 
HETATM   18  C22 MIQ B 502      18.914  10.611  -0.591  1.00139.52     0.106 C 
HETATM   19  O24 MIQ B 502      19.513   8.708  -1.859  1.00146.13    -0.273 OA
HETATM   20  C23 MIQ B 502      19.755  11.867  -0.726  1.00139.15     0.045 C 
ENDBRANCH  10  12
BRANCH   5  21
HETATM   21  N6  MIQ B 502      16.396  19.422  -0.724  1.00140.95    -0.377 N 
HETATM   22  C7  MIQ B 502      15.105  20.034  -0.984  1.00142.12     0.149 C 
HETATM   23  C8  MIQ B 502      15.237  21.509  -1.344  1.00144.10     0.187 C 
HETATM   24  O9  MIQ B 502      16.064  22.210  -0.465  1.00148.65    -0.388 OA
HETATM   25  C10 MIQ B 502      16.839  21.527   0.475  1.00147.44     0.187 C 
HETATM   26  C11 MIQ B 502      17.334  20.126   0.132  1.00144.08     0.149 C 
ENDBRANCH   5  21
TORSDOF 2
ENDMDL
MODEL 9
REMARK VINA RESULT:      -5.9      4.544      6.692
REMARK  2 active torsions:
REMARK  status: ('A' for Active; 'I' for Inactive)
REMARK    1  A    between atoms: C5_5  and  N6_21 
REMARK    2  A    between atoms: C18_14  and  N17_19 
ROOT
HETATM    1  O1  MIQ B 502      14.236   3.936   7.552  1.00142.91    -0.171 OA
HETATM    2  C2  MIQ B 502      14.023   3.411   8.828  1.00141.17     0.195 A 
HETATM    3  C3  MIQ B 502      15.010   3.494  10.036  1.00141.71     0.035 A 
HETATM    4  C4  MIQ B 502      16.354   4.094  10.215  1.00142.86     0.046 A 
HETATM    5  C5  MIQ B 502      17.017   4.007  11.465  1.00139.53     0.031 A 
HETATM    6  C12 MIQ B 502      16.374   3.324  12.578  1.00139.38     0.030 A 
HETATM    7  C13 MIQ B 502      15.086   2.750  12.408  1.00141.18     0.019 A 
HETATM    8  C14 MIQ B 502      14.393   2.847  11.094  1.00138.77     0.033 A 
HETATM    9  C15 MIQ B 502      13.014   2.359  10.540  1.00142.10     0.195 A 
HETATM   10  N17 MIQ B 502      12.968   2.754   9.278  1.00139.42    -0.288 N 
HETATM   11  O16 MIQ B 502      12.037   1.649  11.238  1.00148.93    -0.171 OA
ENDROOT
BRANCH  10  12
HETATM   12  C18 MIQ B 502      11.825   2.459   8.434  1.00139.82     0.187 C 
HETATM   13  C19 MIQ B 502      12.354   1.872   7.119  1.00140.06     0.247 C 
HETATM   14  O25 MIQ B 502      13.118   0.974   7.155  1.00143.95    -0.271 OA
HETATM   15  N20 MIQ B 502      11.937   2.386   5.831  1.00140.02    -0.296 N 
HETATM   16  H13 MIQ B 502      12.295   1.999   4.980  1.00142.77     0.171 HD
HETATM   17  C21 MIQ B 502      11.011   3.490   5.812  1.00142.22     0.224 C 
HETATM   18  C22 MIQ B 502      11.127   4.495   6.942  1.00139.52     0.106 C 
HETATM   19  O24 MIQ B 502      10.199   3.601   4.961  1.00146.13    -0.273 OA
HETATM   20  C23 MIQ B 502      10.974   3.712   8.233  1.00139.15     0.045 C 
ENDBRANCH  10  12
BRANCH   5  21
HETATM   21  N6  MIQ B 502      18.339   4.586  11.621  1.00140.95    -0.377 N 
HETATM   22  C7  MIQ B 502      18.924   4.634  12.950  1.00142.12     0.149 C 
HETATM   23  C8  MIQ B 502      19.927   5.772  13.090  1.00144.10     0.187 C 
HETATM   24  O9  MIQ B 502      20.839   5.825  12.034  1.00148.65    -0.388 OA
HETATM   25  C10 MIQ B 502      20.648   5.040  10.894  1.00147.44     0.187 C 
HETATM   26  C11 MIQ B 502      19.223   4.699  10.474  1.00144.08     0.149 C 
ENDBRANCH   5  21
TORSDOF 2
ENDMDL
