MODEL 1
REMARK VINA RESULT:      -6.8      0.000      0.000
REMARK  2 active torsions:
REMARK  status: ('A' for Active; 'I' for Inactive)
REMARK    1  A    between atoms: C5_5  and  N6_21 
REMARK    2  A    between atoms: C18_14  and  N17_19 
ROOT
HETATM    1  O1  MIQ B 502      -6.956   9.045   8.503  1.00142.91    -0.171 OA
HETATM    2  C2  MIQ B 502      -7.520   8.992   9.780  1.00141.17     0.195 A 
HETATM    3  C3  MIQ B 502      -7.274   7.883  10.852  1.00141.71     0.035 A 
HETATM    4  C4  MIQ B 502      -6.450   6.651  10.873  1.00142.86     0.046 A 
HETATM    5  C5  MIQ B 502      -6.430   5.822  12.022  1.00139.53     0.031 A 
HETATM    6  C12 MIQ B 502      -7.223   6.184  13.189  1.00139.38     0.030 A 
HETATM    7  C13 MIQ B 502      -8.012   7.365  13.169  1.00141.18     0.019 A 
HETATM    8  C14 MIQ B 502      -8.028   8.233  11.960  1.00138.77     0.033 A 
HETATM    9  C15 MIQ B 502      -8.744   9.569  11.575  1.00142.10     0.195 A 
HETATM   10  N17 MIQ B 502      -8.354   9.850  10.342  1.00139.42    -0.288 N 
HETATM   11  O16 MIQ B 502      -9.619  10.308  12.373  1.00148.93    -0.171 OA
ENDROOT
BRANCH  10  12
HETATM   12  C18 MIQ B 502      -8.838  11.027   9.645  1.00139.82     0.187 C 
HETATM   13  C19 MIQ B 502      -9.446  10.565   8.315  1.00140.06     0.247 C 
HETATM   14  O25 MIQ B 502     -10.243   9.696   8.317  1.00143.95    -0.271 OA
HETATM   15  N20 MIQ B 502      -9.073  11.171   7.053  1.00140.02    -0.296 N 
HETATM   16  H13 MIQ B 502      -9.473  10.857   6.191  1.00142.77     0.171 HD
HETATM   17  C21 MIQ B 502      -8.090  12.224   7.075  1.00142.22     0.224 C 
HETATM   18  C22 MIQ B 502      -7.004  12.119   8.128  1.00139.52     0.106 C 
HETATM   19  O24 MIQ B 502      -8.133  13.125   6.312  1.00146.13    -0.273 OA
HETATM   20  C23 MIQ B 502      -7.710  12.042   9.470  1.00139.15     0.045 C 
ENDBRANCH  10  12
BRANCH   5  21
HETATM   21  N6  MIQ B 502      -5.630   4.610  12.024  1.00140.95    -0.377 N 
HETATM   22  C7  MIQ B 502      -4.203   4.720  11.776  1.00142.12     0.149 C 
HETATM   23  C8  MIQ B 502      -3.629   3.442  11.179  1.00144.10     0.187 C 
HETATM   24  O9  MIQ B 502      -4.029   2.294  11.866  1.00148.65    -0.388 OA
HETATM   25  C10 MIQ B 502      -5.032   2.363  12.836  1.00147.44     0.187 C 
HETATM   26  C11 MIQ B 502      -6.127   3.413  12.679  1.00144.08     0.149 C 
ENDBRANCH   5  21
TORSDOF 2
ENDMDL
MODEL 2
REMARK VINA RESULT:      -6.4      2.079      3.003
REMARK  2 active torsions:
REMARK  status: ('A' for Active; 'I' for Inactive)
REMARK    1  A    between atoms: C5_5  and  N6_21 
REMARK    2  A    between atoms: C18_14  and  N17_19 
ROOT
HETATM    1  O1  MIQ B 502      -7.075   7.830  10.133  1.00142.91    -0.171 OA
HETATM    2  C2  MIQ B 502      -7.304   7.318  11.412  1.00141.17     0.195 A 
HETATM    3  C3  MIQ B 502      -6.462   6.213  12.127  1.00141.71     0.035 A 
HETATM    4  C4  MIQ B 502      -5.268   5.427  11.734  1.00142.86     0.046 A 
HETATM    5  C5  MIQ B 502      -4.715   4.472  12.623  1.00139.53     0.031 A 
HETATM    6  C12 MIQ B 502      -5.323   4.262  13.929  1.00139.38     0.030 A 
HETATM    7  C13 MIQ B 502      -6.467   5.016  14.307  1.00141.18     0.019 A 
HETATM    8  C14 MIQ B 502      -7.042   6.020  13.370  1.00138.77     0.033 A 
HETATM    9  C15 MIQ B 502      -8.250   7.011  13.428  1.00142.10     0.195 A 
HETATM   10  N17 MIQ B 502      -8.252   7.652  12.270  1.00139.42    -0.288 N 
HETATM   11  O16 MIQ B 502      -9.144   7.178  14.486  1.00148.93    -0.171 OA
ENDROOT
BRANCH  10  12
HETATM   12  C18 MIQ B 502      -9.257   8.651  11.960  1.00139.82     0.187 C 
HETATM   13  C19 MIQ B 502      -9.915   8.256  10.632  1.00140.06     0.247 C 
HETATM   14  O25 MIQ B 502     -10.328   7.160  10.497  1.00143.95    -0.271 OA
HETATM   15  N20 MIQ B 502     -10.048   9.195   9.537  1.00140.02    -0.296 N 
HETATM   16  H13 MIQ B 502     -10.474   8.923   8.672  1.00142.77     0.171 HD
HETATM   17  C21 MIQ B 502      -9.527  10.525   9.721  1.00142.22     0.224 C 
HETATM   18  C22 MIQ B 502      -8.287  10.657  10.584  1.00139.52     0.106 C 
HETATM   19  O24 MIQ B 502     -10.045  11.466   9.228  1.00146.13    -0.273 OA
HETATM   20  C23 MIQ B 502      -8.630  10.044  11.930  1.00139.15     0.045 C 
ENDBRANCH  10  12
BRANCH   5  21
HETATM   21  N6  MIQ B 502      -3.554   3.698  12.219  1.00140.95    -0.377 N 
HETATM   22  C7  MIQ B 502      -2.819   2.967  13.236  1.00142.12     0.149 C 
HETATM   23  C8  MIQ B 502      -1.360   2.764  12.847  1.00144.10     0.187 C 
HETATM   24  O9  MIQ B 502      -1.206   2.290  11.543  1.00148.65    -0.388 OA
HETATM   25  C10 MIQ B 502      -2.296   2.255  10.669  1.00147.44     0.187 C 
HETATM   26  C11 MIQ B 502      -3.394   3.302  10.831  1.00144.08     0.149 C 
ENDBRANCH   5  21
TORSDOF 2
ENDMDL
MODEL 3
REMARK VINA RESULT:      -6.2      3.180      8.052
REMARK  2 active torsions:
REMARK  status: ('A' for Active; 'I' for Inactive)
REMARK    1  A    between atoms: C5_5  and  N6_21 
REMARK    2  A    between atoms: C18_14  and  N17_19 
ROOT
HETATM    1  O1  MIQ B 502     -11.319   8.836  10.835  1.00142.91    -0.171 OA
HETATM    2  C2  MIQ B 502      -9.951   8.640  10.630  1.00141.17     0.195 A 
HETATM    3  C3  MIQ B 502      -8.987   9.598   9.860  1.00141.71     0.035 A 
HETATM    4  C4  MIQ B 502      -9.178  10.895   9.168  1.00142.86     0.046 A 
HETATM    5  C5  MIQ B 502      -8.081  11.543   8.545  1.00139.53     0.031 A 
HETATM    6  C12 MIQ B 502      -6.761  10.931   8.587  1.00139.38     0.030 A 
HETATM    7  C13 MIQ B 502      -6.578   9.688   9.252  1.00141.18     0.019 A 
HETATM    8  C14 MIQ B 502      -7.732   9.013   9.906  1.00138.77     0.033 A 
HETATM    9  C15 MIQ B 502      -7.918   7.685  10.709  1.00142.10     0.195 A 
HETATM   10  N17 MIQ B 502      -9.199   7.632  11.037  1.00139.42    -0.288 N 
HETATM   11  O16 MIQ B 502      -6.930   6.747  11.013  1.00148.93    -0.171 OA
ENDROOT
BRANCH  10  12
HETATM   12  C18 MIQ B 502      -9.744   6.515  11.785  1.00139.82     0.187 C 
HETATM   13  C19 MIQ B 502     -10.912   5.937  10.977  1.00140.06     0.247 C 
HETATM   14  O25 MIQ B 502     -10.749   5.669   9.840  1.00143.95    -0.271 OA
HETATM   15  N20 MIQ B 502     -12.212   5.705  11.573  1.00140.02    -0.296 N 
HETATM   16  H13 MIQ B 502     -12.969   5.334  11.033  1.00142.77     0.171 HD
HETATM   17  C21 MIQ B 502     -12.389   6.051  12.960  1.00142.22     0.224 C 
HETATM   18  C22 MIQ B 502     -11.610   7.248  13.469  1.00139.52     0.106 C 
HETATM   19  O24 MIQ B 502     -13.103   5.427  13.666  1.00146.13    -0.273 OA
HETATM   20  C23 MIQ B 502     -10.146   6.960  13.190  1.00139.15     0.045 C 
ENDBRANCH  10  12
BRANCH   5  21
HETATM   21  N6  MIQ B 502      -8.286  12.805   7.858  1.00140.95    -0.377 N 
HETATM   22  C7  MIQ B 502      -7.609  13.024   6.592  1.00142.12     0.149 C 
HETATM   23  C8  MIQ B 502      -7.373  14.505   6.321  1.00144.10     0.187 C 
HETATM   24  O9  MIQ B 502      -8.513  15.283   6.531  1.00148.65    -0.388 OA
HETATM   25  C10 MIQ B 502      -9.641  14.736   7.148  1.00147.44     0.187 C 
HETATM   26  C11 MIQ B 502      -9.443  13.624   8.173  1.00144.08     0.149 C 
ENDBRANCH   5  21
TORSDOF 2
ENDMDL
MODEL 4
REMARK VINA RESULT:      -6.2      1.691      2.781
REMARK  2 active torsions:
REMARK  status: ('A' for Active; 'I' for Inactive)
REMARK    1  A    between atoms: C5_5  and  N6_21 
REMARK    2  A    between atoms: C18_14  and  N17_19 
ROOT
HETATM    1  O1  MIQ B 502      -9.515  10.108  12.464  1.00142.91    -0.171 OA
HETATM    2  C2  MIQ B 502      -8.639   9.443  11.603  1.00141.17     0.195 A 
HETATM    3  C3  MIQ B 502      -7.801   8.170  11.943  1.00141.71     0.035 A 
HETATM    4  C4  MIQ B 502      -7.670   7.331  13.158  1.00142.86     0.046 A 
HETATM    5  C5  MIQ B 502      -6.805   6.207  13.163  1.00139.53     0.031 A 
HETATM    6  C12 MIQ B 502      -6.044   5.876  11.967  1.00139.38     0.030 A 
HETATM    7  C13 MIQ B 502      -6.170   6.680  10.802  1.00141.18     0.019 A 
HETATM    8  C14 MIQ B 502      -7.081   7.857  10.802  1.00138.77     0.033 A 
HETATM    9  C15 MIQ B 502      -7.475   8.942   9.747  1.00142.10     0.195 A 
HETATM   10  N17 MIQ B 502      -8.344   9.737  10.348  1.00139.42    -0.288 N 
HETATM   11  O16 MIQ B 502      -7.001   9.046   8.438  1.00148.93    -0.171 OA
ENDROOT
BRANCH  10  12
HETATM   12  C18 MIQ B 502      -8.921  10.881   9.667  1.00139.82     0.187 C 
HETATM   13  C19 MIQ B 502      -9.548  10.380   8.361  1.00140.06     0.247 C 
HETATM   14  O25 MIQ B 502     -10.292   9.465   8.393  1.00143.95    -0.271 OA
HETATM   15  N20 MIQ B 502      -9.257  11.003   7.086  1.00140.02    -0.296 N 
HETATM   16  H13 MIQ B 502      -9.668  10.662   6.239  1.00142.77     0.171 HD
HETATM   17  C21 MIQ B 502      -8.337  12.111   7.071  1.00142.22     0.224 C 
HETATM   18  C22 MIQ B 502      -7.210  12.074   8.085  1.00139.52     0.106 C 
HETATM   19  O24 MIQ B 502      -8.461  13.006   6.309  1.00146.13    -0.273 OA
HETATM   20  C23 MIQ B 502      -7.862  11.961   9.451  1.00139.15     0.045 C 
ENDBRANCH  10  12
BRANCH   5  21
HETATM   21  N6  MIQ B 502      -6.675   5.402  14.364  1.00140.95    -0.377 N 
HETATM   22  C7  MIQ B 502      -5.485   4.585  14.527  1.00142.12     0.149 C 
HETATM   23  C8  MIQ B 502      -5.744   3.375  15.415  1.00144.10     0.187 C 
HETATM   24  O9  MIQ B 502      -6.411   3.701  16.598  1.00148.65    -0.388 OA
HETATM   25  C10 MIQ B 502      -6.960   4.974  16.773  1.00147.44     0.187 C 
HETATM   26  C11 MIQ B 502      -7.456   5.730  15.544  1.00144.08     0.149 C 
ENDBRANCH   5  21
TORSDOF 2
ENDMDL
MODEL 5
REMARK VINA RESULT:      -6.1      1.898      2.259
REMARK  2 active torsions:
REMARK  status: ('A' for Active; 'I' for Inactive)
REMARK    1  A    between atoms: C5_5  and  N6_21 
REMARK    2  A    between atoms: C18_14  and  N17_19 
ROOT
HETATM    1  O1  MIQ B 502      -6.094   8.994   9.266  1.00142.91    -0.171 OA
HETATM    2  C2  MIQ B 502      -7.195   8.467   9.944  1.00141.17     0.195 A 
HETATM    3  C3  MIQ B 502      -7.204   7.181  10.830  1.00141.71     0.035 A 
HETATM    4  C4  MIQ B 502      -6.161   6.199  11.212  1.00142.86     0.046 A 
HETATM    5  C5  MIQ B 502      -6.480   5.106  12.056  1.00139.53     0.031 A 
HETATM    6  C12 MIQ B 502      -7.840   4.948  12.551  1.00139.38     0.030 A 
HETATM    7  C13 MIQ B 502      -8.840   5.889  12.186  1.00141.18     0.019 A 
HETATM    8  C14 MIQ B 502      -8.499   7.037  11.301  1.00138.77     0.033 A 
HETATM    9  C15 MIQ B 502      -9.298   8.240  10.704  1.00142.10     0.195 A 
HETATM   10  N17 MIQ B 502      -8.432   8.932   9.983  1.00139.42    -0.288 N 
HETATM   11  O16 MIQ B 502     -10.652   8.521  10.895  1.00148.93    -0.171 OA
ENDROOT
BRANCH  10  12
HETATM   12  C18 MIQ B 502      -8.831  10.125   9.259  1.00139.82     0.187 C 
HETATM   13  C19 MIQ B 502      -9.528  11.063  10.252  1.00140.06     0.247 C 
HETATM   14  O25 MIQ B 502      -8.993  11.324  11.270  1.00143.95    -0.271 OA
HETATM   15  N20 MIQ B 502     -10.826  11.644   9.972  1.00140.02    -0.296 N 
HETATM   16  H13 MIQ B 502     -11.273  12.250  10.631  1.00142.77     0.171 HD
HETATM   17  C21 MIQ B 502     -11.463  11.302   8.727  1.00142.22     0.224 C 
HETATM   18  C22 MIQ B 502     -11.214   9.903   8.195  1.00139.52     0.106 C 
HETATM   19  O24 MIQ B 502     -12.142  12.076   8.147  1.00146.13    -0.273 OA
HETATM   20  C23 MIQ B 502      -9.709   9.753   8.065  1.00139.15     0.045 C 
ENDBRANCH  10  12
BRANCH   5  21
HETATM   21  N6  MIQ B 502      -5.452   4.143  12.409  1.00140.95    -0.377 N 
HETATM   22  C7  MIQ B 502      -4.224   4.123  11.634  1.00142.12     0.149 C 
HETATM   23  C8  MIQ B 502      -3.563   2.751  11.652  1.00144.10     0.187 C 
HETATM   24  O9  MIQ B 502      -3.467   2.211  12.937  1.00148.65    -0.388 OA
HETATM   25  C10 MIQ B 502      -4.136   2.810  14.007  1.00147.44     0.187 C 
HETATM   26  C11 MIQ B 502      -5.444   3.543  13.732  1.00144.08     0.149 C 
ENDBRANCH   5  21
TORSDOF 2
ENDMDL
MODEL 6
REMARK VINA RESULT:      -6.0     17.798     20.918
REMARK  2 active torsions:
REMARK  status: ('A' for Active; 'I' for Inactive)
REMARK    1  A    between atoms: C5_5  and  N6_21 
REMARK    2  A    between atoms: C18_14  and  N17_19 
ROOT
HETATM    1  O1  MIQ B 502       4.095  21.164  12.232  1.00142.91    -0.171 OA
HETATM    2  C2  MIQ B 502       5.346  21.583  11.773  1.00141.17     0.195 A 
HETATM    3  C3  MIQ B 502       5.953  23.014  11.930  1.00141.71     0.035 A 
HETATM    4  C4  MIQ B 502       5.463  24.266  12.552  1.00142.86     0.046 A 
HETATM    5  C5  MIQ B 502       6.265  25.435  12.538  1.00139.53     0.031 A 
HETATM    6  C12 MIQ B 502       7.578  25.403  11.908  1.00139.38     0.030 A 
HETATM    7  C13 MIQ B 502       8.048  24.202  11.313  1.00141.18     0.019 A 
HETATM    8  C14 MIQ B 502       7.203  22.977  11.333  1.00138.77     0.033 A 
HETATM    9  C15 MIQ B 502       7.372  21.516  10.803  1.00142.10     0.195 A 
HETATM   10  N17 MIQ B 502       6.261  20.878  11.130  1.00139.42    -0.288 N 
HETATM   11  O16 MIQ B 502       8.474  20.997  10.121  1.00148.93    -0.171 OA
ENDROOT
BRANCH  10  12
HETATM   12  C18 MIQ B 502       6.056  19.485  10.779  1.00139.82     0.187 C 
HETATM   13  C19 MIQ B 502       4.719  19.382  10.034  1.00140.06     0.247 C 
HETATM   14  O25 MIQ B 502       4.512  20.101   9.122  1.00143.95    -0.271 OA
HETATM   15  N20 MIQ B 502       3.704  18.421  10.414  1.00140.02    -0.296 N 
HETATM   16  H13 MIQ B 502       2.834  18.369   9.924  1.00142.77     0.171 HD
HETATM   17  C21 MIQ B 502       3.977  17.562  11.537  1.00142.22     0.224 C 
HETATM   18  C22 MIQ B 502       4.813  18.149  12.658  1.00139.52     0.106 C 
HETATM   19  O24 MIQ B 502       3.572  16.452  11.579  1.00146.13    -0.273 OA
HETATM   20  C23 MIQ B 502       6.116  18.607  12.028  1.00139.15     0.045 C 
ENDBRANCH  10  12
BRANCH   5  21
HETATM   21  N6  MIQ B 502       5.767  26.659  13.138  1.00140.95    -0.377 N 
HETATM   22  C7  MIQ B 502       4.407  26.678  13.649  1.00142.12     0.149 C 
HETATM   23  C8  MIQ B 502       3.815  28.082  13.638  1.00144.10     0.187 C 
HETATM   24  O9  MIQ B 502       4.672  29.037  14.187  1.00148.65    -0.388 OA
HETATM   25  C10 MIQ B 502       6.000  28.714  14.476  1.00147.44     0.187 C 
HETATM   26  C11 MIQ B 502       6.699  27.664  13.618  1.00144.08     0.149 C 
ENDBRANCH   5  21
TORSDOF 2
ENDMDL
MODEL 7
REMARK VINA RESULT:      -6.0      2.260      7.949
REMARK  2 active torsions:
REMARK  status: ('A' for Active; 'I' for Inactive)
REMARK    1  A    between atoms: C5_5  and  N6_21 
REMARK    2  A    between atoms: C18_14  and  N17_19 
ROOT
HETATM    1  O1  MIQ B 502      -5.501   6.386  11.683  1.00142.91    -0.171 OA
HETATM    2  C2  MIQ B 502      -6.894   6.480  11.679  1.00141.17     0.195 A 
HETATM    3  C3  MIQ B 502      -7.745   7.537  10.906  1.00141.71     0.035 A 
HETATM    4  C4  MIQ B 502      -7.398   8.669  10.014  1.00142.86     0.046 A 
HETATM    5  C5  MIQ B 502      -8.419   9.472   9.445  1.00139.53     0.031 A 
HETATM    6  C12 MIQ B 502      -9.815   9.181   9.739  1.00139.38     0.030 A 
HETATM    7  C13 MIQ B 502     -10.148   8.096  10.593  1.00141.18     0.019 A 
HETATM    8  C14 MIQ B 502      -9.072   7.255  11.186  1.00138.77     0.033 A 
HETATM    9  C15 MIQ B 502      -9.045   6.014  12.137  1.00142.10     0.195 A 
HETATM   10  N17 MIQ B 502      -7.769   5.711  12.306  1.00139.42    -0.288 N 
HETATM   11  O16 MIQ B 502     -10.148   5.364  12.694  1.00148.93    -0.171 OA
ENDROOT
BRANCH  10  12
HETATM   12  C18 MIQ B 502      -7.358   4.608  13.154  1.00139.82     0.187 C 
HETATM   13  C19 MIQ B 502      -6.437   5.171  14.243  1.00140.06     0.247 C 
HETATM   14  O25 MIQ B 502      -6.794   6.102  14.874  1.00143.95    -0.271 OA
HETATM   15  N20 MIQ B 502      -5.140   4.589  14.523  1.00140.02    -0.296 N 
HETATM   16  H13 MIQ B 502      -4.546   4.971  15.232  1.00142.77     0.171 HD
HETATM   17  C21 MIQ B 502      -4.723   3.460  13.732  1.00142.22     0.224 C 
HETATM   18  C22 MIQ B 502      -5.184   3.432  12.288  1.00139.52     0.106 C 
HETATM   19  O24 MIQ B 502      -4.058   2.597  14.190  1.00146.13    -0.273 OA
HETATM   20  C23 MIQ B 502      -6.699   3.512  12.317  1.00139.15     0.045 C 
ENDBRANCH  10  12
BRANCH   5  21
HETATM   21  N6  MIQ B 502      -8.065  10.586   8.585  1.00140.95    -0.377 N 
HETATM   22  C7  MIQ B 502      -9.123  11.461   8.109  1.00142.12     0.149 C 
HETATM   23  C8  MIQ B 502      -8.760  12.126   6.788  1.00144.10     0.187 C 
HETATM   24  O9  MIQ B 502      -7.481  12.686   6.795  1.00148.65    -0.388 OA
HETATM   25  C10 MIQ B 502      -6.598  12.421   7.845  1.00147.44     0.187 C 
HETATM   26  C11 MIQ B 502      -6.699  11.079   8.562  1.00144.08     0.149 C 
ENDBRANCH   5  21
TORSDOF 2
ENDMDL
MODEL 8
REMARK VINA RESULT:      -6.0     20.975     23.045
REMARK  2 active torsions:
REMARK  status: ('A' for Active; 'I' for Inactive)
REMARK    1  A    between atoms: C5_5  and  N6_21 
REMARK    2  A    between atoms: C18_14  and  N17_19 
ROOT
HETATM    1  O1  MIQ B 502      -0.410  25.761  19.897  1.00142.91    -0.171 OA
HETATM    2  C2  MIQ B 502       0.119  25.421  21.145  1.00141.17     0.195 A 
HETATM    3  C3  MIQ B 502       1.635  25.310  21.505  1.00141.71     0.035 A 
HETATM    4  C4  MIQ B 502       2.883  25.510  20.731  1.00142.86     0.046 A 
HETATM    5  C5  MIQ B 502       4.146  25.333  21.350  1.00139.53     0.031 A 
HETATM    6  C12 MIQ B 502       4.216  24.953  22.754  1.00139.38     0.030 A 
HETATM    7  C13 MIQ B 502       3.020  24.763  23.496  1.00141.18     0.019 A 
HETATM    8  C14 MIQ B 502       1.696  24.953  22.842  1.00138.77     0.033 A 
HETATM    9  C15 MIQ B 502       0.210  24.841  23.314  1.00142.10     0.195 A 
HETATM   10  N17 MIQ B 502      -0.532  25.133  22.259  1.00139.42    -0.288 N 
HETATM   11  O16 MIQ B 502      -0.237  24.500  24.592  1.00148.93    -0.171 OA
ENDROOT
BRANCH  10  12
HETATM   12  C18 MIQ B 502      -1.981  25.115  22.324  1.00139.82     0.187 C 
HETATM   13  C19 MIQ B 502      -2.406  25.947  23.540  1.00140.06     0.247 C 
HETATM   14  O25 MIQ B 502      -1.973  27.037  23.671  1.00143.95    -0.271 OA
HETATM   15  N20 MIQ B 502      -3.330  25.435  24.531  1.00140.02    -0.296 N 
HETATM   16  H13 MIQ B 502      -3.594  25.986  25.324  1.00142.77     0.171 HD
HETATM   17  C21 MIQ B 502      -3.837  24.099  24.354  1.00142.22     0.224 C 
HETATM   18  C22 MIQ B 502      -2.898  23.094  23.713  1.00139.52     0.106 C 
HETATM   19  O24 MIQ B 502      -4.931  23.804  24.687  1.00146.13    -0.273 OA
HETATM   20  C23 MIQ B 502      -2.493  23.676  22.372  1.00139.15     0.045 C 
ENDBRANCH  10  12
BRANCH   5  21
HETATM   21  N6  MIQ B 502       5.360  25.517  20.576  1.00140.95    -0.377 N 
HETATM   22  C7  MIQ B 502       6.397  26.386  21.106  1.00142.12     0.149 C 
HETATM   23  C8  MIQ B 502       7.253  26.990  20.001  1.00144.10     0.187 C 
HETATM   24  O9  MIQ B 502       7.687  26.043  19.070  1.00148.65    -0.388 OA
HETATM   25  C10 MIQ B 502       7.160  24.748  19.080  1.00147.44     0.187 C 
HETATM   26  C11 MIQ B 502       5.726  24.548  19.557  1.00144.08     0.149 C 
ENDBRANCH   5  21
TORSDOF 2
ENDMDL
MODEL 9
REMARK VINA RESULT:      -5.9      1.896      2.244
REMARK  2 active torsions:
REMARK  status: ('A' for Active; 'I' for Inactive)
REMARK    1  A    between atoms: C5_5  and  N6_21 
REMARK    2  A    between atoms: C18_14  and  N17_19 
ROOT
HETATM    1  O1  MIQ B 502      -7.069   7.626  10.205  1.00142.91    -0.171 OA
HETATM    2  C2  MIQ B 502      -7.436   7.866  11.531  1.00141.17     0.195 A 
HETATM    3  C3  MIQ B 502      -7.053   6.990  12.767  1.00141.71     0.035 A 
HETATM    4  C4  MIQ B 502      -6.258   5.750  12.930  1.00142.86     0.046 A 
HETATM    5  C5  MIQ B 502      -6.081   5.176  14.214  1.00139.53     0.031 A 
HETATM    6  C12 MIQ B 502      -6.684   5.809  15.378  1.00139.38     0.030 A 
HETATM    7  C13 MIQ B 502      -7.446   6.998  15.222  1.00141.18     0.019 A 
HETATM    8  C14 MIQ B 502      -7.626   7.598  13.872  1.00138.77     0.033 A 
HETATM    9  C15 MIQ B 502      -8.367   8.859  13.319  1.00142.10     0.195 A 
HETATM   10  N17 MIQ B 502      -8.161   8.861  12.013  1.00139.42    -0.288 N 
HETATM   11  O16 MIQ B 502      -9.100   9.789  14.059  1.00148.93    -0.171 OA
ENDROOT
BRANCH  10  12
HETATM   12  C18 MIQ B 502      -8.722   9.891  11.159  1.00139.82     0.187 C 
HETATM   13  C19 MIQ B 502      -9.524   9.195  10.052  1.00140.06     0.247 C 
HETATM   14  O25 MIQ B 502     -10.327   8.382  10.347  1.00143.95    -0.271 OA
HETATM   15  N20 MIQ B 502      -9.329   9.513   8.652  1.00140.02    -0.296 N 
HETATM   16  H13 MIQ B 502      -9.854   9.047   7.939  1.00142.77     0.171 HD
HETATM   17  C21 MIQ B 502      -8.336  10.501   8.317  1.00142.22     0.224 C 
HETATM   18  C22 MIQ B 502      -7.110  10.565   9.208  1.00139.52     0.106 C 
HETATM   19  O24 MIQ B 502      -8.475  11.228   7.396  1.00146.13    -0.273 OA
HETATM   20  C23 MIQ B 502      -7.615  10.796  10.620  1.00139.15     0.045 C 
ENDBRANCH  10  12
BRANCH   5  21
HETATM   21  N6  MIQ B 502      -5.312   3.953  14.357  1.00140.95    -0.377 N 
HETATM   22  C7  MIQ B 502      -4.212   3.712  13.439  1.00142.12     0.149 C 
HETATM   23  C8  MIQ B 502      -3.934   2.225  13.261  1.00144.10     0.187 C 
HETATM   24  O9  MIQ B 502      -3.861   1.537  14.474  1.00148.65    -0.388 OA
HETATM   25  C10 MIQ B 502      -4.245   2.159  15.665  1.00147.44     0.187 C 
HETATM   26  C11 MIQ B 502      -5.335   3.224  15.613  1.00144.08     0.149 C 
ENDBRANCH   5  21
TORSDOF 2
ENDMDL
