MODEL 1
REMARK VINA RESULT:      -6.5      0.000      0.000
REMARK  2 active torsions:
REMARK  status: ('A' for Active; 'I' for Inactive)
REMARK    1  A    between atoms: C5_5  and  N6_21 
REMARK    2  A    between atoms: C18_14  and  N17_19 
ROOT
HETATM    1  O1  MIQ B 502      -7.140   8.618 -11.260  1.00142.91    -0.171 OA
HETATM    2  C2  MIQ B 502      -8.380   8.342 -11.842  1.00141.17     0.195 A 
HETATM    3  C3  MIQ B 502      -9.419   7.289 -11.343  1.00141.71     0.035 A 
HETATM    4  C4  MIQ B 502      -9.439   6.335 -10.208  1.00142.86     0.046 A 
HETATM    5  C5  MIQ B 502     -10.555   5.484 -10.007  1.00139.53     0.031 A 
HETATM    6  C12 MIQ B 502     -11.687   5.549 -10.920  1.00139.38     0.030 A 
HETATM    7  C13 MIQ B 502     -11.669   6.463 -12.008  1.00141.18     0.019 A 
HETATM    8  C14 MIQ B 502     -10.496   7.356 -12.213  1.00138.77     0.033 A 
HETATM    9  C15 MIQ B 502     -10.122   8.458 -13.257  1.00142.10     0.195 A 
HETATM   10  N17 MIQ B 502      -8.926   8.902 -12.908  1.00139.42    -0.288 N 
HETATM   11  O16 MIQ B 502     -10.897   8.881 -14.339  1.00148.93    -0.171 OA
ENDROOT
BRANCH  10  12
HETATM   12  C18 MIQ B 502      -8.249   9.934 -13.671  1.00139.82     0.187 C 
HETATM   13  C19 MIQ B 502      -6.843   9.420 -14.007  1.00140.06     0.247 C 
HETATM   14  O25 MIQ B 502      -6.722   8.356 -14.501  1.00143.95    -0.271 OA
HETATM   15  N20 MIQ B 502      -5.658  10.209 -13.740  1.00140.02    -0.296 N 
HETATM   16  H13 MIQ B 502      -4.746   9.859 -13.958  1.00142.77     0.171 HD
HETATM   17  C21 MIQ B 502      -5.831  11.501 -13.127  1.00142.22     0.224 C 
HETATM   18  C22 MIQ B 502      -6.978  11.640 -12.144  1.00139.52     0.106 C 
HETATM   19  O24 MIQ B 502      -5.117  12.407 -13.383  1.00146.13    -0.273 OA
HETATM   20  C23 MIQ B 502      -8.238  11.250 -12.894  1.00139.15     0.045 C 
ENDBRANCH  10  12
BRANCH   5  21
HETATM   21  N6  MIQ B 502     -10.555   4.545  -8.900  1.00140.95    -0.377 N 
HETATM   22  C7  MIQ B 502     -11.792   3.855  -8.575  1.00142.12     0.149 C 
HETATM   23  C8  MIQ B 502     -11.846   3.447  -7.108  1.00144.10     0.187 C 
HETATM   24  O9  MIQ B 502     -10.678   2.814  -6.677  1.00148.65    -0.388 OA
HETATM   25  C10 MIQ B 502      -9.539   2.804  -7.486  1.00147.44     0.187 C 
HETATM   26  C11 MIQ B 502      -9.303   3.978  -8.430  1.00144.08     0.149 C 
ENDBRANCH   5  21
TORSDOF 2
ENDMDL
MODEL 2
REMARK VINA RESULT:      -6.5      2.313      8.074
REMARK  2 active torsions:
REMARK  status: ('A' for Active; 'I' for Inactive)
REMARK    1  A    between atoms: C5_5  and  N6_21 
REMARK    2  A    between atoms: C18_14  and  N17_19 
ROOT
HETATM    1  O1  MIQ B 502     -10.110   5.845  -8.551  1.00142.91    -0.171 OA
HETATM    2  C2  MIQ B 502      -9.798   5.427  -9.847  1.00141.17     0.195 A 
HETATM    3  C3  MIQ B 502      -9.014   6.250 -10.918  1.00141.71     0.035 A 
HETATM    4  C4  MIQ B 502      -8.402   7.600 -10.919  1.00142.86     0.046 A 
HETATM    5  C5  MIQ B 502      -7.737   8.085 -12.073  1.00139.53     0.031 A 
HETATM    6  C12 MIQ B 502      -7.656   7.251 -13.264  1.00139.38     0.030 A 
HETATM    7  C13 MIQ B 502      -8.241   5.956 -13.263  1.00141.18     0.019 A 
HETATM    8  C14 MIQ B 502      -8.936   5.451 -12.048  1.00138.77     0.033 A 
HETATM    9  C15 MIQ B 502      -9.675   4.125 -11.675  1.00142.10     0.195 A 
HETATM   10  N17 MIQ B 502     -10.087   4.274 -10.427  1.00139.42    -0.288 N 
HETATM   11  O16 MIQ B 502      -9.861   3.012 -12.498  1.00148.93    -0.171 OA
ENDROOT
BRANCH  10  12
HETATM   12  C18 MIQ B 502     -10.835   3.234  -9.746  1.00139.82     0.187 C 
HETATM   13  C19 MIQ B 502     -12.297   3.688  -9.661  1.00140.06     0.247 C 
HETATM   14  O25 MIQ B 502     -12.844   4.054 -10.640  1.00143.95    -0.271 OA
HETATM   15  N20 MIQ B 502     -13.030   3.673  -8.412  1.00140.02    -0.296 N 
HETATM   16  H13 MIQ B 502     -13.982   3.978  -8.368  1.00142.77     0.171 HD
HETATM   17  C21 MIQ B 502     -12.337   3.231  -7.229  1.00142.22     0.224 C 
HETATM   18  C22 MIQ B 502     -10.857   3.550  -7.147  1.00139.52     0.106 C 
HETATM   19  O24 MIQ B 502     -12.896   2.645  -6.368  1.00146.13    -0.273 OA
HETATM   20  C23 MIQ B 502     -10.216   2.941  -8.381  1.00139.15     0.045 C 
ENDBRANCH  10  12
BRANCH   5  21
HETATM   21  N6  MIQ B 502      -7.156   9.415 -12.065  1.00140.95    -0.377 N 
HETATM   22  C7  MIQ B 502      -6.231   9.762 -11.000  1.00142.12     0.149 C 
HETATM   23  C8  MIQ B 502      -6.212  11.261 -10.729  1.00144.10     0.187 C 
HETATM   24  O9  MIQ B 502      -6.094  12.022 -11.893  1.00148.65    -0.388 OA
HETATM   25  C10 MIQ B 502      -6.222  11.421 -13.148  1.00147.44     0.187 C 
HETATM   26  C11 MIQ B 502      -7.133  10.204 -13.284  1.00144.08     0.149 C 
ENDBRANCH   5  21
TORSDOF 2
ENDMDL
MODEL 3
REMARK VINA RESULT:      -6.4      1.844      2.505
REMARK  2 active torsions:
REMARK  status: ('A' for Active; 'I' for Inactive)
REMARK    1  A    between atoms: C5_5  and  N6_21 
REMARK    2  A    between atoms: C18_14  and  N17_19 
ROOT
HETATM    1  O1  MIQ B 502      -6.616   9.815 -10.184  1.00142.91    -0.171 OA
HETATM    2  C2  MIQ B 502      -7.288   9.517 -11.371  1.00141.17     0.195 A 
HETATM    3  C3  MIQ B 502      -8.182   8.264 -11.635  1.00141.71     0.035 A 
HETATM    4  C4  MIQ B 502      -8.577   7.101 -10.805  1.00142.86     0.046 A 
HETATM    5  C5  MIQ B 502      -9.425   6.097 -11.337  1.00139.53     0.031 A 
HETATM    6  C12 MIQ B 502      -9.911   6.210 -12.704  1.00139.38     0.030 A 
HETATM    7  C13 MIQ B 502      -9.533   7.326 -13.500  1.00141.18     0.019 A 
HETATM    8  C14 MIQ B 502      -8.645   8.378 -12.936  1.00138.77     0.033 A 
HETATM    9  C15 MIQ B 502      -8.034   9.710 -13.482  1.00142.10     0.195 A 
HETATM   10  N17 MIQ B 502      -7.315  10.215 -12.494  1.00139.42    -0.288 N 
HETATM   11  O16 MIQ B 502      -8.214  10.250 -14.757  1.00148.93    -0.171 OA
ENDROOT
BRANCH  10  12
HETATM   12  C18 MIQ B 502      -6.582  11.457 -12.648  1.00139.82     0.187 C 
HETATM   13  C19 MIQ B 502      -5.141  11.211 -12.185  1.00140.06     0.247 C 
HETATM   14  O25 MIQ B 502      -4.545  10.290 -12.620  1.00143.95    -0.271 OA
HETATM   15  N20 MIQ B 502      -4.487  12.081 -11.229  1.00140.02    -0.296 N 
HETATM   16  H13 MIQ B 502      -3.548  11.905 -10.929  1.00142.77     0.171 HD
HETATM   17  C21 MIQ B 502      -5.238  13.192 -10.704  1.00142.22     0.224 C 
HETATM   18  C22 MIQ B 502      -6.729  12.981 -10.524  1.00139.52     0.106 C 
HETATM   19  O24 MIQ B 502      -4.716  14.217 -10.432  1.00146.13    -0.273 OA
HETATM   20  C23 MIQ B 502      -7.275  12.583 -11.883  1.00139.15     0.045 C 
ENDBRANCH  10  12
BRANCH   5  21
HETATM   21  N6  MIQ B 502      -9.791   4.955 -10.518  1.00140.95    -0.377 N 
HETATM   22  C7  MIQ B 502     -10.039   5.167  -9.102  1.00142.12     0.149 C 
HETATM   23  C8  MIQ B 502      -9.772   3.910  -8.284  1.00144.10     0.187 C 
HETATM   24  O9  MIQ B 502     -10.366   2.771  -8.830  1.00148.65    -0.388 OA
HETATM   25  C10 MIQ B 502     -10.927   2.808 -10.109  1.00147.44     0.187 C 
HETATM   26  C11 MIQ B 502     -10.327   3.757 -11.141  1.00144.08     0.149 C 
ENDBRANCH   5  21
TORSDOF 2
ENDMDL
MODEL 4
REMARK VINA RESULT:      -6.4     22.972     24.076
REMARK  2 active torsions:
REMARK  status: ('A' for Active; 'I' for Inactive)
REMARK    1  A    between atoms: C5_5  and  N6_21 
REMARK    2  A    between atoms: C18_14  and  N17_19 
ROOT
HETATM    1  O1  MIQ B 502     -18.115  27.652  -5.616  1.00142.91    -0.171 OA
HETATM    2  C2  MIQ B 502     -19.417  28.143  -5.491  1.00141.17     0.195 A 
HETATM    3  C3  MIQ B 502     -20.446  27.756  -4.381  1.00141.71     0.035 A 
HETATM    4  C4  MIQ B 502     -20.392  26.842  -3.216  1.00142.86     0.046 A 
HETATM    5  C5  MIQ B 502     -21.518  26.698  -2.366  1.00139.53     0.031 A 
HETATM    6  C12 MIQ B 502     -22.732  27.453  -2.639  1.00139.38     0.030 A 
HETATM    7  C13 MIQ B 502     -22.783  28.331  -3.756  1.00141.18     0.019 A 
HETATM    8  C14 MIQ B 502     -21.598  28.480  -4.644  1.00138.77     0.033 A 
HETATM    9  C15 MIQ B 502     -21.282  29.321  -5.923  1.00142.10     0.195 A 
HETATM   10  N17 MIQ B 502     -20.038  29.021  -6.260  1.00139.42    -0.288 N 
HETATM   11  O16 MIQ B 502     -22.142  30.206  -6.575  1.00148.93    -0.171 OA
ENDROOT
BRANCH  10  12
HETATM   12  C18 MIQ B 502     -19.406  29.610  -7.425  1.00139.82     0.187 C 
HETATM   13  C19 MIQ B 502     -18.817  28.470  -8.265  1.00140.06     0.247 C 
HETATM   14  O25 MIQ B 502     -19.502  27.554  -8.553  1.00143.95    -0.271 OA
HETATM   15  N20 MIQ B 502     -17.443  28.489  -8.722  1.00140.02    -0.296 N 
HETATM   16  H13 MIQ B 502     -17.069  27.735  -9.265  1.00142.77     0.171 HD
HETATM   17  C21 MIQ B 502     -16.623  29.613  -8.350  1.00142.22     0.224 C 
HETATM   18  C22 MIQ B 502     -16.900  30.239  -6.996  1.00139.52     0.106 C 
HETATM   19  O24 MIQ B 502     -15.781  30.029  -9.067  1.00146.13    -0.273 OA
HETATM   20  C23 MIQ B 502     -18.363  30.643  -6.999  1.00139.15     0.045 C 
ENDBRANCH  10  12
BRANCH   5  21
HETATM   21  N6  MIQ B 502     -21.456  25.788  -1.236  1.00140.95    -0.377 N 
HETATM   22  C7  MIQ B 502     -22.617  24.965  -0.943  1.00142.12     0.149 C 
HETATM   23  C8  MIQ B 502     -22.686  24.583   0.530  1.00144.10     0.187 C 
HETATM   24  O9  MIQ B 502     -21.472  24.100   1.023  1.00148.65    -0.388 OA
HETATM   25  C10 MIQ B 502     -20.306  24.207   0.262  1.00147.44     0.187 C 
HETATM   26  C11 MIQ B 502     -20.168  25.381  -0.702  1.00144.08     0.149 C 
ENDBRANCH   5  21
TORSDOF 2
ENDMDL
MODEL 5
REMARK VINA RESULT:      -6.1     20.475     22.715
REMARK  2 active torsions:
REMARK  status: ('A' for Active; 'I' for Inactive)
REMARK    1  A    between atoms: C5_5  and  N6_21 
REMARK    2  A    between atoms: C18_14  and  N17_19 
ROOT
HETATM    1  O1  MIQ B 502     -25.222   2.840   1.623  1.00142.91    -0.171 OA
HETATM    2  C2  MIQ B 502     -26.210   3.144   0.684  1.00141.17     0.195 A 
HETATM    3  C3  MIQ B 502     -27.009   4.483   0.586  1.00141.71     0.035 A 
HETATM    4  C4  MIQ B 502     -26.986   5.742   1.367  1.00142.86     0.046 A 
HETATM    5  C5  MIQ B 502     -27.853   6.812   1.027  1.00139.53     0.031 A 
HETATM    6  C12 MIQ B 502     -28.769   6.671  -0.096  1.00139.38     0.030 A 
HETATM    7  C13 MIQ B 502     -28.790   5.464  -0.845  1.00141.18     0.019 A 
HETATM    8  C14 MIQ B 502     -27.876   4.345  -0.485  1.00138.77     0.033 A 
HETATM    9  C15 MIQ B 502     -27.614   2.913  -1.056  1.00142.10     0.195 A 
HETATM   10  N17 MIQ B 502     -26.666   2.387  -0.299  1.00139.42    -0.288 N 
HETATM   11  O16 MIQ B 502     -28.256   2.316  -2.142  1.00148.93    -0.171 OA
ENDROOT
BRANCH  10  12
HETATM   12  C18 MIQ B 502     -26.173   1.041  -0.529  1.00139.82     0.187 C 
HETATM   13  C19 MIQ B 502     -26.290   0.268   0.791  1.00140.06     0.247 C 
HETATM   14  O25 MIQ B 502     -27.318   0.268   1.369  1.00143.95    -0.271 OA
HETATM   15  N20 MIQ B 502     -25.173  -0.468   1.346  1.00140.02    -0.296 N 
HETATM   16  H13 MIQ B 502     -25.260  -0.963   2.212  1.00142.77     0.171 HD
HETATM   17  C21 MIQ B 502     -23.925  -0.443   0.627  1.00142.22     0.224 C 
HETATM   18  C22 MIQ B 502     -23.595   0.834  -0.121  1.00139.52     0.106 C 
HETATM   19  O24 MIQ B 502     -23.198  -1.375   0.619  1.00146.13    -0.273 OA
HETATM   20  C23 MIQ B 502     -24.747   1.084  -1.077  1.00139.15     0.045 C 
ENDBRANCH  10  12
BRANCH   5  21
HETATM   21  N6  MIQ B 502     -27.831   8.034   1.810  1.00140.95    -0.377 N 
HETATM   22  C7  MIQ B 502     -26.638   8.346   2.578  1.00142.12     0.149 C 
HETATM   23  C8  MIQ B 502     -26.950   9.220   3.785  1.00144.10     0.187 C 
HETATM   24  O9  MIQ B 502     -27.759  10.313   3.470  1.00148.65    -0.388 OA
HETATM   25  C10 MIQ B 502     -28.372  10.402   2.217  1.00147.44     0.187 C 
HETATM   26  C11 MIQ B 502     -28.752   9.113   1.498  1.00144.08     0.149 C 
ENDBRANCH   5  21
TORSDOF 2
ENDMDL
MODEL 6
REMARK VINA RESULT:      -6.0     23.436     24.516
REMARK  2 active torsions:
REMARK  status: ('A' for Active; 'I' for Inactive)
REMARK    1  A    between atoms: C5_5  and  N6_21 
REMARK    2  A    between atoms: C18_14  and  N17_19 
ROOT
HETATM    1  O1  MIQ B 502     -22.003  26.999  -3.890  1.00142.91    -0.171 OA
HETATM    2  C2  MIQ B 502     -21.156  26.608  -2.851  1.00141.17     0.195 A 
HETATM    3  C3  MIQ B 502     -21.559  25.760  -1.602  1.00141.71     0.035 A 
HETATM    4  C4  MIQ B 502     -22.833  25.151  -1.151  1.00142.86     0.046 A 
HETATM    5  C5  MIQ B 502     -22.887  24.418   0.060  1.00139.53     0.031 A 
HETATM    6  C12 MIQ B 502     -21.685  24.261   0.865  1.00139.38     0.030 A 
HETATM    7  C13 MIQ B 502     -20.463  24.844   0.433  1.00141.18     0.019 A 
HETATM    8  C14 MIQ B 502     -20.411  25.611  -0.841  1.00138.77     0.033 A 
HETATM    9  C15 MIQ B 502     -19.288  26.370  -1.622  1.00142.10     0.195 A 
HETATM   10  N17 MIQ B 502     -19.866  26.859  -2.707  1.00139.42    -0.288 N 
HETATM   11  O16 MIQ B 502     -17.951  26.503  -1.244  1.00148.93    -0.171 OA
ENDROOT
BRANCH  10  12
HETATM   12  C18 MIQ B 502     -19.120  27.645  -3.672  1.00139.82     0.187 C 
HETATM   13  C19 MIQ B 502     -19.844  28.987  -3.841  1.00140.06     0.247 C 
HETATM   14  O25 MIQ B 502     -20.122  29.615  -2.882  1.00143.95    -0.271 OA
HETATM   15  N20 MIQ B 502     -20.190  29.510  -5.146  1.00140.02    -0.296 N 
HETATM   16  H13 MIQ B 502     -20.668  30.384  -5.242  1.00142.77     0.171 HD
HETATM   17  C21 MIQ B 502     -19.849  28.720  -6.301  1.00142.22     0.224 C 
HETATM   18  C22 MIQ B 502     -19.899  27.213  -6.135  1.00139.52     0.106 C 
HETATM   19  O24 MIQ B 502     -19.541  29.223  -7.325  1.00146.13    -0.273 OA
HETATM   20  C23 MIQ B 502     -18.970  26.875  -4.983  1.00139.15     0.045 C 
ENDBRANCH  10  12
BRANCH   5  21
HETATM   21  N6  MIQ B 502     -24.145  23.839   0.497  1.00140.95    -0.377 N 
HETATM   22  C7  MIQ B 502     -24.365  23.648   1.920  1.00142.12     0.149 C 
HETATM   23  C8  MIQ B 502     -25.343  22.513   2.197  1.00144.10     0.187 C 
HETATM   24  O9  MIQ B 502     -26.500  22.590   1.419  1.00148.65    -0.388 OA
HETATM   25  C10 MIQ B 502     -26.581  23.497   0.359  1.00147.44     0.187 C 
HETATM   26  C11 MIQ B 502     -25.301  23.868  -0.383  1.00144.08     0.149 C 
ENDBRANCH   5  21
TORSDOF 2
ENDMDL
MODEL 7
REMARK VINA RESULT:      -6.0      1.600      2.181
REMARK  2 active torsions:
REMARK  status: ('A' for Active; 'I' for Inactive)
REMARK    1  A    between atoms: C5_5  and  N6_21 
REMARK    2  A    between atoms: C18_14  and  N17_19 
ROOT
HETATM    1  O1  MIQ B 502      -7.132   8.760 -11.043  1.00142.91    -0.171 OA
HETATM    2  C2  MIQ B 502      -8.324   8.432 -11.694  1.00141.17     0.195 A 
HETATM    3  C3  MIQ B 502      -9.345   7.337 -11.251  1.00141.71     0.035 A 
HETATM    4  C4  MIQ B 502      -9.390   6.384 -10.117  1.00142.86     0.046 A 
HETATM    5  C5  MIQ B 502     -10.479   5.487  -9.976  1.00139.53     0.031 A 
HETATM    6  C12 MIQ B 502     -11.559   5.503 -10.953  1.00139.38     0.030 A 
HETATM    7  C13 MIQ B 502     -11.517   6.417 -12.040  1.00141.18     0.019 A 
HETATM    8  C14 MIQ B 502     -10.372   7.358 -12.181  1.00138.77     0.033 A 
HETATM    9  C15 MIQ B 502      -9.987   8.474 -13.206  1.00142.10     0.195 A 
HETATM   10  N17 MIQ B 502      -8.832   8.968 -12.790  1.00139.42    -0.288 N 
HETATM   11  O16 MIQ B 502     -10.716   8.864 -14.331  1.00148.93    -0.171 OA
ENDROOT
BRANCH  10  12
HETATM   12  C18 MIQ B 502      -8.156  10.027 -13.517  1.00139.82     0.187 C 
HETATM   13  C19 MIQ B 502      -9.157  11.172 -13.713  1.00140.06     0.247 C 
HETATM   14  O25 MIQ B 502      -9.748  11.587 -12.781  1.00143.95    -0.271 OA
HETATM   15  N20 MIQ B 502      -9.393  11.765 -15.014  1.00140.02    -0.296 N 
HETATM   16  H13 MIQ B 502     -10.054  12.508 -15.130  1.00142.77     0.171 HD
HETATM   17  C21 MIQ B 502      -8.666  11.235 -16.139  1.00142.22     0.224 C 
HETATM   18  C22 MIQ B 502      -8.359   9.750 -16.113  1.00139.52     0.106 C 
HETATM   19  O24 MIQ B 502      -8.323  11.926 -17.034  1.00146.13    -0.273 OA
HETATM   20  C23 MIQ B 502      -7.589   9.492 -14.831  1.00139.15     0.045 C 
ENDBRANCH  10  12
BRANCH   5  21
HETATM   21  N6  MIQ B 502     -10.502   4.549  -8.869  1.00140.95    -0.377 N 
HETATM   22  C7  MIQ B 502     -11.759   3.900  -8.534  1.00142.12     0.149 C 
HETATM   23  C8  MIQ B 502     -11.816   3.495  -7.067  1.00144.10     0.187 C 
HETATM   24  O9  MIQ B 502     -10.667   2.825  -6.643  1.00148.65    -0.388 OA
HETATM   25  C10 MIQ B 502      -9.534   2.777  -7.459  1.00147.44     0.187 C 
HETATM   26  C11 MIQ B 502      -9.267   3.942  -8.406  1.00144.08     0.149 C 
ENDBRANCH   5  21
TORSDOF 2
ENDMDL
MODEL 8
REMARK VINA RESULT:      -5.9     13.777     17.403
REMARK  2 active torsions:
REMARK  status: ('A' for Active; 'I' for Inactive)
REMARK    1  A    between atoms: C5_5  and  N6_21 
REMARK    2  A    between atoms: C18_14  and  N17_19 
ROOT
HETATM    1  O1  MIQ B 502     -24.209   5.462 -10.706  1.00142.91    -0.171 OA
HETATM    2  C2  MIQ B 502     -24.994   5.732 -11.829  1.00141.17     0.195 A 
HETATM    3  C3  MIQ B 502     -24.527   6.470 -13.124  1.00141.71     0.035 A 
HETATM    4  C4  MIQ B 502     -23.237   7.063 -13.551  1.00142.86     0.046 A 
HETATM    5  C5  MIQ B 502     -23.118   7.681 -14.821  1.00139.53     0.031 A 
HETATM    6  C12 MIQ B 502     -24.269   7.732 -15.711  1.00139.38     0.030 A 
HETATM    7  C13 MIQ B 502     -25.505   7.163 -15.303  1.00141.18     0.019 A 
HETATM    8  C14 MIQ B 502     -25.624   6.514 -13.969  1.00138.77     0.033 A 
HETATM    9  C15 MIQ B 502     -26.778   5.798 -13.194  1.00142.10     0.195 A 
HETATM   10  N17 MIQ B 502     -26.263   5.426 -12.034  1.00139.42    -0.288 N 
HETATM   11  O16 MIQ B 502     -28.086   5.598 -13.639  1.00148.93    -0.171 OA
ENDROOT
BRANCH  10  12
HETATM   12  C18 MIQ B 502     -27.061   4.737 -11.036  1.00139.82     0.187 C 
HETATM   13  C19 MIQ B 502     -26.955   5.526  -9.726  1.00140.06     0.247 C 
HETATM   14  O25 MIQ B 502     -27.166   6.687  -9.734  1.00143.95    -0.271 OA
HETATM   15  N20 MIQ B 502     -26.609   4.885  -8.474  1.00140.02    -0.296 N 
HETATM   16  H13 MIQ B 502     -26.536   5.413  -7.626  1.00142.77     0.171 HD
HETATM   17  C21 MIQ B 502     -26.346   3.469  -8.492  1.00142.22     0.224 C 
HETATM   18  C22 MIQ B 502     -25.698   2.912  -9.745  1.00139.52     0.106 C 
HETATM   19  O24 MIQ B 502     -26.626   2.777  -7.576  1.00146.13    -0.273 OA
HETATM   20  C23 MIQ B 502     -26.607   3.285 -10.902  1.00139.15     0.045 C 
ENDBRANCH  10  12
BRANCH   5  21
HETATM   21  N6  MIQ B 502     -21.852   8.270 -15.220  1.00140.95    -0.377 N 
HETATM   22  C7  MIQ B 502     -21.238   9.254 -14.345  1.00142.12     0.149 C 
HETATM   23  C8  MIQ B 502     -20.343  10.218 -15.113  1.00144.10     0.187 C 
HETATM   24  O9  MIQ B 502     -19.470   9.569 -15.988  1.00148.65    -0.388 OA
HETATM   25  C10 MIQ B 502     -19.618   8.205 -16.253  1.00147.44     0.187 C 
HETATM   26  C11 MIQ B 502     -21.016   7.599 -16.200  1.00144.08     0.149 C 
ENDBRANCH   5  21
TORSDOF 2
ENDMDL
MODEL 9
REMARK VINA RESULT:      -5.9     22.934     24.139
REMARK  2 active torsions:
REMARK  status: ('A' for Active; 'I' for Inactive)
REMARK    1  A    between atoms: C5_5  and  N6_21 
REMARK    2  A    between atoms: C18_14  and  N17_19 
ROOT
HETATM    1  O1  MIQ B 502     -19.272  26.390  -7.283  1.00142.91    -0.171 OA
HETATM    2  C2  MIQ B 502     -19.216  27.562  -6.526  1.00141.17     0.195 A 
HETATM    3  C3  MIQ B 502     -19.554  27.695  -5.006  1.00141.71     0.035 A 
HETATM    4  C4  MIQ B 502     -19.995  26.729  -3.972  1.00142.86     0.046 A 
HETATM    5  C5  MIQ B 502     -20.226  27.160  -2.641  1.00139.53     0.031 A 
HETATM    6  C12 MIQ B 502     -20.028  28.558  -2.290  1.00139.38     0.030 A 
HETATM    7  C13 MIQ B 502     -19.604  29.484  -3.281  1.00141.18     0.019 A 
HETATM    8  C14 MIQ B 502     -19.361  29.026  -4.676  1.00138.77     0.033 A 
HETATM    9  C15 MIQ B 502     -18.900  29.723  -5.997  1.00142.10     0.195 A 
HETATM   10  N17 MIQ B 502     -18.870  28.775  -6.919  1.00139.42    -0.288 N 
HETATM   11  O16 MIQ B 502     -18.588  31.074  -6.165  1.00148.93    -0.171 OA
ENDROOT
BRANCH  10  12
HETATM   12  C18 MIQ B 502     -18.497  29.064  -8.291  1.00139.82     0.187 C 
HETATM   13  C19 MIQ B 502     -17.105  29.708  -8.272  1.00140.06     0.247 C 
HETATM   14  O25 MIQ B 502     -16.233  29.177  -7.681  1.00143.95    -0.271 OA
HETATM   15  N20 MIQ B 502     -16.828  30.950  -8.964  1.00140.02    -0.296 N 
HETATM   16  H13 MIQ B 502     -15.917  31.363  -8.938  1.00142.77     0.171 HD
HETATM   17  C21 MIQ B 502     -17.911  31.585  -9.670  1.00142.22     0.224 C 
HETATM   18  C22 MIQ B 502     -19.296  31.433  -9.071  1.00139.52     0.106 C 
HETATM   19  O24 MIQ B 502     -17.728  32.189 -10.669  1.00146.13    -0.273 OA
HETATM   20  C23 MIQ B 502     -19.556  29.942  -8.957  1.00139.15     0.045 C 
ENDBRANCH  10  12
BRANCH   5  21
HETATM   21  N6  MIQ B 502     -20.672  26.206  -1.642  1.00140.95    -0.377 N 
HETATM   22  C7  MIQ B 502     -22.055  25.765  -1.671  1.00142.12     0.149 C 
HETATM   23  C8  MIQ B 502     -22.543  25.331  -0.295  1.00144.10     0.187 C 
HETATM   24  O9  MIQ B 502     -21.655  24.467   0.349  1.00148.65    -0.388 OA
HETATM   25  C10 MIQ B 502     -20.374  24.256  -0.167  1.00147.44     0.187 C 
HETATM   26  C11 MIQ B 502     -19.701  25.388  -0.935  1.00144.08     0.149 C 
ENDBRANCH   5  21
TORSDOF 2
ENDMDL
