MODEL 1
REMARK VINA RESULT:      -5.9      0.000      0.000
REMARK  2 active torsions:
REMARK  status: ('A' for Active; 'I' for Inactive)
REMARK    1  A    between atoms: C5_5  and  N6_21 
REMARK    2  A    between atoms: C18_14  and  N17_19 
ROOT
HETATM    1  O1  MIQ B 502     -34.972  10.298   4.089  1.00142.91    -0.171 OA
HETATM    2  C2  MIQ B 502     -35.707   9.111   4.132  1.00141.17     0.195 A 
HETATM    3  C3  MIQ B 502     -37.214   8.946   3.757  1.00141.71     0.035 A 
HETATM    4  C4  MIQ B 502     -38.255   9.887   3.280  1.00142.86     0.046 A 
HETATM    5  C5  MIQ B 502     -39.570   9.428   3.017  1.00139.53     0.031 A 
HETATM    6  C12 MIQ B 502     -39.899   8.024   3.215  1.00139.38     0.030 A 
HETATM    7  C13 MIQ B 502     -38.901   7.120   3.670  1.00141.18     0.019 A 
HETATM    8  C14 MIQ B 502     -37.521   7.608   3.943  1.00138.77     0.033 A 
HETATM    9  C15 MIQ B 502     -36.196   6.939   4.436  1.00142.10     0.195 A 
HETATM   10  N17 MIQ B 502     -35.294   7.905   4.483  1.00139.42    -0.288 N 
HETATM   11  O16 MIQ B 502     -36.010   5.594   4.762  1.00148.93    -0.171 OA
ENDROOT
BRANCH  10  12
HETATM   12  C18 MIQ B 502     -33.934   7.651   4.918  1.00139.82     0.187 C 
HETATM   13  C19 MIQ B 502     -33.622   8.617   6.067  1.00140.06     0.247 C 
HETATM   14  O25 MIQ B 502     -34.369   8.689   6.978  1.00143.95    -0.271 OA
HETATM   15  N20 MIQ B 502     -32.431   9.441   6.071  1.00140.02    -0.296 N 
HETATM   16  H13 MIQ B 502     -32.242  10.072   6.825  1.00142.77     0.171 HD
HETATM   17  C21 MIQ B 502     -31.540   9.343   4.944  1.00142.22     0.224 C 
HETATM   18  C22 MIQ B 502     -32.175   9.071   3.594  1.00139.52     0.106 C 
HETATM   19  O24 MIQ B 502     -30.371   9.465   5.068  1.00146.13    -0.273 OA
HETATM   20  C23 MIQ B 502     -32.966   7.784   3.742  1.00139.15     0.045 C 
ENDBRANCH  10  12
BRANCH   5  21
HETATM   21  N6  MIQ B 502     -40.584  10.364   2.565  1.00140.95    -0.377 N 
HETATM   22  C7  MIQ B 502     -41.765  10.559   3.387  1.00142.12     0.149 C 
HETATM   23  C8  MIQ B 502     -42.965  11.006   2.562  1.00144.10     0.187 C 
HETATM   24  O9  MIQ B 502     -42.665  12.054   1.690  1.00148.65    -0.388 OA
HETATM   25  C10 MIQ B 502     -41.340  12.441   1.478  1.00147.44     0.187 C 
HETATM   26  C11 MIQ B 502     -40.245  11.386   1.590  1.00144.08     0.149 C 
ENDBRANCH   5  21
TORSDOF 2
ENDMDL
MODEL 2
REMARK VINA RESULT:      -5.9      1.214      2.335
REMARK  2 active torsions:
REMARK  status: ('A' for Active; 'I' for Inactive)
REMARK    1  A    between atoms: C5_5  and  N6_21 
REMARK    2  A    between atoms: C18_14  and  N17_19 
ROOT
HETATM    1  O1  MIQ B 502     -36.800   6.582   4.262  1.00142.91    -0.171 OA
HETATM    2  C2  MIQ B 502     -36.636   7.958   4.083  1.00141.17     0.195 A 
HETATM    3  C3  MIQ B 502     -37.750   8.975   3.678  1.00141.71     0.035 A 
HETATM    4  C4  MIQ B 502     -39.196   8.838   3.384  1.00142.86     0.046 A 
HETATM    5  C5  MIQ B 502     -39.967   9.976   3.036  1.00139.53     0.031 A 
HETATM    6  C12 MIQ B 502     -39.334  11.285   2.969  1.00139.38     0.030 A 
HETATM    7  C13 MIQ B 502     -37.947  11.417   3.253  1.00141.18     0.019 A 
HETATM    8  C14 MIQ B 502     -37.143  10.219   3.619  1.00138.77     0.033 A 
HETATM    9  C15 MIQ B 502     -35.645   9.973   3.990  1.00142.10     0.195 A 
HETATM   10  N17 MIQ B 502     -35.533   8.675   4.219  1.00139.42    -0.288 N 
HETATM   11  O16 MIQ B 502     -34.633  10.932   4.061  1.00148.93    -0.171 OA
ENDROOT
BRANCH  10  12
HETATM   12  C18 MIQ B 502     -34.262   8.075   4.579  1.00139.82     0.187 C 
HETATM   13  C19 MIQ B 502     -33.730   8.813   5.814  1.00140.06     0.247 C 
HETATM   14  O25 MIQ B 502     -34.433   8.950   6.751  1.00143.95    -0.271 OA
HETATM   15  N20 MIQ B 502     -32.383   9.344   5.865  1.00140.02    -0.296 N 
HETATM   16  H13 MIQ B 502     -32.049   9.829   6.674  1.00142.77     0.171 HD
HETATM   17  C21 MIQ B 502     -31.547   9.174   4.704  1.00142.22     0.224 C 
HETATM   18  C22 MIQ B 502     -32.239   9.202   3.356  1.00139.52     0.106 C 
HETATM   19  O24 MIQ B 502     -30.380   9.015   4.802  1.00146.13    -0.273 OA
HETATM   20  C23 MIQ B 502     -33.300   8.117   3.393  1.00139.15     0.045 C 
ENDBRANCH  10  12
BRANCH   5  21
HETATM   21  N6  MIQ B 502     -41.379   9.826   2.736  1.00140.95    -0.377 N 
HETATM   22  C7  MIQ B 502     -42.130   8.792   3.428  1.00142.12     0.149 C 
HETATM   23  C8  MIQ B 502     -43.328   8.318   2.614  1.00144.10     0.187 C 
HETATM   24  O9  MIQ B 502     -44.091   9.371   2.106  1.00148.65    -0.388 OA
HETATM   25  C10 MIQ B 502     -43.618  10.685   2.174  1.00147.44     0.187 C 
HETATM   26  C11 MIQ B 502     -42.112  10.922   2.126  1.00144.08     0.149 C 
ENDBRANCH   5  21
TORSDOF 2
ENDMDL
MODEL 3
REMARK VINA RESULT:      -5.9      1.769      2.501
REMARK  2 active torsions:
REMARK  status: ('A' for Active; 'I' for Inactive)
REMARK    1  A    between atoms: C5_5  and  N6_21 
REMARK    2  A    between atoms: C18_14  and  N17_19 
ROOT
HETATM    1  O1  MIQ B 502     -36.908  11.956   3.325  1.00142.91    -0.171 OA
HETATM    2  C2  MIQ B 502     -36.903  10.576   3.541  1.00141.17     0.195 A 
HETATM    3  C3  MIQ B 502     -38.144   9.630   3.488  1.00141.71     0.035 A 
HETATM    4  C4  MIQ B 502     -39.584   9.853   3.216  1.00142.86     0.046 A 
HETATM    5  C5  MIQ B 502     -40.494   8.765   3.238  1.00139.53     0.031 A 
HETATM    6  C12 MIQ B 502     -40.010   7.423   3.528  1.00139.38     0.030 A 
HETATM    7  C13 MIQ B 502     -38.629   7.210   3.788  1.00141.18     0.019 A 
HETATM    8  C14 MIQ B 502     -37.678   8.354   3.761  1.00138.77     0.033 A 
HETATM    9  C15 MIQ B 502     -36.139   8.510   3.985  1.00142.10     0.195 A 
HETATM   10  N17 MIQ B 502     -35.874   9.796   3.825  1.00139.42    -0.288 N 
HETATM   11  O16 MIQ B 502     -35.232   7.494   4.294  1.00148.93    -0.171 OA
ENDROOT
BRANCH  10  12
HETATM   12  C18 MIQ B 502     -34.529  10.317   3.977  1.00139.82     0.187 C 
HETATM   13  C19 MIQ B 502     -33.603   9.491   3.075  1.00140.06     0.247 C 
HETATM   14  O25 MIQ B 502     -33.891   9.337   1.941  1.00143.95    -0.271 OA
HETATM   15  N20 MIQ B 502     -32.380   8.898   3.575  1.00140.02    -0.296 N 
HETATM   16  H13 MIQ B 502     -31.787   8.356   2.977  1.00142.77     0.171 HD
HETATM   17  C21 MIQ B 502     -32.055   9.091   4.965  1.00142.22     0.224 C 
HETATM   18  C22 MIQ B 502     -33.221   9.167   5.932  1.00139.52     0.106 C 
HETATM   19  O24 MIQ B 502     -30.936   9.191   5.330  1.00146.13    -0.273 OA
HETATM   20  C23 MIQ B 502     -34.112  10.295   5.446  1.00139.15     0.045 C 
ENDBRANCH  10  12
BRANCH   5  21
HETATM   21  N6  MIQ B 502     -41.904   9.000   2.984  1.00140.95    -0.377 N 
HETATM   22  C7  MIQ B 502     -42.362  10.369   2.819  1.00142.12     0.149 C 
HETATM   23  C8  MIQ B 502     -43.827  10.529   3.202  1.00144.10     0.187 C 
HETATM   24  O9  MIQ B 502     -44.647   9.553   2.633  1.00148.65    -0.388 OA
HETATM   25  C10 MIQ B 502     -44.088   8.446   1.989  1.00147.44     0.187 C 
HETATM   26  C11 MIQ B 502     -42.738   7.927   2.472  1.00144.08     0.149 C 
ENDBRANCH   5  21
TORSDOF 2
ENDMDL
MODEL 4
REMARK VINA RESULT:      -5.6      2.159      3.441
REMARK  2 active torsions:
REMARK  status: ('A' for Active; 'I' for Inactive)
REMARK    1  A    between atoms: C5_5  and  N6_21 
REMARK    2  A    between atoms: C18_14  and  N17_19 
ROOT
HETATM    1  O1  MIQ B 502     -36.011   7.697   3.745  1.00142.91    -0.171 OA
HETATM    2  C2  MIQ B 502     -36.247   9.053   3.508  1.00141.17     0.195 A 
HETATM    3  C3  MIQ B 502     -37.644   9.746   3.430  1.00141.71     0.035 A 
HETATM    4  C4  MIQ B 502     -39.035   9.253   3.569  1.00142.86     0.046 A 
HETATM    5  C5  MIQ B 502     -40.128  10.148   3.445  1.00139.53     0.031 A 
HETATM    6  C12 MIQ B 502     -39.882  11.558   3.180  1.00139.38     0.030 A 
HETATM    7  C13 MIQ B 502     -38.548  12.031   3.048  1.00141.18     0.019 A 
HETATM    8  C14 MIQ B 502     -37.405  11.087   3.181  1.00138.77     0.033 A 
HETATM    9  C15 MIQ B 502     -35.849  11.228   3.106  1.00142.10     0.195 A 
HETATM   10  N17 MIQ B 502     -35.362  10.015   3.310  1.00139.42    -0.288 N 
HETATM   11  O16 MIQ B 502     -35.126  12.399   2.868  1.00148.93    -0.171 OA
ENDROOT
BRANCH  10  12
HETATM   12  C18 MIQ B 502     -33.934   9.760   3.294  1.00139.82     0.187 C 
HETATM   13  C19 MIQ B 502     -33.672   8.631   2.289  1.00140.06     0.247 C 
HETATM   14  O25 MIQ B 502     -34.116   8.716   1.199  1.00143.95    -0.271 OA
HETATM   15  N20 MIQ B 502     -32.888   7.465   2.637  1.00140.02    -0.296 N 
HETATM   16  H13 MIQ B 502     -32.729   6.732   1.974  1.00142.77     0.171 HD
HETATM   17  C21 MIQ B 502     -32.364   7.379   3.977  1.00142.22     0.224 C 
HETATM   18  C22 MIQ B 502     -33.212   7.985   5.079  1.00139.52     0.106 C 
HETATM   19  O24 MIQ B 502     -31.324   6.867   4.202  1.00146.13    -0.273 OA
HETATM   20  C23 MIQ B 502     -33.436   9.438   4.702  1.00139.15     0.045 C 
ENDBRANCH  10  12
BRANCH   5  21
HETATM   21  N6  MIQ B 502     -41.486   9.649   3.568  1.00140.95    -0.377 N 
HETATM   22  C7  MIQ B 502     -42.527  10.566   3.999  1.00142.12     0.149 C 
HETATM   23  C8  MIQ B 502     -43.676   9.841   4.687  1.00144.10     0.187 C 
HETATM   24  O9  MIQ B 502     -44.120   8.726   3.973  1.00148.65    -0.388 OA
HETATM   25  C10 MIQ B 502     -43.393   8.250   2.879  1.00147.44     0.187 C 
HETATM   26  C11 MIQ B 502     -41.879   8.435   2.874  1.00144.08     0.149 C 
ENDBRANCH   5  21
TORSDOF 2
ENDMDL
MODEL 5
REMARK VINA RESULT:      -5.6      1.982      8.439
REMARK  2 active torsions:
REMARK  status: ('A' for Active; 'I' for Inactive)
REMARK    1  A    between atoms: C5_5  and  N6_21 
REMARK    2  A    between atoms: C18_14  and  N17_19 
ROOT
HETATM    1  O1  MIQ B 502     -39.344   6.886   3.522  1.00142.91    -0.171 OA
HETATM    2  C2  MIQ B 502     -39.150   8.267   3.431  1.00141.17     0.195 A 
HETATM    3  C3  MIQ B 502     -37.791   9.020   3.591  1.00141.71     0.035 A 
HETATM    4  C4  MIQ B 502     -36.404   8.572   3.859  1.00142.86     0.046 A 
HETATM    5  C5  MIQ B 502     -35.351   9.517   3.950  1.00139.53     0.031 A 
HETATM    6  C12 MIQ B 502     -35.635  10.935   3.778  1.00139.38     0.030 A 
HETATM    7  C13 MIQ B 502     -36.965  11.364   3.520  1.00141.18     0.019 A 
HETATM    8  C14 MIQ B 502     -38.066  10.367   3.423  1.00138.77     0.033 A 
HETATM    9  C15 MIQ B 502     -39.605  10.451   3.157  1.00142.10     0.195 A 
HETATM   10  N17 MIQ B 502     -40.050   9.206   3.192  1.00139.42    -0.288 N 
HETATM   11  O16 MIQ B 502     -40.352  11.608   2.931  1.00148.93    -0.171 OA
ENDROOT
BRANCH  10  12
HETATM   12  C18 MIQ B 502     -41.454   8.898   2.999  1.00139.82     0.187 C 
HETATM   13  C19 MIQ B 502     -41.923   9.626   1.734  1.00140.06     0.247 C 
HETATM   14  O25 MIQ B 502     -41.305   9.505   0.736  1.00143.95    -0.271 OA
HETATM   15  N20 MIQ B 502     -43.110  10.457   1.726  1.00140.02    -0.296 N 
HETATM   16  H13 MIQ B 502     -43.402  10.933   0.895  1.00142.77     0.171 HD
HETATM   17  C21 MIQ B 502     -43.842  10.598   2.958  1.00142.22     0.224 C 
HETATM   18  C22 MIQ B 502     -43.031  10.582   4.239  1.00139.52     0.106 C 
HETATM   19  O24 MIQ B 502     -45.018  10.716   2.968  1.00146.13    -0.273 OA
HETATM   20  C23 MIQ B 502     -42.257   9.276   4.243  1.00139.15     0.045 C 
ENDBRANCH  10  12
BRANCH   5  21
HETATM   21  N6  MIQ B 502     -34.000   9.066   4.229  1.00140.95    -0.377 N 
HETATM   22  C7  MIQ B 502     -33.433   9.335   5.539  1.00142.12     0.149 C 
HETATM   23  C8  MIQ B 502     -31.913   9.416   5.496  1.00144.10     0.187 C 
HETATM   24  O9  MIQ B 502     -31.332   8.353   4.802  1.00148.65    -0.388 OA
HETATM   25  C10 MIQ B 502     -32.124   7.479   4.053  1.00147.44     0.187 C 
HETATM   26  C11 MIQ B 502     -33.405   8.015   3.422  1.00144.08     0.149 C 
ENDBRANCH   5  21
TORSDOF 2
ENDMDL
MODEL 6
REMARK VINA RESULT:      -5.5      7.880      9.905
REMARK  2 active torsions:
REMARK  status: ('A' for Active; 'I' for Inactive)
REMARK    1  A    between atoms: C5_5  and  N6_21 
REMARK    2  A    between atoms: C18_14  and  N17_19 
ROOT
HETATM    1  O1  MIQ B 502     -33.828   4.728  13.703  1.00142.91    -0.171 OA
HETATM    2  C2  MIQ B 502     -34.209   5.449  12.569  1.00141.17     0.195 A 
HETATM    3  C3  MIQ B 502     -35.594   5.374  11.852  1.00141.71     0.035 A 
HETATM    4  C4  MIQ B 502     -36.834   4.603  12.107  1.00142.86     0.046 A 
HETATM    5  C5  MIQ B 502     -37.960   4.754  11.258  1.00139.53     0.031 A 
HETATM    6  C12 MIQ B 502     -37.896   5.672  10.131  1.00139.38     0.030 A 
HETATM    7  C13 MIQ B 502     -36.708   6.413   9.886  1.00141.18     0.019 A 
HETATM    8  C14 MIQ B 502     -35.531   6.252  10.782  1.00138.77     0.033 A 
HETATM    9  C15 MIQ B 502     -34.098   6.875  10.836  1.00142.10     0.195 A 
HETATM   10  N17 MIQ B 502     -33.500   6.327  11.881  1.00139.42    -0.288 N 
HETATM   11  O16 MIQ B 502     -33.562   7.816   9.955  1.00148.93    -0.171 OA
ENDROOT
BRANCH  10  12
HETATM   12  C18 MIQ B 502     -32.133   6.662  12.234  1.00139.82     0.187 C 
HETATM   13  C19 MIQ B 502     -31.349   5.351  12.363  1.00140.06     0.247 C 
HETATM   14  O25 MIQ B 502     -31.397   4.562  11.488  1.00143.95    -0.271 OA
HETATM   15  N20 MIQ B 502     -30.544   5.055  13.531  1.00140.02    -0.296 N 
HETATM   16  H13 MIQ B 502     -30.042   4.192  13.606  1.00142.77     0.171 HD
HETATM   17  C21 MIQ B 502     -30.509   6.029  14.591  1.00142.22     0.224 C 
HETATM   18  C22 MIQ B 502     -31.777   6.829  14.823  1.00139.52     0.106 C 
HETATM   19  O24 MIQ B 502     -29.538   6.198  15.243  1.00146.13    -0.273 OA
HETATM   20  C23 MIQ B 502     -32.104   7.509  13.505  1.00139.15     0.045 C 
ENDBRANCH  10  12
BRANCH   5  21
HETATM   21  N6  MIQ B 502     -39.162   3.981  11.512  1.00140.95    -0.377 N 
HETATM   22  C7  MIQ B 502     -39.170   3.055  12.631  1.00142.12     0.149 C 
HETATM   23  C8  MIQ B 502     -40.147   1.907  12.413  1.00144.10     0.187 C 
HETATM   24  O9  MIQ B 502     -41.404   2.337  11.986  1.00148.65    -0.388 OA
HETATM   25  C10 MIQ B 502     -41.603   3.664  11.594  1.00147.44     0.187 C 
HETATM   26  C11 MIQ B 502     -40.436   4.424  10.973  1.00144.08     0.149 C 
ENDBRANCH   5  21
TORSDOF 2
ENDMDL
MODEL 7
REMARK VINA RESULT:      -5.5      6.910      8.558
REMARK  2 active torsions:
REMARK  status: ('A' for Active; 'I' for Inactive)
REMARK    1  A    between atoms: C5_5  and  N6_21 
REMARK    2  A    between atoms: C18_14  and  N17_19 
ROOT
HETATM    1  O1  MIQ B 502     -34.581   7.838   9.786  1.00142.91    -0.171 OA
HETATM    2  C2  MIQ B 502     -34.949   6.862  10.715  1.00141.17     0.195 A 
HETATM    3  C3  MIQ B 502     -36.283   6.050  10.720  1.00141.71     0.035 A 
HETATM    4  C4  MIQ B 502     -37.474   6.042   9.838  1.00142.86     0.046 A 
HETATM    5  C5  MIQ B 502     -38.558   5.168  10.106  1.00139.53     0.031 A 
HETATM    6  C12 MIQ B 502     -38.499   4.274  11.254  1.00139.38     0.030 A 
HETATM    7  C13 MIQ B 502     -37.356   4.281  12.099  1.00141.18     0.019 A 
HETATM    8  C14 MIQ B 502     -36.221   5.199  11.811  1.00138.77     0.033 A 
HETATM    9  C15 MIQ B 502     -34.839   5.483  12.486  1.00142.10     0.195 A 
HETATM   10  N17 MIQ B 502     -34.262   6.423  11.756  1.00139.42    -0.288 N 
HETATM   11  O16 MIQ B 502     -34.325   4.868  13.630  1.00148.93    -0.171 OA
ENDROOT
BRANCH  10  12
HETATM   12  C18 MIQ B 502     -32.956   6.954  12.099  1.00139.82     0.187 C 
HETATM   13  C19 MIQ B 502     -31.989   5.771  12.227  1.00140.06     0.247 C 
HETATM   14  O25 MIQ B 502     -31.928   4.980  11.353  1.00143.95    -0.271 OA
HETATM   15  N20 MIQ B 502     -31.143   5.598  13.390  1.00140.02    -0.296 N 
HETATM   16  H13 MIQ B 502     -30.520   4.818  13.464  1.00142.77     0.171 HD
HETATM   17  C21 MIQ B 502     -31.244   6.571  14.448  1.00142.22     0.224 C 
HETATM   18  C22 MIQ B 502     -32.612   7.179  14.685  1.00139.52     0.106 C 
HETATM   19  O24 MIQ B 502     -30.304   6.881  15.093  1.00146.13    -0.273 OA
HETATM   20  C23 MIQ B 502     -33.043   7.800  13.369  1.00139.15     0.045 C 
ENDBRANCH  10  12
BRANCH   5  21
HETATM   21  N6  MIQ B 502     -39.725   5.180   9.243  1.00140.95    -0.377 N 
HETATM   22  C7  MIQ B 502     -39.797   4.217   8.158  1.00142.12     0.149 C 
HETATM   23  C8  MIQ B 502     -40.660   4.719   7.008  1.00144.10     0.187 C 
HETATM   24  O9  MIQ B 502     -41.887   5.232   7.433  1.00148.65    -0.388 OA
HETATM   25  C10 MIQ B 502     -42.131   5.448   8.791  1.00147.44     0.187 C 
HETATM   26  C11 MIQ B 502     -40.956   5.803   9.696  1.00144.08     0.149 C 
ENDBRANCH   5  21
TORSDOF 2
ENDMDL
MODEL 8
REMARK VINA RESULT:      -5.5     11.641     14.448
REMARK  2 active torsions:
REMARK  status: ('A' for Active; 'I' for Inactive)
REMARK    1  A    between atoms: C5_5  and  N6_21 
REMARK    2  A    between atoms: C18_14  and  N17_19 
ROOT
HETATM    1  O1  MIQ B 502     -33.702   9.312  14.868  1.00142.91    -0.171 OA
HETATM    2  C2  MIQ B 502     -33.593   8.620  16.077  1.00141.17     0.195 A 
HETATM    3  C3  MIQ B 502     -33.887   9.197  17.499  1.00141.71     0.035 A 
HETATM    4  C4  MIQ B 502     -34.333  10.523  17.989  1.00142.86     0.046 A 
HETATM    5  C5  MIQ B 502     -34.518  10.749  19.376  1.00139.53     0.031 A 
HETATM    6  C12 MIQ B 502     -34.269   9.672  20.323  1.00139.38     0.030 A 
HETATM    7  C13 MIQ B 502     -33.843   8.400  19.854  1.00141.18     0.019 A 
HETATM    8  C14 MIQ B 502     -33.652   8.168  18.396  1.00138.77     0.033 A 
HETATM    9  C15 MIQ B 502     -33.211   6.945  17.527  1.00142.10     0.195 A 
HETATM   10  N17 MIQ B 502     -33.234   7.363  16.272  1.00139.42    -0.288 N 
HETATM   11  O16 MIQ B 502     -32.862   5.675  17.987  1.00148.93    -0.171 OA
ENDROOT
BRANCH  10  12
HETATM   12  C18 MIQ B 502     -32.863   6.488  15.175  1.00139.82     0.187 C 
HETATM   13  C19 MIQ B 502     -31.744   7.178  14.385  1.00140.06     0.247 C 
HETATM   14  O25 MIQ B 502     -30.800   7.587  14.961  1.00143.95    -0.271 OA
HETATM   15  N20 MIQ B 502     -31.812   7.336  12.946  1.00140.02    -0.296 N 
HETATM   16  H13 MIQ B 502     -31.078   7.794  12.443  1.00142.77     0.171 HD
HETATM   17  C21 MIQ B 502     -32.980   6.837  12.267  1.00142.22     0.224 C 
HETATM   18  C22 MIQ B 502     -34.292   6.914  13.023  1.00139.52     0.106 C 
HETATM   19  O24 MIQ B 502     -32.915   6.387  11.176  1.00146.13    -0.273 OA
HETATM   20  C23 MIQ B 502     -34.086   6.156  14.322  1.00139.15     0.045 C 
ENDBRANCH  10  12
BRANCH   5  21
HETATM   21  N6  MIQ B 502     -34.941  12.057  19.843  1.00140.95    -0.377 N 
HETATM   22  C7  MIQ B 502     -36.364  12.325  19.963  1.00142.12     0.149 C 
HETATM   23  C8  MIQ B 502     -36.677  13.809  19.821  1.00144.10     0.187 C 
HETATM   24  O9  MIQ B 502     -35.849  14.616  20.604  1.00148.65    -0.388 OA
HETATM   25  C10 MIQ B 502     -34.727  14.076  21.237  1.00147.44     0.187 C 
HETATM   26  C11 MIQ B 502     -34.015  12.898  20.580  1.00144.08     0.149 C 
ENDBRANCH   5  21
TORSDOF 2
ENDMDL
MODEL 9
REMARK VINA RESULT:      -5.5     12.991     15.777
REMARK  2 active torsions:
REMARK  status: ('A' for Active; 'I' for Inactive)
REMARK    1  A    between atoms: C5_5  and  N6_21 
REMARK    2  A    between atoms: C18_14  and  N17_19 
ROOT
HETATM    1  O1  MIQ B 502     -36.257   8.255  16.797  1.00142.91    -0.171 OA
HETATM    2  C2  MIQ B 502     -35.345   8.101  17.843  1.00141.17     0.195 A 
HETATM    3  C3  MIQ B 502     -34.820   9.232  18.784  1.00141.71     0.035 A 
HETATM    4  C4  MIQ B 502     -35.088  10.687  18.875  1.00142.86     0.046 A 
HETATM    5  C5  MIQ B 502     -34.444  11.474  19.863  1.00139.53     0.031 A 
HETATM    6  C12 MIQ B 502     -33.516  10.848  20.794  1.00139.38     0.030 A 
HETATM    7  C13 MIQ B 502     -33.260   9.453  20.707  1.00141.18     0.019 A 
HETATM    8  C14 MIQ B 502     -33.940   8.631  19.669  1.00138.77     0.033 A 
HETATM    9  C15 MIQ B 502     -33.919   7.118  19.276  1.00142.10     0.195 A 
HETATM   10  N17 MIQ B 502     -34.749   6.994  18.254  1.00139.42    -0.288 N 
HETATM   11  O16 MIQ B 502     -33.171   6.108  19.883  1.00148.93    -0.171 OA
ENDROOT
BRANCH  10  12
HETATM   12  C18 MIQ B 502     -34.971   5.713  17.609  1.00139.82     0.187 C 
HETATM   13  C19 MIQ B 502     -34.686   5.887  16.112  1.00140.06     0.247 C 
HETATM   14  O25 MIQ B 502     -33.670   6.380  15.773  1.00143.95    -0.271 OA
HETATM   15  N20 MIQ B 502     -35.629   5.457  15.100  1.00140.02    -0.296 N 
HETATM   16  H13 MIQ B 502     -35.434   5.582  14.127  1.00142.77     0.171 HD
HETATM   17  C21 MIQ B 502     -36.868   4.867  15.540  1.00142.22     0.224 C 
HETATM   18  C22 MIQ B 502     -37.453   5.397  16.835  1.00139.52     0.106 C 
HETATM   19  O24 MIQ B 502     -37.397   4.010  14.922  1.00146.13    -0.273 OA
HETATM   20  C23 MIQ B 502     -36.385   5.211  17.898  1.00139.15     0.045 C 
ENDBRANCH  10  12
BRANCH   5  21
HETATM   21  N6  MIQ B 502     -34.704  12.900  19.932  1.00140.95    -0.377 N 
HETATM   22  C7  MIQ B 502     -36.077  13.362  19.817  1.00142.12     0.149 C 
HETATM   23  C8  MIQ B 502     -36.155  14.781  19.268  1.00144.10     0.187 C 
HETATM   24  O9  MIQ B 502     -35.281  15.661  19.909  1.00148.65    -0.388 OA
HETATM   25  C10 MIQ B 502     -34.304  15.177  20.783  1.00147.44     0.187 C 
HETATM   26  C11 MIQ B 502     -33.725  13.789  20.532  1.00144.08     0.149 C 
ENDBRANCH   5  21
TORSDOF 2
ENDMDL
