MODEL 1
REMARK VINA RESULT:      -6.2      0.000      0.000
REMARK  2 active torsions:
REMARK  status: ('A' for Active; 'I' for Inactive)
REMARK    1  A    between atoms: C5_5  and  N6_21 
REMARK    2  A    between atoms: C18_14  and  N17_19 
ROOT
HETATM    1  O1  MIQ B 502     -26.802  16.015  26.491  1.00142.91    -0.171 OA
HETATM    2  C2  MIQ B 502     -27.201  14.693  26.704  1.00141.17     0.195 A 
HETATM    3  C3  MIQ B 502     -28.514  14.030  26.178  1.00141.71     0.035 A 
HETATM    4  C4  MIQ B 502     -29.649  14.523  25.363  1.00142.86     0.046 A 
HETATM    5  C5  MIQ B 502     -30.726  13.660  25.037  1.00139.53     0.031 A 
HETATM    6  C12 MIQ B 502     -30.714  12.282  25.506  1.00139.38     0.030 A 
HETATM    7  C13 MIQ B 502     -29.626  11.808  26.286  1.00141.18     0.019 A 
HETATM    8  C14 MIQ B 502     -28.497  12.718  26.624  1.00138.77     0.033 A 
HETATM    9  C15 MIQ B 502     -27.166  12.566  27.430  1.00142.10     0.195 A 
HETATM   10  N17 MIQ B 502     -26.569  13.746  27.375  1.00139.42    -0.288 N 
HETATM   11  O16 MIQ B 502     -26.707  11.418  28.077  1.00148.93    -0.171 OA
ENDROOT
BRANCH  10  12
HETATM   12  C18 MIQ B 502     -25.299  13.983  28.036  1.00139.82     0.187 C 
HETATM   13  C19 MIQ B 502     -25.450  15.240  28.901  1.00140.06     0.247 C 
HETATM   14  O25 MIQ B 502     -26.358  15.318  29.650  1.00143.95    -0.271 OA
HETATM   15  N20 MIQ B 502     -24.505  16.335  28.829  1.00140.02    -0.296 N 
HETATM   16  H13 MIQ B 502     -24.618  17.153  29.394  1.00142.77     0.171 HD
HETATM   17  C21 MIQ B 502     -23.411  16.222  27.898  1.00142.22     0.224 C 
HETATM   18  C22 MIQ B 502     -23.689  15.475  26.608  1.00139.52     0.106 C 
HETATM   19  O24 MIQ B 502     -22.349  16.684  28.134  1.00146.13    -0.273 OA
HETATM   20  C23 MIQ B 502     -24.176  14.094  27.005  1.00139.15     0.045 C 
ENDBRANCH  10  12
BRANCH   5  21
HETATM   21  N6  MIQ B 502     -31.838  14.161  24.251  1.00140.95    -0.377 N 
HETATM   22  C7  MIQ B 502     -32.688  15.190  24.825  1.00142.12     0.149 C 
HETATM   23  C8  MIQ B 502     -34.095  15.156  24.243  1.00144.10     0.187 C 
HETATM   24  O9  MIQ B 502     -34.105  15.085  22.849  1.00148.65    -0.388 OA
HETATM   25  C10 MIQ B 502     -32.924  14.835  22.145  1.00147.44     0.187 C 
HETATM   26  C11 MIQ B 502     -31.844  13.987  22.809  1.00144.08     0.149 C 
ENDBRANCH   5  21
TORSDOF 2
ENDMDL
MODEL 2
REMARK VINA RESULT:      -6.1     11.347     12.829
REMARK  2 active torsions:
REMARK  status: ('A' for Active; 'I' for Inactive)
REMARK    1  A    between atoms: C5_5  and  N6_21 
REMARK    2  A    between atoms: C18_14  and  N17_19 
ROOT
HETATM    1  O1  MIQ B 502     -32.593  10.548  34.649  1.00142.91    -0.171 OA
HETATM    2  C2  MIQ B 502     -33.600   9.583  34.573  1.00141.17     0.195 A 
HETATM    3  C3  MIQ B 502     -34.946   9.590  35.366  1.00141.71     0.035 A 
HETATM    4  C4  MIQ B 502     -35.542  10.521  36.353  1.00142.86     0.046 A 
HETATM    5  C5  MIQ B 502     -36.816  10.252  36.913  1.00139.53     0.031 A 
HETATM    6  C12 MIQ B 502     -37.543   9.055  36.514  1.00139.38     0.030 A 
HETATM    7  C13 MIQ B 502     -36.972   8.163  35.567  1.00141.18     0.019 A 
HETATM    8  C14 MIQ B 502     -35.635   8.451  34.981  1.00138.77     0.033 A 
HETATM    9  C15 MIQ B 502     -34.712   7.734  33.943  1.00142.10     0.195 A 
HETATM   10  N17 MIQ B 502     -33.632   8.490  33.830  1.00139.42    -0.288 N 
HETATM   11  O16 MIQ B 502     -34.977   6.537  33.275  1.00148.93    -0.171 OA
ENDROOT
BRANCH  10  12
HETATM   12  C18 MIQ B 502     -32.537   8.120  32.953  1.00139.82     0.187 C 
HETATM   13  C19 MIQ B 502     -31.246   8.142  33.780  1.00140.06     0.247 C 
HETATM   14  O25 MIQ B 502     -31.208   7.556  34.803  1.00143.95    -0.271 OA
HETATM   15  N20 MIQ B 502     -30.068   8.860  33.339  1.00140.02    -0.296 N 
HETATM   16  H13 MIQ B 502     -29.233   8.872  33.892  1.00142.77     0.171 HD
HETATM   17  C21 MIQ B 502     -30.142   9.577  32.092  1.00142.22     0.224 C 
HETATM   18  C22 MIQ B 502     -31.484  10.187  31.736  1.00139.52     0.106 C 
HETATM   19  O24 MIQ B 502     -29.204   9.679  31.381  1.00146.13    -0.273 OA
HETATM   20  C23 MIQ B 502     -32.490   9.050  31.741  1.00139.15     0.045 C 
ENDBRANCH  10  12
BRANCH   5  21
HETATM   21  N6  MIQ B 502     -37.381  11.165  37.890  1.00140.95    -0.377 N 
HETATM   22  C7  MIQ B 502     -38.207  10.620  38.954  1.00142.12     0.149 C 
HETATM   23  C8  MIQ B 502     -39.212  11.640  39.473  1.00144.10     0.187 C 
HETATM   24  O9  MIQ B 502     -38.635  12.882  39.743  1.00148.65    -0.388 OA
HETATM   25  C10 MIQ B 502     -37.328  13.159  39.334  1.00147.44     0.187 C 
HETATM   26  C11 MIQ B 502     -36.798  12.482  38.074  1.00144.08     0.149 C 
ENDBRANCH   5  21
TORSDOF 2
ENDMDL
MODEL 3
REMARK VINA RESULT:      -5.7      2.644      7.959
REMARK  2 active torsions:
REMARK  status: ('A' for Active; 'I' for Inactive)
REMARK    1  A    between atoms: C5_5  and  N6_21 
REMARK    2  A    between atoms: C18_14  and  N17_19 
ROOT
HETATM    1  O1  MIQ B 502     -31.086  13.199  25.284  1.00142.91    -0.171 OA
HETATM    2  C2  MIQ B 502     -30.113  14.189  25.434  1.00141.17     0.195 A 
HETATM    3  C3  MIQ B 502     -28.754  14.040  26.188  1.00141.71     0.035 A 
HETATM    4  C4  MIQ B 502     -28.109  12.920  26.913  1.00142.86     0.046 A 
HETATM    5  C5  MIQ B 502     -26.833  13.091  27.509  1.00139.53     0.031 A 
HETATM    6  C12 MIQ B 502     -26.155  14.375  27.406  1.00139.38     0.030 A 
HETATM    7  C13 MIQ B 502     -26.773  15.449  26.710  1.00141.18     0.019 A 
HETATM    8  C14 MIQ B 502     -28.110  15.262  26.085  1.00138.77     0.033 A 
HETATM    9  C15 MIQ B 502     -29.076  16.176  25.261  1.00142.10     0.195 A 
HETATM   10  N17 MIQ B 502     -30.132  15.431  24.979  1.00139.42    -0.288 N 
HETATM   11  O16 MIQ B 502     -28.863  17.508  24.902  1.00148.93    -0.171 OA
ENDROOT
BRANCH  10  12
HETATM   12  C18 MIQ B 502     -31.255  15.961  24.229  1.00139.82     0.187 C 
HETATM   13  C19 MIQ B 502     -32.528  15.695  25.042  1.00140.06     0.247 C 
HETATM   14  O25 MIQ B 502     -32.565  16.016  26.176  1.00143.95    -0.271 OA
HETATM   15  N20 MIQ B 502     -33.691  15.064  24.453  1.00140.02    -0.296 N 
HETATM   16  H13 MIQ B 502     -34.514  14.889  24.996  1.00142.77     0.171 HD
HETATM   17  C21 MIQ B 502     -33.618  14.671  23.070  1.00142.22     0.224 C 
HETATM   18  C22 MIQ B 502     -32.265  14.212  22.562  1.00139.52     0.106 C 
HETATM   19  O24 MIQ B 502     -34.566  14.710  22.365  1.00146.13    -0.273 OA
HETATM   20  C23 MIQ B 502     -31.296  15.350  22.830  1.00139.15     0.045 C 
ENDBRANCH  10  12
BRANCH   5  21
HETATM   21  N6  MIQ B 502     -26.220  11.990  28.229  1.00140.95    -0.377 N 
HETATM   22  C7  MIQ B 502     -26.761  10.654  28.048  1.00142.12     0.149 C 
HETATM   23  C8  MIQ B 502     -26.504   9.767  29.259  1.00144.10     0.187 C 
HETATM   24  O9  MIQ B 502     -25.180   9.820  29.700  1.00148.65    -0.388 OA
HETATM   25  C10 MIQ B 502     -24.302  10.780  29.190  1.00147.44     0.187 C 
HETATM   26  C11 MIQ B 502     -24.869  12.124  28.745  1.00144.08     0.149 C 
ENDBRANCH   5  21
TORSDOF 2
ENDMDL
MODEL 4
REMARK VINA RESULT:      -5.7      1.333      1.431
REMARK  2 active torsions:
REMARK  status: ('A' for Active; 'I' for Inactive)
REMARK    1  A    between atoms: C5_5  and  N6_21 
REMARK    2  A    between atoms: C18_14  and  N17_19 
ROOT
HETATM    1  O1  MIQ B 502     -26.342  15.264  27.143  1.00142.91    -0.171 OA
HETATM    2  C2  MIQ B 502     -27.044  14.056  27.167  1.00141.17     0.195 A 
HETATM    3  C3  MIQ B 502     -28.351  13.734  26.376  1.00141.71     0.035 A 
HETATM    4  C4  MIQ B 502     -29.191  14.512  25.435  1.00142.86     0.046 A 
HETATM    5  C5  MIQ B 502     -30.350  13.932  24.861  1.00139.53     0.031 A 
HETATM    6  C12 MIQ B 502     -30.715  12.563  25.197  1.00139.38     0.030 A 
HETATM    7  C13 MIQ B 502     -29.909  11.816  26.098  1.00141.18     0.019 A 
HETATM    8  C14 MIQ B 502     -28.693  12.430  26.696  1.00138.77     0.033 A 
HETATM    9  C15 MIQ B 502     -27.590  11.940  27.691  1.00142.10     0.195 A 
HETATM   10  N17 MIQ B 502     -26.757  12.956  27.842  1.00139.42    -0.288 N 
HETATM   11  O16 MIQ B 502     -27.509  10.685  28.297  1.00148.93    -0.171 OA
ENDROOT
BRANCH  10  12
HETATM   12  C18 MIQ B 502     -25.605  12.867  28.720  1.00139.82     0.187 C 
HETATM   13  C19 MIQ B 502     -25.666  14.049  29.694  1.00140.06     0.247 C 
HETATM   14  O25 MIQ B 502     -26.662  14.250  30.294  1.00143.95    -0.271 OA
HETATM   15  N20 MIQ B 502     -24.532  14.926  29.905  1.00140.02    -0.296 N 
HETATM   16  H13 MIQ B 502     -24.587  15.698  30.539  1.00142.77     0.171 HD
HETATM   17  C21 MIQ B 502     -23.331  14.666  29.153  1.00142.22     0.224 C 
HETATM   18  C22 MIQ B 502     -23.510  14.107  27.755  1.00139.52     0.106 C 
HETATM   19  O24 MIQ B 502     -22.261  14.875  29.608  1.00146.13    -0.273 OA
HETATM   20  C23 MIQ B 502     -24.315  12.829  27.902  1.00139.15     0.045 C 
ENDBRANCH  10  12
BRANCH   5  21
HETATM   21  N6  MIQ B 502     -31.172  14.711  23.953  1.00140.95    -0.377 N 
HETATM   22  C7  MIQ B 502     -30.641  15.960  23.433  1.00142.12     0.149 C 
HETATM   23  C8  MIQ B 502     -31.748  16.939  23.066  1.00144.10     0.187 C 
HETATM   24  O9  MIQ B 502     -32.758  16.355  22.299  1.00148.65    -0.388 OA
HETATM   25  C10 MIQ B 502     -32.804  14.970  22.126  1.00147.44     0.187 C 
HETATM   26  C11 MIQ B 502     -32.268  14.077  23.241  1.00144.08     0.149 C 
ENDBRANCH   5  21
TORSDOF 2
ENDMDL
MODEL 5
REMARK VINA RESULT:      -5.7      5.583      7.947
REMARK  2 active torsions:
REMARK  status: ('A' for Active; 'I' for Inactive)
REMARK    1  A    between atoms: C5_5  and  N6_21 
REMARK    2  A    between atoms: C18_14  and  N17_19 
ROOT
HETATM    1  O1  MIQ B 502     -35.290  14.635  23.511  1.00142.91    -0.171 OA
HETATM    2  C2  MIQ B 502     -34.257  15.223  24.245  1.00141.17     0.195 A 
HETATM    3  C3  MIQ B 502     -34.406  15.978  25.605  1.00141.71     0.035 A 
HETATM    4  C4  MIQ B 502     -35.564  16.286  26.478  1.00142.86     0.046 A 
HETATM    5  C5  MIQ B 502     -35.379  17.007  27.685  1.00139.53     0.031 A 
HETATM    6  C12 MIQ B 502     -34.045  17.445  28.068  1.00139.38     0.030 A 
HETATM    7  C13 MIQ B 502     -32.935  17.148  27.232  1.00141.18     0.019 A 
HETATM    8  C14 MIQ B 502     -33.134  16.389  25.967  1.00138.77     0.033 A 
HETATM    9  C15 MIQ B 502     -32.190  15.887  24.826  1.00142.10     0.195 A 
HETATM   10  N17 MIQ B 502     -32.968  15.262  23.958  1.00139.42    -0.288 N 
HETATM   11  O16 MIQ B 502     -30.808  16.067  24.745  1.00148.93    -0.171 OA
ENDROOT
BRANCH  10  12
HETATM   12  C18 MIQ B 502     -32.429  14.672  22.746  1.00139.82     0.187 C 
HETATM   13  C19 MIQ B 502     -31.209  13.829  23.139  1.00140.06     0.247 C 
HETATM   14  O25 MIQ B 502     -31.312  13.037  24.007  1.00143.95    -0.271 OA
HETATM   15  N20 MIQ B 502     -29.933  13.974  22.470  1.00140.02    -0.296 N 
HETATM   16  H13 MIQ B 502     -29.142  13.423  22.740  1.00142.77     0.171 HD
HETATM   17  C21 MIQ B 502     -29.829  14.956  21.421  1.00142.22     0.224 C 
HETATM   18  C22 MIQ B 502     -30.662  16.213  21.579  1.00139.52     0.106 C 
HETATM   19  O24 MIQ B 502     -29.133  14.785  20.481  1.00146.13    -0.273 OA
HETATM   20  C23 MIQ B 502     -32.104  15.760  21.724  1.00139.15     0.045 C 
ENDBRANCH  10  12
BRANCH   5  21
HETATM   21  N6  MIQ B 502     -36.524  17.315  28.522  1.00140.95    -0.377 N 
HETATM   22  C7  MIQ B 502     -37.856  17.102  27.984  1.00142.12     0.149 C 
HETATM   23  C8  MIQ B 502     -38.886  18.016  28.636  1.00144.10     0.187 C 
HETATM   24  O9  MIQ B 502     -38.800  18.023  30.030  1.00148.65    -0.388 OA
HETATM   25  C10 MIQ B 502     -37.715  17.423  30.675  1.00147.44     0.187 C 
HETATM   26  C11 MIQ B 502     -36.367  17.397  29.964  1.00144.08     0.149 C 
ENDBRANCH   5  21
TORSDOF 2
ENDMDL
MODEL 6
REMARK VINA RESULT:      -5.6      2.521      7.894
REMARK  2 active torsions:
REMARK  status: ('A' for Active; 'I' for Inactive)
REMARK    1  A    between atoms: C5_5  and  N6_21 
REMARK    2  A    between atoms: C18_14  and  N17_19 
ROOT
HETATM    1  O1  MIQ B 502     -28.011  16.275  25.707  1.00142.91    -0.171 OA
HETATM    2  C2  MIQ B 502     -28.575  15.001  25.817  1.00141.17     0.195 A 
HETATM    3  C3  MIQ B 502     -28.053  13.836  26.716  1.00141.71     0.035 A 
HETATM    4  C4  MIQ B 502     -26.913  13.705  27.655  1.00142.86     0.046 A 
HETATM    5  C5  MIQ B 502     -26.691  12.488  28.347  1.00139.53     0.031 A 
HETATM    6  C12 MIQ B 502     -27.588  11.362  28.134  1.00139.38     0.030 A 
HETATM    7  C13 MIQ B 502     -28.682  11.487  27.236  1.00141.18     0.019 A 
HETATM    8  C14 MIQ B 502     -28.912  12.768  26.514  1.00138.77     0.033 A 
HETATM    9  C15 MIQ B 502     -29.973  13.273  25.483  1.00142.10     0.195 A 
HETATM   10  N17 MIQ B 502     -29.644  14.524  25.204  1.00139.42    -0.288 N 
HETATM   11  O16 MIQ B 502     -31.046  12.547  24.963  1.00148.93    -0.171 OA
ENDROOT
BRANCH  10  12
HETATM   12  C18 MIQ B 502     -30.410  15.315  24.258  1.00139.82     0.187 C 
HETATM   13  C19 MIQ B 502     -31.882  15.257  24.683  1.00140.06     0.247 C 
HETATM   14  O25 MIQ B 502     -32.169  15.507  25.800  1.00143.95    -0.271 OA
HETATM   15  N20 MIQ B 502     -32.934  14.910  23.749  1.00140.02    -0.296 N 
HETATM   16  H13 MIQ B 502     -33.890  14.870  24.041  1.00142.77     0.171 HD
HETATM   17  C21 MIQ B 502     -32.557  14.599  22.394  1.00142.22     0.224 C 
HETATM   18  C22 MIQ B 502     -31.219  13.913  22.200  1.00139.52     0.106 C 
HETATM   19  O24 MIQ B 502     -33.256  14.872  21.481  1.00146.13    -0.273 OA
HETATM   20  C23 MIQ B 502     -30.175  14.814  22.834  1.00139.15     0.045 C 
ENDBRANCH  10  12
BRANCH   5  21
HETATM   21  N6  MIQ B 502     -25.562  12.369  29.251  1.00140.95    -0.377 N 
HETATM   22  C7  MIQ B 502     -24.835  11.112  29.293  1.00142.12     0.149 C 
HETATM   23  C8  MIQ B 502     -24.160  10.890  30.641  1.00144.10     0.187 C 
HETATM   24  O9  MIQ B 502     -23.448  12.006  31.083  1.00148.65    -0.388 OA
HETATM   25  C10 MIQ B 502     -23.578  13.233  30.428  1.00147.44     0.187 C 
HETATM   26  C11 MIQ B 502     -24.905  13.564  29.754  1.00144.08     0.149 C 
ENDBRANCH   5  21
TORSDOF 2
ENDMDL
MODEL 7
REMARK VINA RESULT:      -5.6      5.554      7.927
REMARK  2 active torsions:
REMARK  status: ('A' for Active; 'I' for Inactive)
REMARK    1  A    between atoms: C5_5  and  N6_21 
REMARK    2  A    between atoms: C18_14  and  N17_19 
ROOT
HETATM    1  O1  MIQ B 502     -30.687  16.095  24.668  1.00142.91    -0.171 OA
HETATM    2  C2  MIQ B 502     -32.068  15.907  24.766  1.00141.17     0.195 A 
HETATM    3  C3  MIQ B 502     -32.990  16.424  25.915  1.00141.71     0.035 A 
HETATM    4  C4  MIQ B 502     -32.739  17.205  27.150  1.00142.86     0.046 A 
HETATM    5  C5  MIQ B 502     -33.809  17.532  28.021  1.00139.53     0.031 A 
HETATM    6  C12 MIQ B 502     -35.161  17.098  27.700  1.00139.38     0.030 A 
HETATM    7  C13 MIQ B 502     -35.402  16.350  26.516  1.00141.18     0.019 A 
HETATM    8  C14 MIQ B 502     -34.275  16.012  25.604  1.00138.77     0.033 A 
HETATM    9  C15 MIQ B 502     -34.150  15.235  24.253  1.00142.10     0.195 A 
HETATM   10  N17 MIQ B 502     -32.868  15.272  23.927  1.00139.42    -0.288 N 
HETATM   11  O16 MIQ B 502     -35.184  14.625  23.540  1.00148.93    -0.171 OA
ENDROOT
BRANCH  10  12
HETATM   12  C18 MIQ B 502     -32.374  14.630  22.724  1.00139.82     0.187 C 
HETATM   13  C19 MIQ B 502     -31.167  13.768  23.116  1.00140.06     0.247 C 
HETATM   14  O25 MIQ B 502     -31.270  13.007  24.011  1.00143.95    -0.271 OA
HETATM   15  N20 MIQ B 502     -29.903  13.859  22.413  1.00140.02    -0.296 N 
HETATM   16  H13 MIQ B 502     -29.121  13.295  22.683  1.00142.77     0.171 HD
HETATM   17  C21 MIQ B 502     -29.800  14.803  21.331  1.00142.22     0.224 C 
HETATM   18  C22 MIQ B 502     -30.596  16.086  21.468  1.00139.52     0.106 C 
HETATM   19  O24 MIQ B 502     -29.130  14.584  20.382  1.00146.13    -0.273 OA
HETATM   20  C23 MIQ B 502     -32.045  15.676  21.660  1.00139.15     0.045 C 
ENDBRANCH  10  12
BRANCH   5  21
HETATM   21  N6  MIQ B 502     -33.547  18.285  29.234  1.00140.95    -0.377 N 
HETATM   22  C7  MIQ B 502     -32.389  17.929  30.036  1.00142.12     0.149 C 
HETATM   23  C8  MIQ B 502     -32.577  18.297  31.502  1.00144.10     0.187 C 
HETATM   24  O9  MIQ B 502     -33.047  19.600  31.679  1.00148.65    -0.388 OA
HETATM   25  C10 MIQ B 502     -33.499  20.343  30.585  1.00147.44     0.187 C 
HETATM   26  C11 MIQ B 502     -34.130  19.603  29.410  1.00144.08     0.149 C 
ENDBRANCH   5  21
TORSDOF 2
ENDMDL
MODEL 8
REMARK VINA RESULT:      -5.6      5.754      9.670
REMARK  2 active torsions:
REMARK  status: ('A' for Active; 'I' for Inactive)
REMARK    1  A    between atoms: C5_5  and  N6_21 
REMARK    2  A    between atoms: C18_14  and  N17_19 
ROOT
HETATM    1  O1  MIQ B 502     -33.284  17.759  29.317  1.00142.91    -0.171 OA
HETATM    2  C2  MIQ B 502     -34.343  17.380  28.487  1.00141.17     0.195 A 
HETATM    3  C3  MIQ B 502     -34.219  16.704  27.085  1.00141.71     0.035 A 
HETATM    4  C4  MIQ B 502     -33.066  16.281  26.256  1.00142.86     0.046 A 
HETATM    5  C5  MIQ B 502     -33.276  15.676  24.991  1.00139.53     0.031 A 
HETATM    6  C12 MIQ B 502     -34.633  15.470  24.505  1.00139.38     0.030 A 
HETATM    7  C13 MIQ B 502     -35.739  15.875  25.300  1.00141.18     0.019 A 
HETATM    8  C14 MIQ B 502     -35.512  16.507  26.628  1.00138.77     0.033 A 
HETATM    9  C15 MIQ B 502     -36.444  17.063  27.754  1.00142.10     0.195 A 
HETATM   10  N17 MIQ B 502     -35.640  17.505  28.708  1.00139.42    -0.288 N 
HETATM   11  O16 MIQ B 502     -37.839  17.088  27.747  1.00148.93    -0.171 OA
ENDROOT
BRANCH  10  12
HETATM   12  C18 MIQ B 502     -36.163  18.111  29.918  1.00139.82     0.187 C 
HETATM   13  C19 MIQ B 502     -37.100  17.096  30.583  1.00140.06     0.247 C 
HETATM   14  O25 MIQ B 502     -36.718  15.996  30.772  1.00143.95    -0.271 OA
HETATM   15  N20 MIQ B 502     -38.444  17.451  30.992  1.00140.02    -0.296 N 
HETATM   16  H13 MIQ B 502     -39.048  16.776  31.419  1.00142.77     0.171 HD
HETATM   17  C21 MIQ B 502     -38.892  18.796  30.741  1.00142.22     0.224 C 
HETATM   18  C22 MIQ B 502     -38.361  19.469  29.491  1.00139.52     0.106 C 
HETATM   19  O24 MIQ B 502     -39.633  19.348  31.478  1.00146.13    -0.273 OA
HETATM   20  C23 MIQ B 502     -36.847  19.439  29.594  1.00139.15     0.045 C 
ENDBRANCH  10  12
BRANCH   5  21
HETATM   21  N6  MIQ B 502     -32.137  15.280  24.183  1.00140.95    -0.377 N 
HETATM   22  C7  MIQ B 502     -32.364  14.416  23.038  1.00142.12     0.149 C 
HETATM   23  C8  MIQ B 502     -31.133  13.587  22.697  1.00144.10     0.187 C 
HETATM   24  O9  MIQ B 502     -29.962  14.347  22.648  1.00148.65    -0.388 OA
HETATM   25  C10 MIQ B 502     -29.957  15.668  23.103  1.00147.44     0.187 C 
HETATM   26  C11 MIQ B 502     -30.909  16.054  24.230  1.00144.08     0.149 C 
ENDBRANCH   5  21
TORSDOF 2
ENDMDL
MODEL 9
REMARK VINA RESULT:      -5.6     11.655     13.498
REMARK  2 active torsions:
REMARK  status: ('A' for Active; 'I' for Inactive)
REMARK    1  A    between atoms: C5_5  and  N6_21 
REMARK    2  A    between atoms: C18_14  and  N17_19 
ROOT
HETATM    1  O1  MIQ B 502     -32.885   5.357  34.133  1.00142.91    -0.171 OA
HETATM    2  C2  MIQ B 502     -33.218   6.712  34.197  1.00141.17     0.195 A 
HETATM    3  C3  MIQ B 502     -34.529   7.313  34.797  1.00141.71     0.035 A 
HETATM    4  C4  MIQ B 502     -35.727   6.713  35.431  1.00142.86     0.046 A 
HETATM    5  C5  MIQ B 502     -36.784   7.540  35.890  1.00139.53     0.031 A 
HETATM    6  C12 MIQ B 502     -36.691   8.984  35.737  1.00139.38     0.030 A 
HETATM    7  C13 MIQ B 502     -35.542   9.559  35.129  1.00141.18     0.019 A 
HETATM    8  C14 MIQ B 502     -34.434   8.687  34.652  1.00138.77     0.033 A 
HETATM    9  C15 MIQ B 502     -33.056   8.942  33.959  1.00142.10     0.195 A 
HETATM   10  N17 MIQ B 502     -32.511   7.749  33.781  1.00139.42    -0.288 N 
HETATM   11  O16 MIQ B 502     -32.515  10.178  33.602  1.00148.93    -0.171 OA
ENDROOT
BRANCH  10  12
HETATM   12  C18 MIQ B 502     -31.217   7.595  33.142  1.00139.82     0.187 C 
HETATM   13  C19 MIQ B 502     -31.399   6.668  31.934  1.00140.06     0.247 C 
HETATM   14  O25 MIQ B 502     -32.251   6.902  31.153  1.00143.95    -0.271 OA
HETATM   15  N20 MIQ B 502     -30.549   5.515  31.722  1.00140.02    -0.296 N 
HETATM   16  H13 MIQ B 502     -30.682   4.914  30.933  1.00142.77     0.171 HD
HETATM   17  C21 MIQ B 502     -29.523   5.245  32.696  1.00142.22     0.224 C 
HETATM   18  C22 MIQ B 502     -29.838   5.603  34.135  1.00139.52     0.106 C 
HETATM   19  O24 MIQ B 502     -28.485   4.773  32.385  1.00146.13    -0.273 OA
HETATM   20  C23 MIQ B 502     -30.187   7.080  34.146  1.00139.15     0.045 C 
ENDBRANCH  10  12
BRANCH   5  21
HETATM   21  N6  MIQ B 502     -37.958   6.938  36.496  1.00140.95    -0.377 N 
HETATM   22  C7  MIQ B 502     -37.781   5.774  37.347  1.00142.12     0.149 C 
HETATM   23  C8  MIQ B 502     -39.026   4.896  37.376  1.00144.10     0.187 C 
HETATM   24  O9  MIQ B 502     -40.198   5.623  37.595  1.00148.65    -0.388 OA
HETATM   25  C10 MIQ B 502     -40.184   7.019  37.546  1.00147.44     0.187 C 
HETATM   26  C11 MIQ B 502     -39.183   7.708  36.624  1.00144.08     0.149 C 
ENDBRANCH   5  21
TORSDOF 2
ENDMDL
