MODEL 1
REMARK VINA RESULT:      -6.0      0.000      0.000
REMARK  2 active torsions:
REMARK  status: ('A' for Active; 'I' for Inactive)
REMARK    1  A    between atoms: C5_5  and  N6_21 
REMARK    2  A    between atoms: C18_14  and  N17_19 
ROOT
HETATM    1  O1  MIQ B 502      17.108  20.675  15.005  1.00142.91    -0.171 OA
HETATM    2  C2  MIQ B 502      17.012  20.047  13.761  1.00141.17     0.195 A 
HETATM    3  C3  MIQ B 502      16.059  18.865  13.396  1.00141.71     0.035 A 
HETATM    4  C4  MIQ B 502      15.047  18.098  14.161  1.00142.86     0.046 A 
HETATM    5  C5  MIQ B 502      14.320  17.052  13.539  1.00139.53     0.031 A 
HETATM    6  C12 MIQ B 502      14.569  16.731  12.141  1.00139.38     0.030 A 
HETATM    7  C13 MIQ B 502      15.538  17.466  11.407  1.00141.18     0.019 A 
HETATM    8  C14 MIQ B 502      16.297  18.565  12.065  1.00138.77     0.033 A 
HETATM    9  C15 MIQ B 502      17.403  19.568  11.600  1.00142.10     0.195 A 
HETATM   10  N17 MIQ B 502      17.683  20.316  12.655  1.00139.42    -0.288 N 
HETATM   11  O16 MIQ B 502      17.977  19.650  10.330  1.00148.93    -0.171 OA
ENDROOT
BRANCH  10  12
HETATM   12  C18 MIQ B 502      18.691  21.358  12.597  1.00139.82     0.187 C 
HETATM   13  C19 MIQ B 502      19.695  21.102  13.728  1.00140.06     0.247 C 
HETATM   14  O25 MIQ B 502      20.176  20.031  13.839  1.00143.95    -0.271 OA
HETATM   15  N20 MIQ B 502      20.075  22.142  14.662  1.00140.02    -0.296 N 
HETATM   16  H13 MIQ B 502      20.726  21.960  15.400  1.00142.77     0.171 HD
HETATM   17  C21 MIQ B 502      19.466  23.438  14.512  1.00142.22     0.224 C 
HETATM   18  C22 MIQ B 502      18.036  23.466  14.007  1.00139.52     0.106 C 
HETATM   19  O24 MIQ B 502      20.055  24.431  14.766  1.00146.13    -0.273 OA
HETATM   20  C23 MIQ B 502      18.035  22.736  12.676  1.00139.15     0.045 C 
ENDBRANCH  10  12
BRANCH   5  21
HETATM   21  N6  MIQ B 502      13.342  16.299  14.304  1.00140.95    -0.377 N 
HETATM   22  C7  MIQ B 502      13.123  16.659  15.695  1.00142.12     0.149 C 
HETATM   23  C8  MIQ B 502      12.622  15.477  16.515  1.00144.10     0.187 C 
HETATM   24  O9  MIQ B 502      11.568  14.797  15.901  1.00148.65    -0.388 OA
HETATM   25  C10 MIQ B 502      11.221  15.077  14.577  1.00147.44     0.187 C 
HETATM   26  C11 MIQ B 502      12.315  15.536  13.618  1.00144.08     0.149 C 
ENDBRANCH   5  21
TORSDOF 2
ENDMDL
MODEL 2
REMARK VINA RESULT:      -5.9     20.703     23.535
REMARK  2 active torsions:
REMARK  status: ('A' for Active; 'I' for Inactive)
REMARK    1  A    between atoms: C5_5  and  N6_21 
REMARK    2  A    between atoms: C18_14  and  N17_19 
ROOT
HETATM    1  O1  MIQ B 502      11.357  18.747 -10.069  1.00142.91    -0.171 OA
HETATM    2  C2  MIQ B 502      11.677  18.862  -8.714  1.00141.17     0.195 A 
HETATM    3  C3  MIQ B 502      11.530  20.146  -7.838  1.00141.71     0.035 A 
HETATM    4  C4  MIQ B 502      11.052  21.521  -8.117  1.00142.86     0.046 A 
HETATM    5  C5  MIQ B 502      11.035  22.497  -7.088  1.00139.53     0.031 A 
HETATM    6  C12 MIQ B 502      11.489  22.144  -5.750  1.00139.38     0.030 A 
HETATM    7  C13 MIQ B 502      11.947  20.826  -5.482  1.00141.18     0.019 A 
HETATM    8  C14 MIQ B 502      11.960  19.805  -6.566  1.00138.77     0.033 A 
HETATM    9  C15 MIQ B 502      12.375  18.300  -6.653  1.00142.10     0.195 A 
HETATM   10  N17 MIQ B 502      12.154  17.932  -7.904  1.00139.42    -0.288 N 
HETATM   11  O16 MIQ B 502      12.879  17.511  -5.618  1.00148.93    -0.171 OA
ENDROOT
BRANCH  10  12
HETATM   12  C18 MIQ B 502      12.444  16.586  -8.360  1.00139.82     0.187 C 
HETATM   13  C19 MIQ B 502      13.372  16.693  -9.576  1.00140.06     0.247 C 
HETATM   14  O25 MIQ B 502      14.348  17.351  -9.499  1.00143.95    -0.271 OA
HETATM   15  N20 MIQ B 502      13.088  16.003 -10.818  1.00140.02    -0.296 N 
HETATM   16  H13 MIQ B 502      13.698  16.086 -11.606  1.00142.77     0.171 HD
HETATM   17  C21 MIQ B 502      11.885  15.214 -10.890  1.00142.22     0.224 C 
HETATM   18  C22 MIQ B 502      10.691  15.717 -10.102  1.00139.52     0.106 C 
HETATM   19  O24 MIQ B 502      11.835  14.221 -11.530  1.00146.13    -0.273 OA
HETATM   20  C23 MIQ B 502      11.147  15.835  -8.659  1.00139.15     0.045 C 
ENDBRANCH  10  12
BRANCH   5  21
HETATM   21  N6  MIQ B 502      10.579  23.843  -7.379  1.00140.95    -0.377 N 
HETATM   22  C7  MIQ B 502      10.680  24.332  -8.743  1.00142.12     0.149 C 
HETATM   23  C8  MIQ B 502      10.797  25.850  -8.797  1.00144.10     0.187 C 
HETATM   24  O9  MIQ B 502       9.849  26.496  -8.001  1.00148.65    -0.388 OA
HETATM   25  C10 MIQ B 502       9.068  25.768  -7.099  1.00147.44     0.187 C 
HETATM   26  C11 MIQ B 502       9.657  24.509  -6.474  1.00144.08     0.149 C 
ENDBRANCH   5  21
TORSDOF 2
ENDMDL
MODEL 3
REMARK VINA RESULT:      -5.8     20.286     23.416
REMARK  2 active torsions:
REMARK  status: ('A' for Active; 'I' for Inactive)
REMARK    1  A    between atoms: C5_5  and  N6_21 
REMARK    2  A    between atoms: C18_14  and  N17_19 
ROOT
HETATM    1  O1  MIQ B 502      13.647  17.846  -9.866  1.00142.91    -0.171 OA
HETATM    2  C2  MIQ B 502      13.481  18.411  -8.600  1.00141.17     0.195 A 
HETATM    3  C3  MIQ B 502      14.433  19.446  -7.920  1.00141.71     0.035 A 
HETATM    4  C4  MIQ B 502      15.690  20.107  -8.345  1.00142.86     0.046 A 
HETATM    5  C5  MIQ B 502      16.341  21.028  -7.487  1.00139.53     0.031 A 
HETATM    6  C12 MIQ B 502      15.770  21.327  -6.181  1.00139.38     0.030 A 
HETATM    7  C13 MIQ B 502      14.565  20.695  -5.774  1.00141.18     0.019 A 
HETATM    8  C14 MIQ B 502      13.884  19.730  -6.680  1.00138.77     0.033 A 
HETATM    9  C15 MIQ B 502      12.584  18.866  -6.590  1.00142.10     0.195 A 
HETATM   10  N17 MIQ B 502      12.508  18.200  -7.730  1.00139.42    -0.288 N 
HETATM   11  O16 MIQ B 502      11.691  18.810  -5.519  1.00148.93    -0.171 OA
ENDROOT
BRANCH  10  12
HETATM   12  C18 MIQ B 502      11.423  17.274  -7.996  1.00139.82     0.187 C 
HETATM   13  C19 MIQ B 502      12.042  15.919  -8.357  1.00140.06     0.247 C 
HETATM   14  O25 MIQ B 502      12.856  15.449  -7.644  1.00143.95    -0.271 OA
HETATM   15  N20 MIQ B 502      11.651  15.193  -9.548  1.00140.02    -0.296 N 
HETATM   16  H13 MIQ B 502      12.067  14.312  -9.775  1.00142.77     0.171 HD
HETATM   17  C21 MIQ B 502      10.662  15.791 -10.408  1.00142.22     0.224 C 
HETATM   18  C22 MIQ B 502      10.669  17.304 -10.504  1.00139.52     0.106 C 
HETATM   19  O24 MIQ B 502       9.882  15.133 -11.004  1.00146.13    -0.273 OA
HETATM   20  C23 MIQ B 502      10.508  17.827  -9.088  1.00139.15     0.045 C 
ENDBRANCH  10  12
BRANCH   5  21
HETATM   21  N6  MIQ B 502      17.579  21.657  -7.910  1.00140.95    -0.377 N 
HETATM   22  C7  MIQ B 502      18.791  20.856  -7.935  1.00142.12     0.149 C 
HETATM   23  C8  MIQ B 502      20.041  21.708  -7.755  1.00144.10     0.187 C 
HETATM   24  O9  MIQ B 502      20.052  22.836  -8.579  1.00148.65    -0.388 OA
HETATM   25  C10 MIQ B 502      18.908  23.205  -9.290  1.00147.44     0.187 C 
HETATM   26  C11 MIQ B 502      17.542  22.878  -8.694  1.00144.08     0.149 C 
ENDBRANCH   5  21
TORSDOF 2
ENDMDL
MODEL 4
REMARK VINA RESULT:      -5.7     14.300     18.369
REMARK  2 active torsions:
REMARK  status: ('A' for Active; 'I' for Inactive)
REMARK    1  A    between atoms: C5_5  and  N6_21 
REMARK    2  A    between atoms: C18_14  and  N17_19 
ROOT
HETATM    1  O1  MIQ B 502      13.422  32.704   9.649  1.00142.91    -0.171 OA
HETATM    2  C2  MIQ B 502      12.656  33.677   9.004  1.00141.17     0.195 A 
HETATM    3  C3  MIQ B 502      13.200  34.957   8.292  1.00141.71     0.035 A 
HETATM    4  C4  MIQ B 502      14.561  35.505   8.081  1.00142.86     0.046 A 
HETATM    5  C5  MIQ B 502      14.743  36.721   7.375  1.00139.53     0.031 A 
HETATM    6  C12 MIQ B 502      13.585  37.433   6.852  1.00139.38     0.030 A 
HETATM    7  C13 MIQ B 502      12.281  36.907   7.052  1.00141.18     0.019 A 
HETATM    8  C14 MIQ B 502      12.096  35.629   7.793  1.00138.77     0.033 A 
HETATM    9  C15 MIQ B 502      10.860  34.761   8.198  1.00142.10     0.195 A 
HETATM   10  N17 MIQ B 502      11.343  33.721   8.857  1.00139.42    -0.288 N 
HETATM   11  O16 MIQ B 502       9.520  35.036   7.920  1.00148.93    -0.171 OA
ENDROOT
BRANCH  10  12
HETATM   12  C18 MIQ B 502      10.471  32.699   9.403  1.00139.82     0.187 C 
HETATM   13  C19 MIQ B 502      10.792  32.560  10.897  1.00140.06     0.247 C 
HETATM   14  O25 MIQ B 502      10.816  33.526  11.573  1.00143.95    -0.271 OA
HETATM   15  N20 MIQ B 502      11.061  31.272  11.503  1.00140.02    -0.296 N 
HETATM   16  H13 MIQ B 502      11.276  31.196  12.478  1.00142.77     0.171 HD
HETATM   17  C21 MIQ B 502      11.036  30.109  10.655  1.00142.22     0.224 C 
HETATM   18  C22 MIQ B 502      11.502  30.298   9.224  1.00139.52     0.106 C 
HETATM   19  O24 MIQ B 502      10.666  29.060  11.055  1.00146.13    -0.273 OA
HETATM   20  C23 MIQ B 502      10.633  31.391   8.629  1.00139.15     0.045 C 
ENDBRANCH  10  12
BRANCH   5  21
HETATM   21  N6  MIQ B 502      16.080  37.254   7.189  1.00140.95    -0.377 N 
HETATM   22  C7  MIQ B 502      16.370  37.995   5.973  1.00142.12     0.149 C 
HETATM   23  C8  MIQ B 502      17.847  37.927   5.605  1.00144.10     0.187 C 
HETATM   24  O9  MIQ B 502      18.689  38.198   6.684  1.00148.65    -0.388 OA
HETATM   25  C10 MIQ B 502      18.174  38.280   7.981  1.00147.44     0.187 C 
HETATM   26  C11 MIQ B 502      16.953  37.439   8.335  1.00144.08     0.149 C 
ENDBRANCH   5  21
TORSDOF 2
ENDMDL
MODEL 5
REMARK VINA RESULT:      -5.7      3.035      9.774
REMARK  2 active torsions:
REMARK  status: ('A' for Active; 'I' for Inactive)
REMARK    1  A    between atoms: C5_5  and  N6_21 
REMARK    2  A    between atoms: C18_14  and  N17_19 
ROOT
HETATM    1  O1  MIQ B 502      10.233  15.433  13.595  1.00142.91    -0.171 OA
HETATM    2  C2  MIQ B 502      11.324  14.659  13.999  1.00141.17     0.195 A 
HETATM    3  C3  MIQ B 502      12.818  15.114  14.025  1.00141.71     0.035 A 
HETATM    4  C4  MIQ B 502      13.504  16.379  13.672  1.00142.86     0.046 A 
HETATM    5  C5  MIQ B 502      14.911  16.493  13.806  1.00139.53     0.031 A 
HETATM    6  C12 MIQ B 502      15.684  15.360  14.295  1.00139.38     0.030 A 
HETATM    7  C13 MIQ B 502      15.026  14.147  14.634  1.00141.18     0.019 A 
HETATM    8  C14 MIQ B 502      13.549  14.035  14.493  1.00138.77     0.033 A 
HETATM    9  C15 MIQ B 502      12.503  12.904  14.761  1.00142.10     0.195 A 
HETATM   10  N17 MIQ B 502      11.325  13.413  14.439  1.00139.42    -0.288 N 
HETATM   11  O16 MIQ B 502      12.765  11.619  15.238  1.00148.93    -0.171 OA
ENDROOT
BRANCH  10  12
HETATM   12  C18 MIQ B 502      10.107  12.631  14.547  1.00139.82     0.187 C 
HETATM   13  C19 MIQ B 502       9.360  12.743  13.212  1.00140.06     0.247 C 
HETATM   14  O25 MIQ B 502       9.939  12.521  12.208  1.00143.95    -0.271 OA
HETATM   15  N20 MIQ B 502       7.960  13.108  13.148  1.00140.02    -0.296 N 
HETATM   16  H13 MIQ B 502       7.486  13.184  12.270  1.00142.77     0.171 HD
HETATM   17  C21 MIQ B 502       7.278  13.384  14.386  1.00142.22     0.224 C 
HETATM   18  C22 MIQ B 502       8.100  14.024  15.489  1.00139.52     0.106 C 
HETATM   19  O24 MIQ B 502       6.136  13.119  14.535  1.00146.13    -0.273 OA
HETATM   20  C23 MIQ B 502       9.277  13.101  15.741  1.00139.15     0.045 C 
ENDBRANCH  10  12
BRANCH   5  21
HETATM   21  N6  MIQ B 502      15.572  17.733  13.443  1.00140.95    -0.377 N 
HETATM   22  C7  MIQ B 502      16.389  18.403  14.440  1.00142.12     0.149 C 
HETATM   23  C8  MIQ B 502      16.473  19.904  14.192  1.00144.10     0.187 C 
HETATM   24  O9  MIQ B 502      16.772  20.219  12.865  1.00148.65    -0.388 OA
HETATM   25  C10 MIQ B 502      16.750  19.229  11.880  1.00147.44     0.187 C 
HETATM   26  C11 MIQ B 502      15.785  18.059  12.043  1.00144.08     0.149 C 
ENDBRANCH   5  21
TORSDOF 2
ENDMDL
MODEL 6
REMARK VINA RESULT:      -5.6     21.243     23.303
REMARK  2 active torsions:
REMARK  status: ('A' for Active; 'I' for Inactive)
REMARK    1  A    between atoms: C5_5  and  N6_21 
REMARK    2  A    between atoms: C18_14  and  N17_19 
ROOT
HETATM    1  O1  MIQ B 502      12.922  20.078  -5.840  1.00142.91    -0.171 OA
HETATM    2  C2  MIQ B 502      12.104  19.927  -6.962  1.00141.17     0.195 A 
HETATM    3  C3  MIQ B 502      11.168  21.017  -7.575  1.00141.71     0.035 A 
HETATM    4  C4  MIQ B 502      10.869  22.423  -7.213  1.00142.86     0.046 A 
HETATM    5  C5  MIQ B 502       9.950  23.180  -7.983  1.00139.53     0.031 A 
HETATM    6  C12 MIQ B 502       9.298  22.573  -9.134  1.00139.38     0.030 A 
HETATM    7  C13 MIQ B 502       9.585  21.225  -9.481  1.00141.18     0.019 A 
HETATM    8  C14 MIQ B 502      10.553  20.436  -8.672  1.00138.77     0.033 A 
HETATM    9  C15 MIQ B 502      11.111  18.976  -8.741  1.00142.10     0.195 A 
HETATM   10  N17 MIQ B 502      11.955  18.860  -7.729  1.00139.42    -0.288 N 
HETATM   11  O16 MIQ B 502      10.779  17.999  -9.680  1.00148.93    -0.171 OA
ENDROOT
BRANCH  10  12
HETATM   12  C18 MIQ B 502      12.659  17.618  -7.469  1.00139.82     0.187 C 
HETATM   13  C19 MIQ B 502      13.418  17.235  -8.746  1.00140.06     0.247 C 
HETATM   14  O25 MIQ B 502      14.113  18.034  -9.265  1.00143.95    -0.271 OA
HETATM   15  N20 MIQ B 502      13.310  15.914  -9.331  1.00140.02    -0.296 N 
HETATM   16  H13 MIQ B 502      13.806  15.678 -10.168  1.00142.77     0.171 HD
HETATM   17  C21 MIQ B 502      12.448  14.958  -8.685  1.00142.22     0.224 C 
HETATM   18  C22 MIQ B 502      11.205  15.508  -8.011  1.00139.52     0.106 C 
HETATM   19  O24 MIQ B 502      12.701  13.804  -8.677  1.00146.13    -0.273 OA
HETATM   20  C23 MIQ B 502      11.681  16.540  -7.005  1.00139.15     0.045 C 
ENDBRANCH  10  12
BRANCH   5  21
HETATM   21  N6  MIQ B 502       9.655  24.551  -7.608  1.00140.95    -0.377 N 
HETATM   22  C7  MIQ B 502       8.913  24.793  -6.383  1.00142.12     0.149 C 
HETATM   23  C8  MIQ B 502       8.139  26.104  -6.435  1.00144.10     0.187 C 
HETATM   24  O9  MIQ B 502       8.915  27.175  -6.883  1.00148.65    -0.388 OA
HETATM   25  C10 MIQ B 502      10.180  26.951  -7.432  1.00147.44     0.187 C 
HETATM   26  C11 MIQ B 502      10.435  25.641  -8.169  1.00144.08     0.149 C 
ENDBRANCH   5  21
TORSDOF 2
ENDMDL
MODEL 7
REMARK VINA RESULT:      -5.6     22.441     24.877
REMARK  2 active torsions:
REMARK  status: ('A' for Active; 'I' for Inactive)
REMARK    1  A    between atoms: C5_5  and  N6_21 
REMARK    2  A    between atoms: C18_14  and  N17_19 
ROOT
HETATM    1  O1  MIQ B 502       0.264  22.098  -4.632  1.00142.91    -0.171 OA
HETATM    2  C2  MIQ B 502      -0.073  23.080  -3.697  1.00141.17     0.195 A 
HETATM    3  C3  MIQ B 502       0.860  24.220  -3.180  1.00141.71     0.035 A 
HETATM    4  C4  MIQ B 502       2.261  24.604  -3.476  1.00142.86     0.046 A 
HETATM    5  C5  MIQ B 502       2.850  25.721  -2.831  1.00139.53     0.031 A 
HETATM    6  C12 MIQ B 502       2.073  26.494  -1.873  1.00139.38     0.030 A 
HETATM    7  C13 MIQ B 502       0.730  26.127  -1.589  1.00141.18     0.019 A 
HETATM    8  C14 MIQ B 502       0.116  24.955  -2.271  1.00138.77     0.033 A 
HETATM    9  C15 MIQ B 502      -1.288  24.268  -2.225  1.00142.10     0.195 A 
HETATM   10  N17 MIQ B 502      -1.225  23.252  -3.071  1.00139.42    -0.288 N 
HETATM   11  O16 MIQ B 502      -2.381  24.650  -1.446  1.00148.93    -0.171 OA
ENDROOT
BRANCH  10  12
HETATM   12  C18 MIQ B 502      -2.356  22.368  -3.279  1.00139.82     0.187 C 
HETATM   13  C19 MIQ B 502      -1.883  20.933  -3.018  1.00140.06     0.247 C 
HETATM   14  O25 MIQ B 502      -1.310  20.688  -2.016  1.00143.95    -0.271 OA
HETATM   15  N20 MIQ B 502      -2.123  19.866  -3.968  1.00140.02    -0.296 N 
HETATM   16  H13 MIQ B 502      -1.803  18.934  -3.789  1.00142.77     0.171 HD
HETATM   17  C21 MIQ B 502      -2.814  20.191  -5.188  1.00142.22     0.224 C 
HETATM   18  C22 MIQ B 502      -2.566  21.572  -5.764  1.00139.52     0.106 C 
HETATM   19  O24 MIQ B 502      -3.543  19.421  -5.710  1.00146.13    -0.273 OA
HETATM   20  C23 MIQ B 502      -2.936  22.566  -4.679  1.00139.15     0.045 C 
ENDBRANCH  10  12
BRANCH   5  21
HETATM   21  N6  MIQ B 502       4.227  26.076  -3.119  1.00140.95    -0.377 N 
HETATM   22  C7  MIQ B 502       4.856  27.118  -2.326  1.00142.12     0.149 C 
HETATM   23  C8  MIQ B 502       5.972  27.819  -3.090  1.00144.10     0.187 C 
HETATM   24  O9  MIQ B 502       6.851  26.927  -3.709  1.00148.65    -0.388 OA
HETATM   25  C10 MIQ B 502       6.545  25.566  -3.777  1.00147.44     0.187 C 
HETATM   26  C11 MIQ B 502       5.079  25.149  -3.843  1.00144.08     0.149 C 
ENDBRANCH   5  21
TORSDOF 2
ENDMDL
MODEL 8
REMARK VINA RESULT:      -5.5     20.954     23.618
REMARK  2 active torsions:
REMARK  status: ('A' for Active; 'I' for Inactive)
REMARK    1  A    between atoms: C5_5  and  N6_21 
REMARK    2  A    between atoms: C18_14  and  N17_19 
ROOT
HETATM    1  O1  MIQ B 502      10.843  18.008  -9.364  1.00142.91    -0.171 OA
HETATM    2  C2  MIQ B 502      11.409  18.845  -8.400  1.00141.17     0.195 A 
HETATM    3  C3  MIQ B 502      11.001  20.325  -8.109  1.00141.71     0.035 A 
HETATM    4  C4  MIQ B 502       9.988  21.236  -8.693  1.00142.86     0.046 A 
HETATM    5  C5  MIQ B 502       9.850  22.560  -8.205  1.00139.53     0.031 A 
HETATM    6  C12 MIQ B 502      10.708  23.025  -7.125  1.00139.38     0.030 A 
HETATM    7  C13 MIQ B 502      11.678  22.152  -6.565  1.00141.18     0.019 A 
HETATM    8  C14 MIQ B 502      11.818  20.762  -7.079  1.00138.77     0.033 A 
HETATM    9  C15 MIQ B 502      12.736  19.547  -6.727  1.00142.10     0.195 A 
HETATM   10  N17 MIQ B 502      12.380  18.570  -7.545  1.00139.42    -0.288 N 
HETATM   11  O16 MIQ B 502      13.731  19.507  -5.749  1.00148.93    -0.171 OA
ENDROOT
BRANCH  10  12
HETATM   12  C18 MIQ B 502      13.038  17.278  -7.515  1.00139.82     0.187 C 
HETATM   13  C19 MIQ B 502      13.493  16.951  -8.942  1.00140.06     0.247 C 
HETATM   14  O25 MIQ B 502      14.118  17.749  -9.545  1.00143.95    -0.271 OA
HETATM   15  N20 MIQ B 502      13.182  15.684  -9.572  1.00140.02    -0.296 N 
HETATM   16  H13 MIQ B 502      13.479  15.485 -10.507  1.00142.77     0.171 HD
HETATM   17  C21 MIQ B 502      12.408  14.729  -8.819  1.00142.22     0.224 C 
HETATM   18  C22 MIQ B 502      11.369  15.292  -7.869  1.00139.52     0.106 C 
HETATM   19  O24 MIQ B 502      12.581  13.566  -8.935  1.00146.13    -0.273 OA
HETATM   20  C23 MIQ B 502      12.108  16.221  -6.923  1.00139.15     0.045 C 
ENDBRANCH  10  12
BRANCH   5  21
HETATM   21  N6  MIQ B 502       8.863  23.446  -8.796  1.00140.95    -0.377 N 
HETATM   22  C7  MIQ B 502       9.074  23.912 -10.155  1.00142.12     0.149 C 
HETATM   23  C8  MIQ B 502       8.396  25.252 -10.409  1.00144.10     0.187 C 
HETATM   24  O9  MIQ B 502       7.072  25.283  -9.966  1.00148.65    -0.388 OA
HETATM   25  C10 MIQ B 502       6.566  24.249  -9.175  1.00147.44     0.187 C 
HETATM   26  C11 MIQ B 502       7.521  23.507  -8.245  1.00144.08     0.149 C 
ENDBRANCH   5  21
TORSDOF 2
ENDMDL
MODEL 9
REMARK VINA RESULT:      -5.5      3.175      9.270
REMARK  2 active torsions:
REMARK  status: ('A' for Active; 'I' for Inactive)
REMARK    1  A    between atoms: C5_5  and  N6_21 
REMARK    2  A    between atoms: C18_14  and  N17_19 
ROOT
HETATM    1  O1  MIQ B 502      13.069  14.256  16.780  1.00142.91    -0.171 OA
HETATM    2  C2  MIQ B 502      12.858  14.706  15.474  1.00141.17     0.195 A 
HETATM    3  C3  MIQ B 502      13.885  15.484  14.590  1.00141.71     0.035 A 
HETATM    4  C4  MIQ B 502      15.274  15.951  14.813  1.00142.86     0.046 A 
HETATM    5  C5  MIQ B 502      15.967  16.649  13.792  1.00139.53     0.031 A 
HETATM    6  C12 MIQ B 502      15.311  16.908  12.519  1.00139.38     0.030 A 
HETATM    7  C13 MIQ B 502      13.979  16.460  12.305  1.00141.18     0.019 A 
HETATM    8  C14 MIQ B 502      13.257  15.725  13.379  1.00138.77     0.033 A 
HETATM    9  C15 MIQ B 502      11.833  15.093  13.512  1.00142.10     0.195 A 
HETATM   10  N17 MIQ B 502      11.777  14.571  14.726  1.00139.42    -0.288 N 
HETATM   11  O16 MIQ B 502      10.827  15.087  12.543  1.00148.93    -0.171 OA
ENDROOT
BRANCH  10  12
HETATM   12  C18 MIQ B 502      10.582  13.905  15.210  1.00139.82     0.187 C 
HETATM   13  C19 MIQ B 502      10.234  12.789  14.218  1.00140.06     0.247 C 
HETATM   14  O25 MIQ B 502      11.069  12.018  13.902  1.00143.95    -0.271 OA
HETATM   15  N20 MIQ B 502       8.904  12.649  13.661  1.00140.02    -0.296 N 
HETATM   16  H13 MIQ B 502       8.692  11.919  13.009  1.00142.77     0.171 HD
HETATM   17  C21 MIQ B 502       7.904  13.608  14.054  1.00142.22     0.224 C 
HETATM   18  C22 MIQ B 502       8.384  15.020  14.325  1.00139.52     0.106 C 
HETATM   19  O24 MIQ B 502       6.767  13.304  14.164  1.00146.13    -0.273 OA
HETATM   20  C23 MIQ B 502       9.451  14.915  15.399  1.00139.15     0.045 C 
ENDBRANCH  10  12
BRANCH   5  21
HETATM   21  N6  MIQ B 502      17.322  17.113  14.029  1.00140.95    -0.377 N 
HETATM   22  C7  MIQ B 502      18.417  16.172  13.868  1.00142.12     0.149 C 
HETATM   23  C8  MIQ B 502      19.620  16.546  14.724  1.00144.10     0.187 C 
HETATM   24  O9  MIQ B 502      19.969  17.894  14.610  1.00148.65    -0.388 OA
HETATM   25  C10 MIQ B 502      19.124  18.791  13.953  1.00147.44     0.187 C 
HETATM   26  C11 MIQ B 502      17.621  18.534  13.985  1.00144.08     0.149 C 
ENDBRANCH   5  21
TORSDOF 2
ENDMDL
