MODEL 1
REMARK VINA RESULT:      -6.3      0.000      0.000
REMARK  2 active torsions:
REMARK  status: ('A' for Active; 'I' for Inactive)
REMARK    1  A    between atoms: C5_5  and  N6_21 
REMARK    2  A    between atoms: C18_14  and  N17_19 
ROOT
HETATM    1  O1  MIQ B 502       6.919  48.075   5.109  1.00142.91    -0.171 OA
HETATM    2  C2  MIQ B 502       6.871  46.736   4.715  1.00141.17     0.195 A 
HETATM    3  C3  MIQ B 502       7.166  45.497   5.620  1.00141.71     0.035 A 
HETATM    4  C4  MIQ B 502       7.549  45.344   7.044  1.00142.86     0.046 A 
HETATM    5  C5  MIQ B 502       7.751  44.054   7.596  1.00139.53     0.031 A 
HETATM    6  C12 MIQ B 502       7.580  42.874   6.760  1.00139.38     0.030 A 
HETATM    7  C13 MIQ B 502       7.212  43.021   5.395  1.00141.18     0.019 A 
HETATM    8  C14 MIQ B 502       6.999  44.378   4.821  1.00138.77     0.033 A 
HETATM    9  C15 MIQ B 502       6.598  44.924   3.412  1.00142.10     0.195 A 
HETATM   10  N17 MIQ B 502       6.570  46.242   3.526  1.00139.42    -0.288 N 
HETATM   11  O16 MIQ B 502       6.328  44.170   2.269  1.00148.93    -0.171 OA
ENDROOT
BRANCH  10  12
HETATM   12  C18 MIQ B 502       6.246  47.093   2.396  1.00139.82     0.187 C 
HETATM   13  C19 MIQ B 502       7.414  48.066   2.194  1.00140.06     0.247 C 
HETATM   14  O25 MIQ B 502       8.513  47.641   2.125  1.00143.95    -0.271 OA
HETATM   15  N20 MIQ B 502       7.207  49.495   2.079  1.00140.02    -0.296 N 
HETATM   16  H13 MIQ B 502       7.978  50.120   1.954  1.00142.77     0.171 HD
HETATM   17  C21 MIQ B 502       5.858  49.991   2.177  1.00142.22     0.224 C 
HETATM   18  C22 MIQ B 502       4.921  49.238   3.103  1.00139.52     0.106 C 
HETATM   19  O24 MIQ B 502       5.500  50.934   1.562  1.00146.13    -0.273 OA
HETATM   20  C23 MIQ B 502       4.910  47.797   2.626  1.00139.15     0.045 C 
ENDBRANCH  10  12
BRANCH   5  21
HETATM   21  N6  MIQ B 502       8.140  43.919   8.988  1.00140.95    -0.377 N 
HETATM   22  C7  MIQ B 502       9.484  43.456   9.292  1.00142.12     0.149 C 
HETATM   23  C8  MIQ B 502       9.554  42.764  10.647  1.00144.10     0.187 C 
HETATM   24  O9  MIQ B 502       8.929  43.491  11.662  1.00148.65    -0.388 OA
HETATM   25  C10 MIQ B 502       8.143  44.604  11.354  1.00147.44     0.187 C 
HETATM   26  C11 MIQ B 502       7.405  44.629  10.019  1.00144.08     0.149 C 
ENDBRANCH   5  21
TORSDOF 2
ENDMDL
MODEL 2
REMARK VINA RESULT:      -6.2      3.562      7.668
REMARK  2 active torsions:
REMARK  status: ('A' for Active; 'I' for Inactive)
REMARK    1  A    between atoms: C5_5  and  N6_21 
REMARK    2  A    between atoms: C18_14  and  N17_19 
ROOT
HETATM    1  O1  MIQ B 502       8.648  45.238   3.764  1.00142.91    -0.171 OA
HETATM    2  C2  MIQ B 502       7.397  45.134   3.152  1.00141.17     0.195 A 
HETATM    3  C3  MIQ B 502       6.453  46.321   2.776  1.00141.71     0.035 A 
HETATM    4  C4  MIQ B 502       6.557  47.792   2.924  1.00142.86     0.046 A 
HETATM    5  C5  MIQ B 502       5.508  48.633   2.474  1.00139.53     0.031 A 
HETATM    6  C12 MIQ B 502       4.324  48.047   1.862  1.00139.38     0.030 A 
HETATM    7  C13 MIQ B 502       4.224  46.637   1.720  1.00141.18     0.019 A 
HETATM    8  C14 MIQ B 502       5.329  45.759   2.192  1.00138.77     0.033 A 
HETATM    9  C15 MIQ B 502       5.578  44.215   2.204  1.00142.10     0.195 A 
HETATM   10  N17 MIQ B 502       6.764  44.041   2.764  1.00139.42    -0.288 N 
HETATM   11  O16 MIQ B 502       4.718  43.226   1.723  1.00148.93    -0.171 OA
ENDROOT
BRANCH  10  12
HETATM   12  C18 MIQ B 502       7.322  42.715   2.959  1.00139.82     0.187 C 
HETATM   13  C19 MIQ B 502       7.728  42.591   4.432  1.00140.06     0.247 C 
HETATM   14  O25 MIQ B 502       6.946  42.866   5.271  1.00143.95    -0.271 OA
HETATM   15  N20 MIQ B 502       9.047  42.138   4.825  1.00140.02    -0.296 N 
HETATM   16  H13 MIQ B 502       9.302  42.067   5.790  1.00142.77     0.171 HD
HETATM   17  C21 MIQ B 502       9.988  41.817   3.783  1.00142.22     0.224 C 
HETATM   18  C22 MIQ B 502       9.901  42.637   2.510  1.00139.52     0.106 C 
HETATM   19  O24 MIQ B 502      10.785  40.954   3.914  1.00146.13    -0.273 OA
HETATM   20  C23 MIQ B 502       8.482  42.480   1.993  1.00139.15     0.045 C 
ENDBRANCH  10  12
BRANCH   5  21
HETATM   21  N6  MIQ B 502       5.616  50.071   2.638  1.00140.95    -0.377 N 
HETATM   22  C7  MIQ B 502       6.313  50.586   3.804  1.00142.12     0.149 C 
HETATM   23  C8  MIQ B 502       5.821  51.974   4.193  1.00144.10     0.187 C 
HETATM   24  O9  MIQ B 502       5.747  52.849   3.108  1.00148.65    -0.388 OA
HETATM   25  C10 MIQ B 502       5.894  52.372   1.803  1.00147.44     0.187 C 
HETATM   26  C11 MIQ B 502       5.446  50.947   1.492  1.00144.08     0.149 C 
ENDBRANCH   5  21
TORSDOF 2
ENDMDL
MODEL 3
REMARK VINA RESULT:      -6.2      2.860      3.830
REMARK  2 active torsions:
REMARK  status: ('A' for Active; 'I' for Inactive)
REMARK    1  A    between atoms: C5_5  and  N6_21 
REMARK    2  A    between atoms: C18_14  and  N17_19 
ROOT
HETATM    1  O1  MIQ B 502       8.224  42.677   2.113  1.00142.91    -0.171 OA
HETATM    2  C2  MIQ B 502       7.866  43.329   3.296  1.00141.17     0.195 A 
HETATM    3  C3  MIQ B 502       8.260  42.894   4.743  1.00141.71     0.035 A 
HETATM    4  C4  MIQ B 502       9.059  41.771   5.288  1.00142.86     0.046 A 
HETATM    5  C5  MIQ B 502       9.247  41.637   6.687  1.00139.53     0.031 A 
HETATM    6  C12 MIQ B 502       8.652  42.610   7.592  1.00139.38     0.030 A 
HETATM    7  C13 MIQ B 502       7.886  43.687   7.070  1.00141.18     0.019 A 
HETATM    8  C14 MIQ B 502       7.694  43.823   5.601  1.00138.77     0.033 A 
HETATM    9  C15 MIQ B 502       6.945  44.841   4.680  1.00142.10     0.195 A 
HETATM   10  N17 MIQ B 502       7.142  44.425   3.440  1.00139.42    -0.288 N 
HETATM   11  O16 MIQ B 502       6.216  45.959   5.090  1.00148.93    -0.171 OA
ENDROOT
BRANCH  10  12
HETATM   12  C18 MIQ B 502       6.572  45.128   2.306  1.00139.82     0.187 C 
HETATM   13  C19 MIQ B 502       6.947  46.610   2.437  1.00140.06     0.247 C 
HETATM   14  O25 MIQ B 502       8.075  46.904   2.616  1.00143.95    -0.271 OA
HETATM   15  N20 MIQ B 502       5.954  47.660   2.342  1.00140.02    -0.296 N 
HETATM   16  H13 MIQ B 502       6.211  48.623   2.436  1.00142.77     0.171 HD
HETATM   17  C21 MIQ B 502       4.582  47.275   2.133  1.00142.22     0.224 C 
HETATM   18  C22 MIQ B 502       4.136  45.972   2.769  1.00139.52     0.106 C 
HETATM   19  O24 MIQ B 502       3.843  47.940   1.494  1.00146.13    -0.273 OA
HETATM   20  C23 MIQ B 502       5.063  44.894   2.238  1.00139.15     0.045 C 
ENDBRANCH  10  12
BRANCH   5  21
HETATM   21  N6  MIQ B 502      10.021  40.524   7.207  1.00140.95    -0.377 N 
HETATM   22  C7  MIQ B 502      10.512  39.524   6.275  1.00142.12     0.149 C 
HETATM   23  C8  MIQ B 502      10.708  38.170   6.945  1.00144.10     0.187 C 
HETATM   24  O9  MIQ B 502      11.406  38.256   8.151  1.00148.65    -0.388 OA
HETATM   25  C10 MIQ B 502      11.658  39.500   8.736  1.00147.44     0.187 C 
HETATM   26  C11 MIQ B 502      10.658  40.629   8.508  1.00144.08     0.149 C 
ENDBRANCH   5  21
TORSDOF 2
ENDMDL
MODEL 4
REMARK VINA RESULT:      -6.1      1.503      2.000
REMARK  2 active torsions:
REMARK  status: ('A' for Active; 'I' for Inactive)
REMARK    1  A    between atoms: C5_5  and  N6_21 
REMARK    2  A    between atoms: C18_14  and  N17_19 
ROOT
HETATM    1  O1  MIQ B 502       6.093  46.646   5.118  1.00142.91    -0.171 OA
HETATM    2  C2  MIQ B 502       6.687  45.407   4.866  1.00141.17     0.195 A 
HETATM    3  C3  MIQ B 502       7.406  44.499   5.914  1.00141.71     0.035 A 
HETATM    4  C4  MIQ B 502       7.668  44.630   7.367  1.00142.86     0.046 A 
HETATM    5  C5  MIQ B 502       8.364  43.611   8.064  1.00139.53     0.031 A 
HETATM    6  C12 MIQ B 502       8.823  42.429   7.348  1.00139.38     0.030 A 
HETATM    7  C13 MIQ B 502       8.570  42.302   5.956  1.00141.18     0.019 A 
HETATM    8  C14 MIQ B 502       7.837  43.374   5.229  1.00138.77     0.033 A 
HETATM    9  C15 MIQ B 502       7.383  43.585   3.748  1.00142.10     0.195 A 
HETATM   10  N17 MIQ B 502       6.761  44.753   3.720  1.00139.42    -0.288 N 
HETATM   11  O16 MIQ B 502       7.595  42.716   2.677  1.00148.93    -0.171 OA
ENDROOT
BRANCH  10  12
HETATM   12  C18 MIQ B 502       6.211  45.288   2.488  1.00139.82     0.187 C 
HETATM   13  C19 MIQ B 502       6.634  46.759   2.388  1.00140.06     0.247 C 
HETATM   14  O25 MIQ B 502       7.771  47.042   2.523  1.00143.95    -0.271 OA
HETATM   15  N20 MIQ B 502       5.675  47.813   2.127  1.00140.02    -0.296 N 
HETATM   16  H13 MIQ B 502       5.963  48.770   2.071  1.00142.77     0.171 HD
HETATM   17  C21 MIQ B 502       4.291  47.444   1.977  1.00142.22     0.224 C 
HETATM   18  C22 MIQ B 502       3.805  46.271   2.807  1.00139.52     0.106 C 
HETATM   19  O24 MIQ B 502       3.573  48.025   1.240  1.00146.13    -0.273 OA
HETATM   20  C23 MIQ B 502       4.696  45.094   2.453  1.00139.15     0.045 C 
ENDBRANCH  10  12
BRANCH   5  21
HETATM   21  N6  MIQ B 502       8.627  43.759   9.484  1.00140.95    -0.377 N 
HETATM   22  C7  MIQ B 502       7.654  44.464  10.301  1.00142.12     0.149 C 
HETATM   23  C8  MIQ B 502       8.294  45.097  11.529  1.00144.10     0.187 C 
HETATM   24  O9  MIQ B 502       9.129  44.218  12.221  1.00148.65    -0.388 OA
HETATM   25  C10 MIQ B 502       9.479  42.986  11.662  1.00147.44     0.187 C 
HETATM   26  C11 MIQ B 502       9.571  42.874  10.144  1.00144.08     0.149 C 
ENDBRANCH   5  21
TORSDOF 2
ENDMDL
MODEL 5
REMARK VINA RESULT:      -5.8      4.045      5.344
REMARK  2 active torsions:
REMARK  status: ('A' for Active; 'I' for Inactive)
REMARK    1  A    between atoms: C5_5  and  N6_21 
REMARK    2  A    between atoms: C18_14  and  N17_19 
ROOT
HETATM    1  O1  MIQ B 502       7.324  42.496   5.066  1.00142.91    -0.171 OA
HETATM    2  C2  MIQ B 502       8.568  42.050   4.616  1.00141.17     0.195 A 
HETATM    3  C3  MIQ B 502       9.587  41.186   5.425  1.00141.71     0.035 A 
HETATM    4  C4  MIQ B 502       9.575  40.610   6.791  1.00142.86     0.046 A 
HETATM    5  C5  MIQ B 502      10.677  39.848   7.257  1.00139.53     0.031 A 
HETATM    6  C12 MIQ B 502      11.824  39.631   6.387  1.00139.38     0.030 A 
HETATM    7  C13 MIQ B 502      11.835  40.182   5.078  1.00141.18     0.019 A 
HETATM    8  C14 MIQ B 502      10.675  40.979   4.593  1.00138.77     0.033 A 
HETATM    9  C15 MIQ B 502      10.330  41.718   3.259  1.00142.10     0.195 A 
HETATM   10  N17 MIQ B 502       9.133  42.253   3.438  1.00139.42    -0.288 N 
HETATM   11  O16 MIQ B 502      11.127  41.796   2.116  1.00148.93    -0.171 OA
ENDROOT
BRANCH  10  12
HETATM   12  C18 MIQ B 502       8.492  43.038   2.399  1.00139.82     0.187 C 
HETATM   13  C19 MIQ B 502       8.043  44.364   3.024  1.00140.06     0.247 C 
HETATM   14  O25 MIQ B 502       8.819  45.002   3.642  1.00143.95    -0.271 OA
HETATM   15  N20 MIQ B 502       6.690  44.860   2.874  1.00140.02    -0.296 N 
HETATM   16  H13 MIQ B 502       6.407  45.724   3.293  1.00142.77     0.171 HD
HETATM   17  C21 MIQ B 502       5.757  44.058   2.125  1.00142.22     0.224 C 
HETATM   18  C22 MIQ B 502       5.925  42.554   2.216  1.00139.52     0.106 C 
HETATM   19  O24 MIQ B 502       4.907  44.551   1.468  1.00146.13    -0.273 OA
HETATM   20  C23 MIQ B 502       7.344  42.250   1.770  1.00139.15     0.045 C 
ENDBRANCH  10  12
BRANCH   5  21
HETATM   21  N6  MIQ B 502      10.659  39.303   8.602  1.00140.95    -0.377 N 
HETATM   22  C7  MIQ B 502      10.577  37.862   8.766  1.00142.12     0.149 C 
HETATM   23  C8  MIQ B 502       9.936  37.476  10.093  1.00144.10     0.187 C 
HETATM   24  O9  MIQ B 502      10.472  38.171  11.178  1.00148.65    -0.388 OA
HETATM   25  C10 MIQ B 502      11.330  39.254  10.971  1.00147.44     0.187 C 
HETATM   26  C11 MIQ B 502      11.149  40.098   9.714  1.00144.08     0.149 C 
ENDBRANCH   5  21
TORSDOF 2
ENDMDL
MODEL 6
REMARK VINA RESULT:      -5.8     13.558     14.981
REMARK  2 active torsions:
REMARK  status: ('A' for Active; 'I' for Inactive)
REMARK    1  A    between atoms: C5_5  and  N6_21 
REMARK    2  A    between atoms: C18_14  and  N17_19 
ROOT
HETATM    1  O1  MIQ B 502       0.715  38.626  -5.240  1.00142.91    -0.171 OA
HETATM    2  C2  MIQ B 502       0.594  37.933  -4.034  1.00141.17     0.195 A 
HETATM    3  C3  MIQ B 502      -0.449  38.220  -2.906  1.00141.71     0.035 A 
HETATM    4  C4  MIQ B 502      -1.541  39.210  -2.757  1.00142.86     0.046 A 
HETATM    5  C5  MIQ B 502      -2.342  39.223  -1.586  1.00139.53     0.031 A 
HETATM    6  C12 MIQ B 502      -2.089  38.256  -0.527  1.00139.38     0.030 A 
HETATM    7  C13 MIQ B 502      -1.042  37.306  -0.671  1.00141.18     0.019 A 
HETATM    8  C14 MIQ B 502      -0.207  37.296  -1.903  1.00138.77     0.033 A 
HETATM    9  C15 MIQ B 502       0.993  36.431  -2.410  1.00142.10     0.195 A 
HETATM   10  N17 MIQ B 502       1.312  36.912  -3.601  1.00139.42    -0.288 N 
HETATM   11  O16 MIQ B 502       1.601  35.369  -1.738  1.00148.93    -0.171 OA
ENDROOT
BRANCH  10  12
HETATM   12  C18 MIQ B 502       2.407  36.355  -4.373  1.00139.82     0.187 C 
HETATM   13  C19 MIQ B 502       3.320  37.515  -4.793  1.00140.06     0.247 C 
HETATM   14  O25 MIQ B 502       3.700  38.274  -3.974  1.00143.95    -0.271 OA
HETATM   15  N20 MIQ B 502       3.734  37.701  -6.168  1.00140.02    -0.296 N 
HETATM   16  H13 MIQ B 502       4.325  38.465  -6.431  1.00142.77     0.171 HD
HETATM   17  C21 MIQ B 502       3.249  36.767  -7.151  1.00142.22     0.224 C 
HETATM   18  C22 MIQ B 502       1.858  36.205  -6.929  1.00139.52     0.106 C 
HETATM   19  O24 MIQ B 502       3.906  36.451  -8.081  1.00146.13    -0.273 OA
HETATM   20  C23 MIQ B 502       1.869  35.554  -5.558  1.00139.15     0.045 C 
ENDBRANCH  10  12
BRANCH   5  21
HETATM   21  N6  MIQ B 502      -3.399  40.208  -1.446  1.00140.95    -0.377 N 
HETATM   22  C7  MIQ B 502      -3.062  41.613  -1.596  1.00142.12     0.149 C 
HETATM   23  C8  MIQ B 502      -4.021  42.513  -0.826  1.00144.10     0.187 C 
HETATM   24  O9  MIQ B 502      -5.362  42.193  -1.047  1.00148.65    -0.388 OA
HETATM   25  C10 MIQ B 502      -5.708  41.019  -1.721  1.00147.44     0.187 C 
HETATM   26  C11 MIQ B 502      -4.787  39.810  -1.600  1.00144.08     0.149 C 
ENDBRANCH   5  21
TORSDOF 2
ENDMDL
MODEL 7
REMARK VINA RESULT:      -5.8     13.568     16.241
REMARK  2 active torsions:
REMARK  status: ('A' for Active; 'I' for Inactive)
REMARK    1  A    between atoms: C5_5  and  N6_21 
REMARK    2  A    between atoms: C18_14  and  N17_19 
ROOT
HETATM    1  O1  MIQ B 502      -1.124  35.930  -3.951  1.00142.91    -0.171 OA
HETATM    2  C2  MIQ B 502       0.195  36.194  -3.577  1.00141.17     0.195 A 
HETATM    3  C3  MIQ B 502       1.165  37.205  -4.268  1.00141.71     0.035 A 
HETATM    4  C4  MIQ B 502       1.025  38.125  -5.422  1.00142.86     0.046 A 
HETATM    5  C5  MIQ B 502       2.112  38.943  -5.822  1.00139.53     0.031 A 
HETATM    6  C12 MIQ B 502       3.371  38.878  -5.094  1.00139.38     0.030 A 
HETATM    7  C13 MIQ B 502       3.505  37.997  -3.987  1.00141.18     0.019 A 
HETATM    8  C14 MIQ B 502       2.360  37.143  -3.570  1.00138.77     0.033 A 
HETATM    9  C15 MIQ B 502       2.131  36.087  -2.440  1.00142.10     0.195 A 
HETATM   10  N17 MIQ B 502       0.886  35.663  -2.583  1.00139.42    -0.288 N 
HETATM   11  O16 MIQ B 502       3.057  35.677  -1.479  1.00148.93    -0.171 OA
ENDROOT
BRANCH  10  12
HETATM   12  C18 MIQ B 502       0.325  34.653  -1.705  1.00139.82     0.187 C 
HETATM   13  C19 MIQ B 502       0.510  35.134  -0.261  1.00140.06     0.247 C 
HETATM   14  O25 MIQ B 502       0.157  36.220   0.035  1.00143.95    -0.271 OA
HETATM   15  N20 MIQ B 502       1.102  34.288   0.755  1.00140.02    -0.296 N 
HETATM   16  H13 MIQ B 502       1.223  34.616   1.693  1.00142.77     0.171 HD
HETATM   17  C21 MIQ B 502       1.535  32.970   0.368  1.00142.22     0.224 C 
HETATM   18  C22 MIQ B 502       2.069  32.816  -1.043  1.00139.52     0.106 C 
HETATM   19  O24 MIQ B 502       1.471  32.055   1.113  1.00146.13    -0.273 OA
HETATM   20  C23 MIQ B 502       0.971  33.295  -1.975  1.00139.15     0.045 C 
ENDBRANCH  10  12
BRANCH   5  21
HETATM   21  N6  MIQ B 502       1.966  39.829  -6.963  1.00140.95    -0.377 N 
HETATM   22  C7  MIQ B 502       3.162  40.408  -7.550  1.00142.12     0.149 C 
HETATM   23  C8  MIQ B 502       2.870  41.733  -8.243  1.00144.10     0.187 C 
HETATM   24  O9  MIQ B 502       1.760  41.671  -9.088  1.00148.65    -0.388 OA
HETATM   25  C10 MIQ B 502       0.918  40.557  -9.069  1.00147.44     0.187 C 
HETATM   26  C11 MIQ B 502       0.754  39.788  -7.762  1.00144.08     0.149 C 
ENDBRANCH   5  21
TORSDOF 2
ENDMDL
MODEL 8
REMARK VINA RESULT:      -5.7      3.853      8.471
REMARK  2 active torsions:
REMARK  status: ('A' for Active; 'I' for Inactive)
REMARK    1  A    between atoms: C5_5  and  N6_21 
REMARK    2  A    between atoms: C18_14  and  N17_19 
ROOT
HETATM    1  O1  MIQ B 502       8.173  42.993   7.800  1.00142.91    -0.171 OA
HETATM    2  C2  MIQ B 502       8.604  42.646   6.517  1.00141.17     0.195 A 
HETATM    3  C3  MIQ B 502       8.038  43.205   5.173  1.00141.71     0.035 A 
HETATM    4  C4  MIQ B 502       6.974  44.183   4.842  1.00142.86     0.046 A 
HETATM    5  C5  MIQ B 502       6.682  44.495   3.491  1.00139.53     0.031 A 
HETATM    6  C12 MIQ B 502       7.431  43.850   2.422  1.00139.38     0.030 A 
HETATM    7  C13 MIQ B 502       8.452  42.913   2.738  1.00141.18     0.019 A 
HETATM    8  C14 MIQ B 502       8.756  42.591   4.159  1.00138.77     0.033 A 
HETATM    9  C15 MIQ B 502       9.774  41.647   4.879  1.00142.10     0.195 A 
HETATM   10  N17 MIQ B 502       9.559  41.799   6.175  1.00139.42    -0.288 N 
HETATM   11  O16 MIQ B 502      10.714  40.813   4.271  1.00148.93    -0.171 OA
ENDROOT
BRANCH  10  12
HETATM   12  C18 MIQ B 502      10.322  41.057   7.161  1.00139.82     0.187 C 
HETATM   13  C19 MIQ B 502      11.810  41.303   6.885  1.00140.06     0.247 C 
HETATM   14  O25 MIQ B 502      12.199  42.411   6.771  1.00143.95    -0.271 OA
HETATM   15  N20 MIQ B 502      12.756  40.212   6.765  1.00140.02    -0.296 N 
HETATM   16  H13 MIQ B 502      13.723  40.387   6.577  1.00142.77     0.171 HD
HETATM   17  C21 MIQ B 502      12.255  38.868   6.897  1.00142.22     0.224 C 
HETATM   18  C22 MIQ B 502      10.850  38.611   6.388  1.00139.52     0.106 C 
HETATM   19  O24 MIQ B 502      12.907  38.012   7.384  1.00146.13    -0.273 OA
HETATM   20  C23 MIQ B 502       9.941  39.578   7.124  1.00139.15     0.045 C 
ENDBRANCH  10  12
BRANCH   5  21
HETATM   21  N6  MIQ B 502       5.628  45.444   3.181  1.00140.95    -0.377 N 
HETATM   22  C7  MIQ B 502       4.739  45.156   2.069  1.00142.12     0.149 C 
HETATM   23  C8  MIQ B 502       4.157  46.427   1.463  1.00144.10     0.187 C 
HETATM   24  O9  MIQ B 502       3.647  47.303   2.424  1.00148.65    -0.388 OA
HETATM   25  C10 MIQ B 502       3.890  47.083   3.782  1.00147.44     0.187 C 
HETATM   26  C11 MIQ B 502       5.189  46.394   4.188  1.00144.08     0.149 C 
ENDBRANCH   5  21
TORSDOF 2
ENDMDL
MODEL 9
REMARK VINA RESULT:      -5.7     13.653     15.907
REMARK  2 active torsions:
REMARK  status: ('A' for Active; 'I' for Inactive)
REMARK    1  A    between atoms: C5_5  and  N6_21 
REMARK    2  A    between atoms: C18_14  and  N17_19 
ROOT
HETATM    1  O1  MIQ B 502      -4.539  37.398  -3.204  1.00142.91    -0.171 OA
HETATM    2  C2  MIQ B 502      -3.741  38.457  -2.766  1.00141.17     0.195 A 
HETATM    3  C3  MIQ B 502      -4.244  39.771  -2.088  1.00141.71     0.035 A 
HETATM    4  C4  MIQ B 502      -5.588  40.278  -1.719  1.00142.86     0.046 A 
HETATM    5  C5  MIQ B 502      -5.730  41.544  -1.096  1.00139.53     0.031 A 
HETATM    6  C12 MIQ B 502      -4.549  42.348  -0.817  1.00139.38     0.030 A 
HETATM    7  C13 MIQ B 502      -3.261  41.862  -1.169  1.00141.18     0.019 A 
HETATM    8  C14 MIQ B 502      -3.118  40.532  -1.821  1.00138.77     0.033 A 
HETATM    9  C15 MIQ B 502      -1.908  39.685  -2.336  1.00142.10     0.195 A 
HETATM   10  N17 MIQ B 502      -2.425  38.570  -2.825  1.00139.42    -0.288 N 
HETATM   11  O16 MIQ B 502      -0.559  40.040  -2.289  1.00148.93    -0.171 OA
ENDROOT
BRANCH  10  12
HETATM   12  C18 MIQ B 502      -1.588  37.540  -3.412  1.00139.82     0.187 C 
HETATM   13  C19 MIQ B 502      -0.511  37.171  -2.384  1.00140.06     0.247 C 
HETATM   14  O25 MIQ B 502      -0.835  36.900  -1.282  1.00143.95    -0.271 OA
HETATM   15  N20 MIQ B 502       0.895  37.140  -2.729  1.00140.02    -0.296 N 
HETATM   16  H13 MIQ B 502       1.589  36.903  -2.047  1.00142.77     0.171 HD
HETATM   17  C21 MIQ B 502       1.267  37.484  -4.077  1.00142.22     0.224 C 
HETATM   18  C22 MIQ B 502       0.419  38.533  -4.771  1.00139.52     0.106 C 
HETATM   19  O24 MIQ B 502       2.185  36.970  -4.616  1.00146.13    -0.273 OA
HETATM   20  C23 MIQ B 502      -1.010  38.020  -4.742  1.00139.15     0.045 C 
ENDBRANCH  10  12
BRANCH   5  21
HETATM   21  N6  MIQ B 502      -7.053  42.034  -0.754  1.00140.95    -0.377 N 
HETATM   22  C7  MIQ B 502      -7.612  41.679   0.539  1.00142.12     0.149 C 
HETATM   23  C8  MIQ B 502      -9.135  41.677   0.518  1.00144.10     0.187 C 
HETATM   24  O9  MIQ B 502      -9.672  42.824  -0.070  1.00148.65    -0.388 OA
HETATM   25  C10 MIQ B 502      -8.848  43.721  -0.754  1.00147.44     0.187 C 
HETATM   26  C11 MIQ B 502      -7.605  43.180  -1.454  1.00144.08     0.149 C 
ENDBRANCH   5  21
TORSDOF 2
ENDMDL
