MODEL 1
REMARK VINA RESULT:      -5.8      0.000      0.000
REMARK  2 active torsions:
REMARK  status: ('A' for Active; 'I' for Inactive)
REMARK    1  A    between atoms: C5_5  and  N6_21 
REMARK    2  A    between atoms: C18_14  and  N17_19 
ROOT
HETATM    1  O1  MIQ B 502      14.088 -27.515 -54.583  1.00142.91    -0.171 OA
HETATM    2  C2  MIQ B 502      13.774 -27.935 -53.289  1.00141.17     0.195 A 
HETATM    3  C3  MIQ B 502      12.429 -28.585 -52.831  1.00141.71     0.035 A 
HETATM    4  C4  MIQ B 502      11.175 -28.937 -53.539  1.00142.86     0.046 A 
HETATM    5  C5  MIQ B 502      10.099 -29.535 -52.835  1.00139.53     0.031 A 
HETATM    6  C12 MIQ B 502      10.228 -29.803 -51.410  1.00139.38     0.030 A 
HETATM    7  C13 MIQ B 502      11.431 -29.466 -50.732  1.00141.18     0.019 A 
HETATM    8  C14 MIQ B 502      12.558 -28.841 -51.476  1.00138.77     0.033 A 
HETATM    9  C15 MIQ B 502      13.991 -28.348 -51.090  1.00142.10     0.195 A 
HETATM   10  N17 MIQ B 502      14.528 -27.880 -52.205  1.00139.42    -0.288 N 
HETATM   11  O16 MIQ B 502      14.578 -28.394 -49.825  1.00148.93    -0.171 OA
ENDROOT
BRANCH  10  12
HETATM   12  C18 MIQ B 502      15.866 -27.317 -52.222  1.00139.82     0.187 C 
HETATM   13  C19 MIQ B 502      15.759 -25.874 -52.730  1.00140.06     0.247 C 
HETATM   14  O25 MIQ B 502      14.981 -25.143 -52.228  1.00143.95    -0.271 OA
HETATM   15  N20 MIQ B 502      16.593 -25.379 -53.805  1.00140.02    -0.296 N 
HETATM   16  H13 MIQ B 502      16.510 -24.436 -54.132  1.00142.77     0.171 HD
HETATM   17  C21 MIQ B 502      17.529 -26.293 -54.409  1.00142.22     0.224 C 
HETATM   18  C22 MIQ B 502      17.105 -27.747 -54.488  1.00139.52     0.106 C 
HETATM   19  O24 MIQ B 502      18.576 -25.926 -54.816  1.00146.13    -0.273 OA
HETATM   20  C23 MIQ B 502      16.796 -28.184 -53.068  1.00139.15     0.045 C 
ENDBRANCH  10  12
BRANCH   5  21
HETATM   21  N6  MIQ B 502       8.872 -29.861 -53.537  1.00140.95    -0.377 N 
HETATM   22  C7  MIQ B 502       7.733 -30.327 -52.765  1.00142.12     0.149 C 
HETATM   23  C8  MIQ B 502       6.806 -31.208 -53.593  1.00144.10     0.187 C 
HETATM   24  O9  MIQ B 502       6.498 -30.654 -54.837  1.00148.65    -0.388 OA
HETATM   25  C10 MIQ B 502       7.184 -29.529 -55.301  1.00147.44     0.187 C 
HETATM   26  C11 MIQ B 502       8.633 -29.329 -54.867  1.00144.08     0.149 C 
ENDBRANCH   5  21
TORSDOF 2
ENDMDL
MODEL 2
REMARK VINA RESULT:      -5.8      3.822      8.008
REMARK  2 active torsions:
REMARK  status: ('A' for Active; 'I' for Inactive)
REMARK    1  A    between atoms: C5_5  and  N6_21 
REMARK    2  A    between atoms: C18_14  and  N17_19 
ROOT
HETATM    1  O1  MIQ B 502       7.924 -29.584 -52.392  1.00142.91    -0.171 OA
HETATM    2  C2  MIQ B 502       9.265 -29.758 -52.740  1.00141.17     0.195 A 
HETATM    3  C3  MIQ B 502      10.501 -29.395 -51.856  1.00141.71     0.035 A 
HETATM    4  C4  MIQ B 502      10.649 -28.812 -50.501  1.00142.86     0.046 A 
HETATM    5  C5  MIQ B 502      11.938 -28.595 -49.951  1.00139.53     0.031 A 
HETATM    6  C12 MIQ B 502      13.121 -28.948 -50.722  1.00139.38     0.030 A 
HETATM    7  C13 MIQ B 502      12.980 -29.508 -52.020  1.00141.18     0.019 A 
HETATM    8  C14 MIQ B 502      11.624 -29.735 -52.592  1.00138.77     0.033 A 
HETATM    9  C15 MIQ B 502      11.083 -30.314 -53.940  1.00142.10     0.195 A 
HETATM   10  N17 MIQ B 502       9.764 -30.258 -53.857  1.00139.42    -0.288 N 
HETATM   11  O16 MIQ B 502      11.842 -30.790 -55.010  1.00148.93    -0.171 OA
ENDROOT
BRANCH  10  12
HETATM   12  C18 MIQ B 502       8.917 -30.702 -54.949  1.00139.82     0.187 C 
HETATM   13  C19 MIQ B 502       7.914 -29.582 -55.249  1.00140.06     0.247 C 
HETATM   14  O25 MIQ B 502       8.310 -28.484 -55.419  1.00143.95    -0.271 OA
HETATM   15  N20 MIQ B 502       6.490 -29.835 -55.336  1.00140.02    -0.296 N 
HETATM   16  H13 MIQ B 502       5.845 -29.094 -55.526  1.00142.77     0.171 HD
HETATM   17  C21 MIQ B 502       6.029 -31.182 -55.115  1.00142.22     0.224 C 
HETATM   18  C22 MIQ B 502       6.809 -32.012 -54.114  1.00139.52     0.106 C 
HETATM   19  O24 MIQ B 502       5.093 -31.617 -55.690  1.00146.13    -0.273 OA
HETATM   20  C23 MIQ B 502       8.248 -32.030 -54.596  1.00139.15     0.045 C 
ENDBRANCH  10  12
BRANCH   5  21
HETATM   21  N6  MIQ B 502      12.068 -28.010 -48.629  1.00140.95    -0.377 N 
HETATM   22  C7  MIQ B 502      11.502 -28.721 -47.496  1.00142.12     0.149 C 
HETATM   23  C8  MIQ B 502      11.132 -27.777 -46.359  1.00144.10     0.187 C 
HETATM   24  O9  MIQ B 502      12.150 -26.874 -46.049  1.00148.65    -0.388 OA
HETATM   25  C10 MIQ B 502      13.264 -26.749 -46.883  1.00147.44     0.187 C 
HETATM   26  C11 MIQ B 502      13.090 -27.009 -48.376  1.00144.08     0.149 C 
ENDBRANCH   5  21
TORSDOF 2
ENDMDL
MODEL 3
REMARK VINA RESULT:      -5.5     13.273     15.654
REMARK  2 active torsions:
REMARK  status: ('A' for Active; 'I' for Inactive)
REMARK    1  A    between atoms: C5_5  and  N6_21 
REMARK    2  A    between atoms: C18_14  and  N17_19 
ROOT
HETATM    1  O1  MIQ B 502      12.804 -14.409 -51.592  1.00142.91    -0.171 OA
HETATM    2  C2  MIQ B 502      11.452 -14.588 -51.289  1.00141.17     0.195 A 
HETATM    3  C3  MIQ B 502      10.803 -14.482 -49.873  1.00141.71     0.035 A 
HETATM    4  C4  MIQ B 502      11.342 -14.185 -48.524  1.00142.86     0.046 A 
HETATM    5  C5  MIQ B 502      10.480 -14.158 -47.399  1.00139.53     0.031 A 
HETATM    6  C12 MIQ B 502       9.059 -14.422 -47.570  1.00139.38     0.030 A 
HETATM    7  C13 MIQ B 502       8.542 -14.705 -48.863  1.00141.18     0.019 A 
HETATM    8  C14 MIQ B 502       9.450 -14.730 -50.041  1.00138.77     0.033 A 
HETATM    9  C15 MIQ B 502       9.259 -14.991 -51.571  1.00142.10     0.195 A 
HETATM   10  N17 MIQ B 502      10.459 -14.872 -52.114  1.00139.42    -0.288 N 
HETATM   11  O16 MIQ B 502       8.063 -15.291 -52.225  1.00148.93    -0.171 OA
ENDROOT
BRANCH  10  12
HETATM   12  C18 MIQ B 502      10.669 -15.067 -53.537  1.00139.82     0.187 C 
HETATM   13  C19 MIQ B 502       9.708 -14.134 -54.283  1.00140.06     0.247 C 
HETATM   14  O25 MIQ B 502       9.675 -12.991 -53.995  1.00143.95    -0.271 OA
HETATM   15  N20 MIQ B 502       8.840 -14.617 -55.339  1.00140.02    -0.296 N 
HETATM   16  H13 MIQ B 502       8.212 -13.999 -55.814  1.00142.77     0.171 HD
HETATM   17  C21 MIQ B 502       8.891 -16.019 -55.665  1.00142.22     0.224 C 
HETATM   18  C22 MIQ B 502       9.170 -16.975 -54.521  1.00139.52     0.106 C 
HETATM   19  O24 MIQ B 502       8.729 -16.402 -56.771  1.00146.13    -0.273 OA
HETATM   20  C23 MIQ B 502      10.487 -16.538 -53.905  1.00139.15     0.045 C 
ENDBRANCH  10  12
BRANCH   5  21
HETATM   21  N6  MIQ B 502      11.024 -13.881 -46.081  1.00140.95    -0.377 N 
HETATM   22  C7  MIQ B 502      12.400 -14.256 -45.805  1.00142.12     0.149 C 
HETATM   23  C8  MIQ B 502      12.631 -14.517 -44.322  1.00144.10     0.187 C 
HETATM   24  O9  MIQ B 502      12.112 -13.510 -43.506  1.00148.65    -0.388 OA
HETATM   25  C10 MIQ B 502      11.278 -12.524 -44.041  1.00147.44     0.187 C 
HETATM   26  C11 MIQ B 502      10.396 -12.883 -45.233  1.00144.08     0.149 C 
ENDBRANCH   5  21
TORSDOF 2
ENDMDL
MODEL 4
REMARK VINA RESULT:      -5.5     15.060     16.829
REMARK  2 active torsions:
REMARK  status: ('A' for Active; 'I' for Inactive)
REMARK    1  A    between atoms: C5_5  and  N6_21 
REMARK    2  A    between atoms: C18_14  and  N17_19 
ROOT
HETATM    1  O1  MIQ B 502       6.814 -13.430 -47.924  1.00142.91    -0.171 OA
HETATM    2  C2  MIQ B 502       8.112 -13.091 -48.311  1.00141.17     0.195 A 
HETATM    3  C3  MIQ B 502       8.866 -13.618 -49.573  1.00141.71     0.035 A 
HETATM    4  C4  MIQ B 502       8.497 -14.550 -50.665  1.00142.86     0.046 A 
HETATM    5  C5  MIQ B 502       9.419 -14.841 -51.702  1.00139.53     0.031 A 
HETATM    6  C12 MIQ B 502      10.736 -14.219 -51.693  1.00139.38     0.030 A 
HETATM    7  C13 MIQ B 502      11.090 -13.325 -50.647  1.00141.18     0.019 A 
HETATM    8  C14 MIQ B 502      10.116 -13.022 -49.562  1.00138.77     0.033 A 
HETATM    9  C15 MIQ B 502      10.138 -12.118 -48.286  1.00142.10     0.195 A 
HETATM   10  N17 MIQ B 502       8.957 -12.269 -47.711  1.00139.42    -0.288 N 
HETATM   11  O16 MIQ B 502      11.195 -11.318 -47.847  1.00148.93    -0.171 OA
ENDROOT
BRANCH  10  12
HETATM   12  C18 MIQ B 502       8.621 -11.583 -46.478  1.00139.82     0.187 C 
HETATM   13  C19 MIQ B 502       8.158 -12.638 -45.466  1.00140.06     0.247 C 
HETATM   14  O25 MIQ B 502       8.832 -13.587 -45.274  1.00143.95    -0.271 OA
HETATM   15  N20 MIQ B 502       6.915 -12.501 -44.735  1.00140.02    -0.296 N 
HETATM   16  H13 MIQ B 502       6.620 -13.201 -44.083  1.00142.77     0.171 HD
HETATM   17  C21 MIQ B 502       6.103 -11.340 -44.996  1.00142.22     0.224 C 
HETATM   18  C22 MIQ B 502       6.124 -10.799 -46.412  1.00139.52     0.106 C 
HETATM   19  O24 MIQ B 502       5.459 -10.833 -44.144  1.00146.13    -0.273 OA
HETATM   20  C23 MIQ B 502       7.576 -10.500 -46.739  1.00139.15     0.045 C 
ENDBRANCH  10  12
BRANCH   5  21
HETATM   21  N6  MIQ B 502       9.050 -15.766 -52.757  1.00140.95    -0.377 N 
HETATM   22  C7  MIQ B 502      10.005 -16.024 -53.821  1.00142.12     0.149 C 
HETATM   23  C8  MIQ B 502       9.317 -16.443 -55.114  1.00144.10     0.187 C 
HETATM   24  O9  MIQ B 502       8.357 -17.439 -54.920  1.00148.65    -0.388 OA
HETATM   25  C10 MIQ B 502       7.956 -17.794 -53.629  1.00147.44     0.187 C 
HETATM   26  C11 MIQ B 502       7.984 -16.729 -52.538  1.00144.08     0.149 C 
ENDBRANCH   5  21
TORSDOF 2
ENDMDL
MODEL 5
REMARK VINA RESULT:      -5.4     13.480     16.449
REMARK  2 active torsions:
REMARK  status: ('A' for Active; 'I' for Inactive)
REMARK    1  A    between atoms: C5_5  and  N6_21 
REMARK    2  A    between atoms: C18_14  and  N17_19 
ROOT
HETATM    1  O1  MIQ B 502       0.408 -27.313 -48.567  1.00142.91    -0.171 OA
HETATM    2  C2  MIQ B 502      -0.867 -26.907 -48.166  1.00141.17     0.195 A 
HETATM    3  C3  MIQ B 502      -1.212 -26.091 -46.879  1.00141.71     0.035 A 
HETATM    4  C4  MIQ B 502      -0.394 -25.534 -45.776  1.00142.86     0.046 A 
HETATM    5  C5  MIQ B 502      -1.010 -24.819 -44.717  1.00139.53     0.031 A 
HETATM    6  C12 MIQ B 502      -2.453 -24.632 -44.715  1.00139.38     0.030 A 
HETATM    7  C13 MIQ B 502      -3.238 -25.166 -45.773  1.00141.18     0.019 A 
HETATM    8  C14 MIQ B 502      -2.586 -25.913 -46.883  1.00138.77     0.033 A 
HETATM    9  C15 MIQ B 502      -3.096 -26.621 -48.181  1.00142.10     0.195 A 
HETATM   10  N17 MIQ B 502      -2.022 -27.114 -48.774  1.00139.42    -0.288 N 
HETATM   11  O16 MIQ B 502      -4.419 -26.713 -48.617  1.00148.93    -0.171 OA
ENDROOT
BRANCH  10  12
HETATM   12  C18 MIQ B 502      -2.117 -27.861 -50.015  1.00139.82     0.187 C 
HETATM   13  C19 MIQ B 502      -1.333 -29.166 -49.837  1.00140.06     0.247 C 
HETATM   14  O25 MIQ B 502      -1.549 -29.845 -48.897  1.00143.95    -0.271 OA
HETATM   15  N20 MIQ B 502      -0.334 -29.594 -50.795  1.00140.02    -0.296 N 
HETATM   16  H13 MIQ B 502       0.176 -30.445 -50.664  1.00142.77     0.171 HD
HETATM   17  C21 MIQ B 502      -0.080 -28.743 -51.929  1.00142.22     0.224 C 
HETATM   18  C22 MIQ B 502      -0.212 -27.249 -51.703  1.00139.52     0.106 C 
HETATM   19  O24 MIQ B 502       0.211 -29.190 -52.984  1.00146.13    -0.273 OA
HETATM   20  C23 MIQ B 502      -1.619 -27.014 -51.184  1.00139.15     0.045 C 
ENDBRANCH  10  12
BRANCH   5  21
HETATM   21  N6  MIQ B 502      -0.198 -24.291 -43.636  1.00140.95    -0.377 N 
HETATM   22  C7  MIQ B 502       1.227 -24.576 -43.634  1.00142.12     0.149 C 
HETATM   23  C8  MIQ B 502       1.809 -24.554 -42.226  1.00144.10     0.187 C 
HETATM   24  O9  MIQ B 502       1.425 -23.427 -41.497  1.00148.65    -0.388 OA
HETATM   25  C10 MIQ B 502       0.427 -22.577 -41.981  1.00147.44     0.187 C 
HETATM   26  C11 MIQ B 502      -0.679 -23.170 -42.848  1.00144.08     0.149 C 
ENDBRANCH   5  21
TORSDOF 2
ENDMDL
MODEL 6
REMARK VINA RESULT:      -5.4     13.940     15.402
REMARK  2 active torsions:
REMARK  status: ('A' for Active; 'I' for Inactive)
REMARK    1  A    between atoms: C5_5  and  N6_21 
REMARK    2  A    between atoms: C18_14  and  N17_19 
ROOT
HETATM    1  O1  MIQ B 502      12.418 -14.092 -47.989  1.00142.91    -0.171 OA
HETATM    2  C2  MIQ B 502      11.058 -14.041 -47.675  1.00141.17     0.195 A 
HETATM    3  C3  MIQ B 502       9.878 -14.426 -48.623  1.00141.71     0.035 A 
HETATM    4  C4  MIQ B 502       9.812 -14.924 -50.018  1.00142.86     0.046 A 
HETATM    5  C5  MIQ B 502       8.559 -15.193 -50.624  1.00139.53     0.031 A 
HETATM    6  C12 MIQ B 502       7.332 -14.980 -49.872  1.00139.38     0.030 A 
HETATM    7  C13 MIQ B 502       7.394 -14.504 -48.534  1.00141.18     0.019 A 
HETATM    8  C14 MIQ B 502       8.713 -14.225 -47.902  1.00138.77     0.033 A 
HETATM    9  C15 MIQ B 502       9.172 -13.713 -46.498  1.00142.10     0.195 A 
HETATM   10  N17 MIQ B 502      10.493 -13.671 -46.539  1.00139.42    -0.288 N 
HETATM   11  O16 MIQ B 502       8.349 -13.369 -45.424  1.00148.93    -0.171 OA
ENDROOT
BRANCH  10  12
HETATM   12  C18 MIQ B 502      11.272 -13.221 -45.400  1.00139.82     0.187 C 
HETATM   13  C19 MIQ B 502      12.206 -12.104 -45.884  1.00140.06     0.247 C 
HETATM   14  O25 MIQ B 502      11.755 -11.201 -46.493  1.00143.95    -0.271 OA
HETATM   15  N20 MIQ B 502      13.628 -12.124 -45.607  1.00140.02    -0.296 N 
HETATM   16  H13 MIQ B 502      14.227 -11.393 -45.934  1.00142.77     0.171 HD
HETATM   17  C21 MIQ B 502      14.156 -13.243 -44.870  1.00142.22     0.224 C 
HETATM   18  C22 MIQ B 502      13.487 -14.585 -45.097  1.00139.52     0.106 C 
HETATM   19  O24 MIQ B 502      15.062 -13.118 -44.123  1.00146.13    -0.273 OA
HETATM   20  C23 MIQ B 502      12.017 -14.396 -44.768  1.00139.15     0.045 C 
ENDBRANCH  10  12
BRANCH   5  21
HETATM   21  N6  MIQ B 502       8.509 -15.665 -51.996  1.00140.95    -0.377 N 
HETATM   22  C7  MIQ B 502       7.741 -16.863 -52.290  1.00142.12     0.149 C 
HETATM   23  C8  MIQ B 502       8.267 -17.587 -53.523  1.00144.10     0.187 C 
HETATM   24  O9  MIQ B 502       8.478 -16.732 -54.607  1.00148.65    -0.388 OA
HETATM   25  C10 MIQ B 502       8.420 -15.346 -54.437  1.00147.44     0.187 C 
HETATM   26  C11 MIQ B 502       8.821 -14.759 -53.087  1.00144.08     0.149 C 
ENDBRANCH   5  21
TORSDOF 2
ENDMDL
MODEL 7
REMARK VINA RESULT:      -5.4     13.502     15.851
REMARK  2 active torsions:
REMARK  status: ('A' for Active; 'I' for Inactive)
REMARK    1  A    between atoms: C5_5  and  N6_21 
REMARK    2  A    between atoms: C18_14  and  N17_19 
ROOT
HETATM    1  O1  MIQ B 502      10.441 -15.275 -52.299  1.00142.91    -0.171 OA
HETATM    2  C2  MIQ B 502       9.474 -14.857 -51.383  1.00141.17     0.195 A 
HETATM    3  C3  MIQ B 502       9.703 -14.572 -49.864  1.00141.71     0.035 A 
HETATM    4  C4  MIQ B 502      10.893 -14.639 -48.983  1.00142.86     0.046 A 
HETATM    5  C5  MIQ B 502      10.786 -14.311 -47.608  1.00139.53     0.031 A 
HETATM    6  C12 MIQ B 502       9.500 -13.904 -47.060  1.00139.38     0.030 A 
HETATM    7  C13 MIQ B 502       8.360 -13.838 -47.905  1.00141.18     0.019 A 
HETATM    8  C14 MIQ B 502       8.478 -14.182 -49.348  1.00138.77     0.033 A 
HETATM    9  C15 MIQ B 502       7.483 -14.224 -50.553  1.00142.10     0.195 A 
HETATM   10  N17 MIQ B 502       8.192 -14.613 -51.600  1.00139.42    -0.288 N 
HETATM   11  O16 MIQ B 502       6.121 -13.916 -50.524  1.00148.93    -0.171 OA
ENDROOT
BRANCH  10  12
HETATM   12  C18 MIQ B 502       7.585 -14.781 -52.907  1.00139.82     0.187 C 
HETATM   13  C19 MIQ B 502       7.938 -16.186 -53.410  1.00140.06     0.247 C 
HETATM   14  O25 MIQ B 502       7.741 -17.115 -52.710  1.00143.95    -0.271 OA
HETATM   15  N20 MIQ B 502       8.504 -16.407 -54.725  1.00140.02    -0.296 N 
HETATM   16  H13 MIQ B 502       8.736 -17.328 -55.039  1.00142.77     0.171 HD
HETATM   17  C21 MIQ B 502       8.745 -15.256 -55.557  1.00142.22     0.224 C 
HETATM   18  C22 MIQ B 502       9.145 -13.976 -54.850  1.00139.52     0.106 C 
HETATM   19  O24 MIQ B 502       8.631 -15.308 -56.732  1.00146.13    -0.273 OA
HETATM   20  C23 MIQ B 502       8.042 -13.671 -53.852  1.00139.15     0.045 C 
ENDBRANCH  10  12
BRANCH   5  21
HETATM   21  N6  MIQ B 502      11.957 -14.395 -46.754  1.00140.95    -0.377 N 
HETATM   22  C7  MIQ B 502      13.271 -14.380 -47.373  1.00142.12     0.149 C 
HETATM   23  C8  MIQ B 502      14.310 -15.095 -46.519  1.00144.10     0.187 C 
HETATM   24  O9  MIQ B 502      14.277 -14.702 -45.179  1.00148.65    -0.388 OA
HETATM   25  C10 MIQ B 502      13.227 -13.915 -44.699  1.00147.44     0.187 C 
HETATM   26  C11 MIQ B 502      11.853 -14.058 -45.345  1.00144.08     0.149 C 
ENDBRANCH   5  21
TORSDOF 2
ENDMDL
MODEL 8
REMARK VINA RESULT:      -5.4      5.453      7.672
REMARK  2 active torsions:
REMARK  status: ('A' for Active; 'I' for Inactive)
REMARK    1  A    between atoms: C5_5  and  N6_21 
REMARK    2  A    between atoms: C18_14  and  N17_19 
ROOT
HETATM    1  O1  MIQ B 502      11.022 -27.256 -45.794  1.00142.91    -0.171 OA
HETATM    2  C2  MIQ B 502      12.202 -26.968 -46.484  1.00141.17     0.195 A 
HETATM    3  C3  MIQ B 502      12.516 -27.336 -47.969  1.00141.71     0.035 A 
HETATM    4  C4  MIQ B 502      11.752 -28.035 -49.029  1.00142.86     0.046 A 
HETATM    5  C5  MIQ B 502      12.318 -28.222 -50.315  1.00139.53     0.031 A 
HETATM    6  C12 MIQ B 502      13.657 -27.725 -50.595  1.00139.38     0.030 A 
HETATM    7  C13 MIQ B 502      14.390 -27.054 -49.579  1.00141.18     0.019 A 
HETATM    8  C14 MIQ B 502      13.790 -26.858 -48.231  1.00138.77     0.033 A 
HETATM    9  C15 MIQ B 502      14.269 -26.188 -46.902  1.00142.10     0.195 A 
HETATM   10  N17 MIQ B 502      13.275 -26.334 -46.041  1.00139.42    -0.288 N 
HETATM   11  O16 MIQ B 502      15.498 -25.567 -46.674  1.00148.93    -0.171 OA
ENDROOT
BRANCH  10  12
HETATM   12  C18 MIQ B 502      13.373 -25.841 -44.680  1.00139.82     0.187 C 
HETATM   13  C19 MIQ B 502      13.069 -27.010 -43.736  1.00140.06     0.247 C 
HETATM   14  O25 MIQ B 502      13.646 -28.029 -43.877  1.00143.95    -0.271 OA
HETATM   15  N20 MIQ B 502      12.097 -26.897 -42.668  1.00140.02    -0.296 N 
HETATM   16  H13 MIQ B 502      11.903 -27.670 -42.062  1.00142.77     0.171 HD
HETATM   17  C21 MIQ B 502      11.398 -25.646 -42.522  1.00142.22     0.224 C 
HETATM   18  C22 MIQ B 502      11.104 -24.877 -43.795  1.00139.52     0.106 C 
HETATM   19  O24 MIQ B 502      11.076 -25.239 -41.460  1.00146.13    -0.273 OA
HETATM   20  C23 MIQ B 502      12.440 -24.647 -44.478  1.00139.15     0.045 C 
ENDBRANCH  10  12
BRANCH   5  21
HETATM   21  N6  MIQ B 502      11.564 -28.922 -51.340  1.00140.95    -0.377 N 
HETATM   22  C7  MIQ B 502      10.125 -29.045 -51.180  1.00142.12     0.149 C 
HETATM   23  C8  MIQ B 502       9.577 -30.272 -51.898  1.00144.10     0.187 C 
HETATM   24  O9  MIQ B 502      10.044 -30.388 -53.209  1.00148.65    -0.388 OA
HETATM   25  C10 MIQ B 502      11.080 -29.570 -53.666  1.00147.44     0.187 C 
HETATM   26  C11 MIQ B 502      12.129 -29.094 -52.667  1.00144.08     0.149 C 
ENDBRANCH   5  21
TORSDOF 2
ENDMDL
MODEL 9
REMARK VINA RESULT:      -5.3      4.139      7.014
REMARK  2 active torsions:
REMARK  status: ('A' for Active; 'I' for Inactive)
REMARK    1  A    between atoms: C5_5  and  N6_21 
REMARK    2  A    between atoms: C18_14  and  N17_19 
ROOT
HETATM    1  O1  MIQ B 502       7.807 -28.754 -55.485  1.00142.91    -0.171 OA
HETATM    2  C2  MIQ B 502       7.721 -29.896 -54.685  1.00141.17     0.195 A 
HETATM    3  C3  MIQ B 502       6.617 -30.998 -54.766  1.00141.71     0.035 A 
HETATM    4  C4  MIQ B 502       5.424 -31.184 -55.625  1.00142.86     0.046 A 
HETATM    5  C5  MIQ B 502       4.589 -32.317 -55.458  1.00139.53     0.031 A 
HETATM    6  C12 MIQ B 502       4.907 -33.304 -54.435  1.00139.38     0.030 A 
HETATM    7  C13 MIQ B 502       6.052 -33.126 -53.612  1.00141.18     0.019 A 
HETATM    8  C14 MIQ B 502       6.925 -31.935 -53.794  1.00138.77     0.033 A 
HETATM    9  C15 MIQ B 502       8.229 -31.413 -53.106  1.00142.10     0.195 A 
HETATM   10  N17 MIQ B 502       8.536 -30.281 -53.717  1.00139.42    -0.288 N 
HETATM   11  O16 MIQ B 502       8.922 -32.021 -52.058  1.00148.93    -0.171 OA
ENDROOT
BRANCH  10  12
HETATM   12  C18 MIQ B 502       9.693 -29.498 -53.326  1.00139.82     0.187 C 
HETATM   13  C19 MIQ B 502      10.923 -30.411 -53.406  1.00140.06     0.247 C 
HETATM   14  O25 MIQ B 502      11.121 -31.027 -54.393  1.00143.95    -0.271 OA
HETATM   15  N20 MIQ B 502      11.855 -30.535 -52.304  1.00140.02    -0.296 N 
HETATM   16  H13 MIQ B 502      12.650 -31.140 -52.366  1.00142.77     0.171 HD
HETATM   17  C21 MIQ B 502      11.587 -29.782 -51.106  1.00142.22     0.224 C 
HETATM   18  C22 MIQ B 502      10.129 -29.572 -50.745  1.00139.52     0.106 C 
HETATM   19  O24 MIQ B 502      12.462 -29.345 -50.442  1.00146.13    -0.273 OA
HETATM   20  C23 MIQ B 502       9.483 -28.893 -51.939  1.00139.15     0.045 C 
ENDBRANCH  10  12
BRANCH   5  21
HETATM   21  N6  MIQ B 502       3.416 -32.479 -56.297  1.00140.95    -0.377 N 
HETATM   22  C7  MIQ B 502       3.578 -33.080 -57.609  1.00142.12     0.149 C 
HETATM   23  C8  MIQ B 502       2.501 -32.620 -58.583  1.00144.10     0.187 C 
HETATM   24  O9  MIQ B 502       1.214 -32.698 -58.046  1.00148.65    -0.388 OA
HETATM   25  C10 MIQ B 502       1.030 -32.951 -56.684  1.00147.44     0.187 C 
HETATM   26  C11 MIQ B 502       2.091 -32.467 -55.702  1.00144.08     0.149 C 
ENDBRANCH   5  21
TORSDOF 2
ENDMDL
