MODEL 1
REMARK VINA RESULT:      -6.3      0.000      0.000
REMARK  2 active torsions:
REMARK  status: ('A' for Active; 'I' for Inactive)
REMARK    1  A    between atoms: C5_5  and  N6_21 
REMARK    2  A    between atoms: C18_14  and  N17_19 
ROOT
HETATM    1  O1  MIQ B 502     -15.098 -34.659 -13.729  1.00142.91    -0.171 OA
HETATM    2  C2  MIQ B 502     -16.313 -35.173 -13.271  1.00141.17     0.195 A 
HETATM    3  C3  MIQ B 502     -16.713 -36.682 -13.214  1.00141.71     0.035 A 
HETATM    4  C4  MIQ B 502     -16.014 -37.936 -13.582  1.00142.86     0.046 A 
HETATM    5  C5  MIQ B 502     -16.653 -39.190 -13.409  1.00139.53     0.031 A 
HETATM    6  C12 MIQ B 502     -18.003 -39.244 -12.866  1.00139.38     0.030 A 
HETATM    7  C13 MIQ B 502     -18.673 -38.042 -12.511  1.00141.18     0.019 A 
HETATM    8  C14 MIQ B 502     -17.996 -36.729 -12.693  1.00138.77     0.033 A 
HETATM    9  C15 MIQ B 502     -18.394 -35.241 -12.425  1.00142.10     0.195 A 
HETATM   10  N17 MIQ B 502     -17.355 -34.512 -12.795  1.00139.42    -0.288 N 
HETATM   11  O16 MIQ B 502     -19.604 -34.781 -11.903  1.00148.93    -0.171 OA
ENDROOT
BRANCH  10  12
HETATM   12  C18 MIQ B 502     -17.373 -33.064 -12.702  1.00139.82     0.187 C 
HETATM   13  C19 MIQ B 502     -17.003 -32.502 -14.080  1.00140.06     0.247 C 
HETATM   14  O25 MIQ B 502     -17.580 -32.889 -15.034  1.00143.95    -0.271 OA
HETATM   15  N20 MIQ B 502     -15.967 -31.502 -14.244  1.00140.02    -0.296 N 
HETATM   16  H13 MIQ B 502     -15.731 -31.148 -15.150  1.00142.77     0.171 HD
HETATM   17  C21 MIQ B 502     -15.270 -31.054 -13.066  1.00142.22     0.224 C 
HETATM   18  C22 MIQ B 502     -15.061 -32.077 -11.967  1.00139.52     0.106 C 
HETATM   19  O24 MIQ B 502     -14.886 -29.941 -12.962  1.00146.13    -0.273 OA
HETATM   20  C23 MIQ B 502     -16.438 -32.592 -11.589  1.00139.15     0.045 C 
ENDBRANCH  10  12
BRANCH   5  21
HETATM   21  N6  MIQ B 502     -15.963 -40.409 -13.788  1.00140.95    -0.377 N 
HETATM   22  C7  MIQ B 502     -16.180 -40.945 -15.121  1.00142.12     0.149 C 
HETATM   23  C8  MIQ B 502     -15.962 -42.451 -15.171  1.00144.10     0.187 C 
HETATM   24  O9  MIQ B 502     -14.774 -42.850 -14.554  1.00148.65    -0.388 OA
HETATM   25  C10 MIQ B 502     -14.036 -41.943 -13.790  1.00147.44     0.187 C 
HETATM   26  C11 MIQ B 502     -14.778 -40.829 -13.060  1.00144.08     0.149 C 
ENDBRANCH   5  21
TORSDOF 2
ENDMDL
MODEL 2
REMARK VINA RESULT:      -6.3     12.792     16.870
REMARK  2 active torsions:
REMARK  status: ('A' for Active; 'I' for Inactive)
REMARK    1  A    between atoms: C5_5  and  N6_21 
REMARK    2  A    between atoms: C18_14  and  N17_19 
ROOT
HETATM    1  O1  MIQ B 502     -22.012 -24.690  -5.990  1.00142.91    -0.171 OA
HETATM    2  C2  MIQ B 502     -23.116 -25.537  -6.112  1.00141.17     0.195 A 
HETATM    3  C3  MIQ B 502     -24.575 -25.106  -6.467  1.00141.71     0.035 A 
HETATM    4  C4  MIQ B 502     -25.207 -23.799  -6.763  1.00142.86     0.046 A 
HETATM    5  C5  MIQ B 502     -26.592 -23.724  -7.059  1.00139.53     0.031 A 
HETATM    6  C12 MIQ B 502     -27.395 -24.938  -7.072  1.00139.38     0.030 A 
HETATM    7  C13 MIQ B 502     -26.789 -26.191  -6.789  1.00141.18     0.019 A 
HETATM    8  C14 MIQ B 502     -25.334 -26.265  -6.481  1.00138.77     0.033 A 
HETATM    9  C15 MIQ B 502     -24.341 -27.421  -6.134  1.00142.10     0.195 A 
HETATM   10  N17 MIQ B 502     -23.161 -26.850  -5.963  1.00139.42    -0.288 N 
HETATM   11  O16 MIQ B 502     -24.645 -28.779  -6.025  1.00148.93    -0.171 OA
ENDROOT
BRANCH  10  12
HETATM   12  C18 MIQ B 502     -21.987 -27.627  -5.610  1.00139.82     0.187 C 
HETATM   13  C19 MIQ B 502     -21.419 -27.050  -4.308  1.00140.06     0.247 C 
HETATM   14  O25 MIQ B 502     -22.137 -26.893  -3.385  1.00143.95    -0.271 OA
HETATM   15  N20 MIQ B 502     -20.020 -26.697  -4.175  1.00140.02    -0.296 N 
HETATM   16  H13 MIQ B 502     -19.662 -26.314  -3.322  1.00142.77     0.171 HD
HETATM   17  C21 MIQ B 502     -19.165 -26.887  -5.319  1.00142.22     0.224 C 
HETATM   18  C22 MIQ B 502     -19.795 -26.679  -6.683  1.00139.52     0.106 C 
HETATM   19  O24 MIQ B 502     -18.031 -27.197  -5.198  1.00146.13    -0.273 OA
HETATM   20  C23 MIQ B 502     -20.981 -27.623  -6.759  1.00139.15     0.045 C 
ENDBRANCH  10  12
BRANCH   5  21
HETATM   21  N6  MIQ B 502     -27.201 -22.435  -7.333  1.00140.95    -0.377 N 
HETATM   22  C7  MIQ B 502     -26.440 -21.452  -8.084  1.00142.12     0.149 C 
HETATM   23  C8  MIQ B 502     -26.869 -20.028  -7.755  1.00144.10     0.187 C 
HETATM   24  O9  MIQ B 502     -28.254 -19.858  -7.783  1.00148.65    -0.388 OA
HETATM   25  C10 MIQ B 502     -29.102 -20.965  -7.876  1.00147.44     0.187 C 
HETATM   26  C11 MIQ B 502     -28.645 -22.286  -7.266  1.00144.08     0.149 C 
ENDBRANCH   5  21
TORSDOF 2
ENDMDL
MODEL 3
REMARK VINA RESULT:      -6.0     13.662     17.217
REMARK  2 active torsions:
REMARK  status: ('A' for Active; 'I' for Inactive)
REMARK    1  A    between atoms: C5_5  and  N6_21 
REMARK    2  A    between atoms: C18_14  and  N17_19 
ROOT
HETATM    1  O1  MIQ B 502     -25.857 -27.616  -3.948  1.00142.91    -0.171 OA
HETATM    2  C2  MIQ B 502     -24.616 -27.307  -4.508  1.00141.17     0.195 A 
HETATM    3  C3  MIQ B 502     -24.228 -25.965  -5.207  1.00141.71     0.035 A 
HETATM    4  C4  MIQ B 502     -24.963 -24.707  -5.477  1.00142.86     0.046 A 
HETATM    5  C5  MIQ B 502     -24.325 -23.634  -6.149  1.00139.53     0.031 A 
HETATM    6  C12 MIQ B 502     -22.939 -23.770  -6.574  1.00139.38     0.030 A 
HETATM    7  C13 MIQ B 502     -22.233 -24.975  -6.314  1.00141.18     0.019 A 
HETATM    8  C14 MIQ B 502     -22.908 -26.098  -5.607  1.00138.77     0.033 A 
HETATM    9  C15 MIQ B 502     -22.474 -27.530  -5.153  1.00142.10     0.195 A 
HETATM   10  N17 MIQ B 502     -23.531 -28.061  -4.562  1.00139.42    -0.288 N 
HETATM   11  O16 MIQ B 502     -21.224 -28.123  -5.340  1.00148.93    -0.171 OA
ENDROOT
BRANCH  10  12
HETATM   12  C18 MIQ B 502     -23.500 -29.408  -4.022  1.00139.82     0.187 C 
HETATM   13  C19 MIQ B 502     -24.677 -30.182  -4.628  1.00140.06     0.247 C 
HETATM   14  O25 MIQ B 502     -24.827 -30.180  -5.798  1.00143.95    -0.271 OA
HETATM   15  N20 MIQ B 502     -25.610 -30.922  -3.802  1.00140.02    -0.296 N 
HETATM   16  H13 MIQ B 502     -26.378 -31.418  -4.209  1.00142.77     0.171 HD
HETATM   17  C21 MIQ B 502     -25.412 -30.901  -2.376  1.00142.22     0.224 C 
HETATM   18  C22 MIQ B 502     -24.844 -29.625  -1.786  1.00139.52     0.106 C 
HETATM   19  O24 MIQ B 502     -25.674 -31.836  -1.702  1.00146.13    -0.273 OA
HETATM   20  C23 MIQ B 502     -23.527 -29.370  -2.495  1.00139.15     0.045 C 
ENDBRANCH  10  12
BRANCH   5  21
HETATM   21  N6  MIQ B 502     -25.062 -22.413  -6.420  1.00140.95    -0.377 N 
HETATM   22  C7  MIQ B 502     -26.263 -22.493  -7.234  1.00142.12     0.149 C 
HETATM   23  C8  MIQ B 502     -26.549 -21.182  -7.955  1.00144.10     0.187 C 
HETATM   24  O9  MIQ B 502     -26.471 -20.071  -7.114  1.00148.65    -0.388 OA
HETATM   25  C10 MIQ B 502     -25.952 -20.195  -5.823  1.00147.44     0.187 C 
HETATM   26  C11 MIQ B 502     -24.883 -21.253  -5.565  1.00144.08     0.149 C 
ENDBRANCH   5  21
TORSDOF 2
ENDMDL
MODEL 4
REMARK VINA RESULT:      -5.9     13.205     17.350
REMARK  2 active torsions:
REMARK  status: ('A' for Active; 'I' for Inactive)
REMARK    1  A    between atoms: C5_5  and  N6_21 
REMARK    2  A    between atoms: C18_14  and  N17_19 
ROOT
HETATM    1  O1  MIQ B 502     -25.552 -27.580  -6.437  1.00142.91    -0.171 OA
HETATM    2  C2  MIQ B 502     -24.785 -26.416  -6.344  1.00141.17     0.195 A 
HETATM    3  C3  MIQ B 502     -25.305 -24.953  -6.518  1.00141.71     0.035 A 
HETATM    4  C4  MIQ B 502     -26.639 -24.373  -6.804  1.00142.86     0.046 A 
HETATM    5  C5  MIQ B 502     -26.802 -22.968  -6.904  1.00139.53     0.031 A 
HETATM    6  C12 MIQ B 502     -25.653 -22.092  -6.724  1.00139.38     0.030 A 
HETATM    7  C13 MIQ B 502     -24.375 -22.648  -6.448  1.00141.18     0.019 A 
HETATM    8  C14 MIQ B 502     -24.210 -24.124  -6.342  1.00138.77     0.033 A 
HETATM    9  C15 MIQ B 502     -23.003 -25.077  -6.057  1.00142.10     0.195 A 
HETATM   10  N17 MIQ B 502     -23.493 -26.305  -6.091  1.00139.42    -0.288 N 
HETATM   11  O16 MIQ B 502     -21.680 -24.702  -5.818  1.00148.93    -0.171 OA
ENDROOT
BRANCH  10  12
HETATM   12  C18 MIQ B 502     -22.645 -27.464  -5.882  1.00139.82     0.187 C 
HETATM   13  C19 MIQ B 502     -21.908 -27.271  -4.551  1.00140.06     0.247 C 
HETATM   14  O25 MIQ B 502     -22.527 -26.999  -3.584  1.00143.95    -0.271 OA
HETATM   15  N20 MIQ B 502     -20.471 -27.420  -4.444  1.00140.02    -0.296 N 
HETATM   16  H13 MIQ B 502     -20.002 -27.285  -3.571  1.00142.77     0.171 HD
HETATM   17  C21 MIQ B 502     -19.736 -27.742  -5.640  1.00142.22     0.224 C 
HETATM   18  C22 MIQ B 502     -20.268 -27.172  -6.941  1.00139.52     0.106 C 
HETATM   19  O24 MIQ B 502     -18.770 -28.422  -5.607  1.00146.13    -0.273 OA
HETATM   20  C23 MIQ B 502     -21.702 -27.653  -7.069  1.00139.15     0.045 C 
ENDBRANCH  10  12
BRANCH   5  21
HETATM   21  N6  MIQ B 502     -28.111 -22.414  -7.200  1.00140.95    -0.377 N 
HETATM   22  C7  MIQ B 502     -29.236 -22.807  -6.369  1.00142.12     0.149 C 
HETATM   23  C8  MIQ B 502     -30.558 -22.710  -7.118  1.00144.10     0.187 C 
HETATM   24  O9  MIQ B 502     -30.711 -21.498  -7.795  1.00148.65    -0.388 OA
HETATM   25  C10 MIQ B 502     -29.633 -20.618  -7.923  1.00147.44     0.187 C 
HETATM   26  C11 MIQ B 502     -28.223 -21.195  -7.982  1.00144.08     0.149 C 
ENDBRANCH   5  21
TORSDOF 2
ENDMDL
MODEL 5
REMARK VINA RESULT:      -5.8     12.473     16.060
REMARK  2 active torsions:
REMARK  status: ('A' for Active; 'I' for Inactive)
REMARK    1  A    between atoms: C5_5  and  N6_21 
REMARK    2  A    between atoms: C18_14  and  N17_19 
ROOT
HETATM    1  O1  MIQ B 502     -20.436 -25.286  -5.019  1.00142.91    -0.171 OA
HETATM    2  C2  MIQ B 502     -21.478 -26.159  -5.337  1.00141.17     0.195 A 
HETATM    3  C3  MIQ B 502     -22.899 -25.754  -5.844  1.00141.71     0.035 A 
HETATM    4  C4  MIQ B 502     -23.545 -24.451  -6.129  1.00142.86     0.046 A 
HETATM    5  C5  MIQ B 502     -24.884 -24.401  -6.592  1.00139.53     0.031 A 
HETATM    6  C12 MIQ B 502     -25.627 -25.638  -6.789  1.00139.38     0.030 A 
HETATM    7  C13 MIQ B 502     -25.007 -26.887  -6.517  1.00141.18     0.019 A 
HETATM    8  C14 MIQ B 502     -23.600 -26.933  -6.033  1.00138.77     0.033 A 
HETATM    9  C15 MIQ B 502     -22.609 -28.078  -5.642  1.00142.10     0.195 A 
HETATM   10  N17 MIQ B 502     -21.485 -27.480  -5.284  1.00139.42    -0.288 N 
HETATM   11  O16 MIQ B 502     -22.866 -29.449  -5.664  1.00148.93    -0.171 OA
ENDROOT
BRANCH  10  12
HETATM   12  C18 MIQ B 502     -20.332 -28.240  -4.838  1.00139.82     0.187 C 
HETATM   13  C19 MIQ B 502     -19.985 -27.775  -3.419  1.00140.06     0.247 C 
HETATM   14  O25 MIQ B 502     -20.834 -27.742  -2.600  1.00143.95    -0.271 OA
HETATM   15  N20 MIQ B 502     -18.641 -27.380  -3.052  1.00140.02    -0.296 N 
HETATM   16  H13 MIQ B 502     -18.429 -27.072  -2.123  1.00142.77     0.171 HD
HETATM   17  C21 MIQ B 502     -17.624 -27.419  -4.071  1.00142.22     0.224 C 
HETATM   18  C22 MIQ B 502     -18.066 -27.100  -5.486  1.00139.52     0.106 C 
HETATM   19  O24 MIQ B 502     -16.503 -27.693  -3.815  1.00146.13    -0.273 OA
HETATM   20  C23 MIQ B 502     -19.175 -28.079  -5.823  1.00139.15     0.045 C 
ENDBRANCH  10  12
BRANCH   5  21
HETATM   21  N6  MIQ B 502     -25.510 -23.118  -6.853  1.00140.95    -0.377 N 
HETATM   22  C7  MIQ B 502     -26.843 -23.099  -7.430  1.00142.12     0.149 C 
HETATM   23  C8  MIQ B 502     -27.103 -21.824  -8.221  1.00144.10     0.187 C 
HETATM   24  O9  MIQ B 502     -26.738 -20.669  -7.526  1.00148.65    -0.388 OA
HETATM   25  C10 MIQ B 502     -26.003 -20.760  -6.341  1.00147.44     0.187 C 
HETATM   26  C11 MIQ B 502     -25.037 -21.927  -6.168  1.00144.08     0.149 C 
ENDBRANCH   5  21
TORSDOF 2
ENDMDL
MODEL 6
REMARK VINA RESULT:      -5.8     13.426     16.523
REMARK  2 active torsions:
REMARK  status: ('A' for Active; 'I' for Inactive)
REMARK    1  A    between atoms: C5_5  and  N6_21 
REMARK    2  A    between atoms: C18_14  and  N17_19 
ROOT
HETATM    1  O1  MIQ B 502     -24.519 -22.019  -5.581  1.00142.91    -0.171 OA
HETATM    2  C2  MIQ B 502     -24.918 -23.293  -5.992  1.00141.17     0.195 A 
HETATM    3  C3  MIQ B 502     -24.001 -24.552  -6.112  1.00141.71     0.035 A 
HETATM    4  C4  MIQ B 502     -22.561 -24.793  -5.855  1.00142.86     0.046 A 
HETATM    5  C5  MIQ B 502     -22.002 -26.079  -6.059  1.00139.53     0.031 A 
HETATM    6  C12 MIQ B 502     -22.848 -27.170  -6.523  1.00139.38     0.030 A 
HETATM    7  C13 MIQ B 502     -24.229 -26.940  -6.768  1.00141.18     0.019 A 
HETATM    8  C14 MIQ B 502     -24.811 -25.587  -6.549  1.00138.77     0.033 A 
HETATM    9  C15 MIQ B 502     -26.238 -24.968  -6.702  1.00142.10     0.195 A 
HETATM   10  N17 MIQ B 502     -26.124 -23.697  -6.352  1.00139.42    -0.288 N 
HETATM   11  O16 MIQ B 502     -27.395 -25.626  -7.124  1.00148.93    -0.171 OA
ENDROOT
BRANCH  10  12
HETATM   12  C18 MIQ B 502     -27.261 -22.797  -6.387  1.00139.82     0.187 C 
HETATM   13  C19 MIQ B 502     -26.860 -21.568  -7.212  1.00140.06     0.247 C 
HETATM   14  O25 MIQ B 502     -26.389 -21.722  -8.282  1.00143.95    -0.271 OA
HETATM   15  N20 MIQ B 502     -27.050 -20.220  -6.717  1.00140.02    -0.296 N 
HETATM   16  H13 MIQ B 502     -26.779 -19.426  -7.263  1.00142.77     0.171 HD
HETATM   17  C21 MIQ B 502     -27.619 -20.058  -5.404  1.00142.22     0.224 C 
HETATM   18  C22 MIQ B 502     -27.273 -21.118  -4.376  1.00139.52     0.106 C 
HETATM   19  O24 MIQ B 502     -28.323 -19.145  -5.144  1.00146.13    -0.273 OA
HETATM   20  C23 MIQ B 502     -27.706 -22.448  -4.967  1.00139.15     0.045 C 
ENDBRANCH  10  12
BRANCH   5  21
HETATM   21  N6  MIQ B 502     -20.587 -26.297  -5.818  1.00140.95    -0.377 N 
HETATM   22  C7  MIQ B 502     -19.915 -27.363  -6.542  1.00142.12     0.149 C 
HETATM   23  C8  MIQ B 502     -18.709 -27.895  -5.779  1.00144.10     0.187 C 
HETATM   24  O9  MIQ B 502     -17.876 -26.880  -5.303  1.00148.65    -0.388 OA
HETATM   25  C10 MIQ B 502     -18.289 -25.546  -5.350  1.00147.44     0.187 C 
HETATM   26  C11 MIQ B 502     -19.778 -25.238  -5.240  1.00144.08     0.149 C 
ENDBRANCH   5  21
TORSDOF 2
ENDMDL
MODEL 7
REMARK VINA RESULT:      -5.7      7.809      8.885
REMARK  2 active torsions:
REMARK  status: ('A' for Active; 'I' for Inactive)
REMARK    1  A    between atoms: C5_5  and  N6_21 
REMARK    2  A    between atoms: C18_14  and  N17_19 
ROOT
HETATM    1  O1  MIQ B 502     -23.382 -34.466 -19.818  1.00142.91    -0.171 OA
HETATM    2  C2  MIQ B 502     -22.015 -34.748 -19.757  1.00141.17     0.195 A 
HETATM    3  C3  MIQ B 502     -21.355 -36.154 -19.924  1.00141.71     0.035 A 
HETATM    4  C4  MIQ B 502     -21.897 -37.510 -20.178  1.00142.86     0.046 A 
HETATM    5  C5  MIQ B 502     -21.024 -38.622 -20.284  1.00139.53     0.031 A 
HETATM    6  C12 MIQ B 502     -19.588 -38.429 -20.143  1.00139.38     0.030 A 
HETATM    7  C13 MIQ B 502     -19.068 -37.129 -19.901  1.00141.18     0.019 A 
HETATM    8  C14 MIQ B 502     -19.989 -35.965 -19.793  1.00138.77     0.033 A 
HETATM    9  C15 MIQ B 502     -19.800 -34.433 -19.544  1.00142.10     0.195 A 
HETATM   10  N17 MIQ B 502     -21.014 -33.908 -19.556  1.00139.42    -0.288 N 
HETATM   11  O16 MIQ B 502     -18.593 -33.761 -19.346  1.00148.93    -0.171 OA
ENDROOT
BRANCH  10  12
HETATM   12  C18 MIQ B 502     -21.229 -32.490 -19.339  1.00139.82     0.187 C 
HETATM   13  C19 MIQ B 502     -22.284 -32.339 -18.237  1.00140.06     0.247 C 
HETATM   14  O25 MIQ B 502     -22.144 -32.924 -17.222  1.00143.95    -0.271 OA
HETATM   15  N20 MIQ B 502     -23.448 -31.494 -18.404  1.00140.02    -0.296 N 
HETATM   16  H13 MIQ B 502     -24.133 -31.409 -17.679  1.00142.77     0.171 HD
HETATM   17  C21 MIQ B 502     -23.603 -30.799 -19.656  1.00142.22     0.224 C 
HETATM   18  C22 MIQ B 502     -23.091 -31.506 -20.896  1.00139.52     0.106 C 
HETATM   19  O24 MIQ B 502     -24.099 -29.727 -19.711  1.00146.13    -0.273 OA
HETATM   20  C23 MIQ B 502     -21.624 -31.805 -20.647  1.00139.15     0.045 C 
ENDBRANCH  10  12
BRANCH   5  21
HETATM   21  N6  MIQ B 502     -21.569 -39.947 -20.518  1.00140.95    -0.377 N 
HETATM   22  C7  MIQ B 502     -21.994 -40.295 -21.863  1.00142.12     0.149 C 
HETATM   23  C8  MIQ B 502     -23.079 -41.365 -21.858  1.00144.10     0.187 C 
HETATM   24  O9  MIQ B 502     -22.772 -42.446 -21.030  1.00148.65    -0.388 OA
HETATM   25  C10 MIQ B 502     -21.686 -42.380 -20.152  1.00147.44     0.187 C 
HETATM   26  C11 MIQ B 502     -21.292 -41.022 -19.582  1.00144.08     0.149 C 
ENDBRANCH   5  21
TORSDOF 2
ENDMDL
MODEL 8
REMARK VINA RESULT:      -5.7      1.779      7.840
REMARK  2 active torsions:
REMARK  status: ('A' for Active; 'I' for Inactive)
REMARK    1  A    between atoms: C5_5  and  N6_21 
REMARK    2  A    between atoms: C18_14  and  N17_19 
ROOT
HETATM    1  O1  MIQ B 502     -14.585 -37.508 -14.138  1.00142.91    -0.171 OA
HETATM    2  C2  MIQ B 502     -15.835 -37.204 -13.594  1.00141.17     0.195 A 
HETATM    3  C3  MIQ B 502     -16.362 -35.778 -13.234  1.00141.71     0.035 A 
HETATM    4  C4  MIQ B 502     -15.780 -34.420 -13.340  1.00142.86     0.046 A 
HETATM    5  C5  MIQ B 502     -16.522 -33.287 -12.922  1.00139.53     0.031 A 
HETATM    6  C12 MIQ B 502     -17.865 -33.461 -12.385  1.00139.38     0.030 A 
HETATM    7  C13 MIQ B 502     -18.424 -34.763 -12.284  1.00141.18     0.019 A 
HETATM    8  C14 MIQ B 502     -17.640 -35.948 -12.727  1.00138.77     0.033 A 
HETATM    9  C15 MIQ B 502     -17.908 -37.488 -12.773  1.00142.10     0.195 A 
HETATM   10  N17 MIQ B 502     -16.815 -38.034 -13.280  1.00139.42    -0.288 N 
HETATM   11  O16 MIQ B 502     -19.067 -38.148 -12.360  1.00148.93    -0.171 OA
ENDROOT
BRANCH  10  12
HETATM   12  C18 MIQ B 502     -16.697 -39.469 -13.457  1.00139.82     0.187 C 
HETATM   13  C19 MIQ B 502     -15.408 -39.923 -12.760  1.00140.06     0.247 C 
HETATM   14  O25 MIQ B 502     -15.214 -39.600 -11.643  1.00143.95    -0.271 OA
HETATM   15  N20 MIQ B 502     -14.424 -40.743 -13.435  1.00140.02    -0.296 N 
HETATM   16  H13 MIQ B 502     -13.583 -41.027 -12.972  1.00142.77     0.171 HD
HETATM   17  C21 MIQ B 502     -14.679 -41.116 -14.803  1.00142.22     0.224 C 
HETATM   18  C22 MIQ B 502     -15.426 -40.108 -15.655  1.00139.52     0.106 C 
HETATM   19  O24 MIQ B 502     -14.328 -42.158 -15.235  1.00146.13    -0.273 OA
HETATM   20  C23 MIQ B 502     -16.736 -39.827 -14.942  1.00139.15     0.045 C 
ENDBRANCH  10  12
BRANCH   5  21
HETATM   21  N6  MIQ B 502     -15.934 -31.963 -13.018  1.00140.95    -0.377 N 
HETATM   22  C7  MIQ B 502     -16.367 -31.087 -14.092  1.00142.12     0.149 C 
HETATM   23  C8  MIQ B 502     -15.292 -30.076 -14.470  1.00144.10     0.187 C 
HETATM   24  O9  MIQ B 502     -14.738 -29.433 -13.362  1.00148.65    -0.388 OA
HETATM   25  C10 MIQ B 502     -15.015 -29.884 -12.070  1.00147.44     0.187 C 
HETATM   26  C11 MIQ B 502     -15.291 -31.369 -11.859  1.00144.08     0.149 C 
ENDBRANCH   5  21
TORSDOF 2
ENDMDL
MODEL 9
REMARK VINA RESULT:      -5.6      3.479      6.231
REMARK  2 active torsions:
REMARK  status: ('A' for Active; 'I' for Inactive)
REMARK    1  A    between atoms: C5_5  and  N6_21 
REMARK    2  A    between atoms: C18_14  and  N17_19 
ROOT
HETATM    1  O1  MIQ B 502     -15.851 -38.505 -11.114  1.00142.91    -0.171 OA
HETATM    2  C2  MIQ B 502     -15.621 -39.469 -12.098  1.00141.17     0.195 A 
HETATM    3  C3  MIQ B 502     -14.610 -40.657 -12.007  1.00141.71     0.035 A 
HETATM    4  C4  MIQ B 502     -13.663 -41.111 -10.961  1.00142.86     0.046 A 
HETATM    5  C5  MIQ B 502     -12.857 -42.258 -11.174  1.00139.53     0.031 A 
HETATM    6  C12 MIQ B 502     -12.961 -42.992 -12.426  1.00139.38     0.030 A 
HETATM    7  C13 MIQ B 502     -13.869 -42.557 -13.429  1.00141.18     0.019 A 
HETATM    8  C14 MIQ B 502     -14.715 -41.355 -13.199  1.00138.77     0.033 A 
HETATM    9  C15 MIQ B 502     -15.798 -40.596 -14.034  1.00142.10     0.195 A 
HETATM   10  N17 MIQ B 502     -16.197 -39.584 -13.282  1.00139.42    -0.288 N 
HETATM   11  O16 MIQ B 502     -16.246 -40.924 -15.315  1.00148.93    -0.171 OA
ENDROOT
BRANCH  10  12
HETATM   12  C18 MIQ B 502     -17.198 -38.643 -13.748  1.00139.82     0.187 C 
HETATM   13  C19 MIQ B 502     -16.692 -37.229 -13.436  1.00140.06     0.247 C 
HETATM   14  O25 MIQ B 502     -15.606 -36.919 -13.774  1.00143.95    -0.271 OA
HETATM   15  N20 MIQ B 502     -17.515 -36.259 -12.742  1.00140.02    -0.296 N 
HETATM   16  H13 MIQ B 502     -17.170 -35.342 -12.539  1.00142.77     0.171 HD
HETATM   17  C21 MIQ B 502     -18.834 -36.665 -12.330  1.00142.22     0.224 C 
HETATM   18  C22 MIQ B 502     -19.005 -38.117 -11.927  1.00139.52     0.106 C 
HETATM   19  O24 MIQ B 502     -19.737 -35.903 -12.314  1.00146.13    -0.273 OA
HETATM   20  C23 MIQ B 502     -18.553 -38.950 -13.112  1.00139.15     0.045 C 
ENDBRANCH  10  12
BRANCH   5  21
HETATM   21  N6  MIQ B 502     -11.923 -42.683 -10.147  1.00140.95    -0.377 N 
HETATM   22  C7  MIQ B 502     -11.033 -41.693  -9.565  1.00142.12     0.149 C 
HETATM   23  C8  MIQ B 502      -9.749 -42.322  -9.038  1.00144.10     0.187 C 
HETATM   24  O9  MIQ B 502      -9.981 -43.452  -8.252  1.00148.65    -0.388 OA
HETATM   25  C10 MIQ B 502     -11.255 -44.024  -8.192  1.00147.44     0.187 C 
HETATM   26  C11 MIQ B 502     -12.162 -43.913  -9.413  1.00144.08     0.149 C 
ENDBRANCH   5  21
TORSDOF 2
ENDMDL
