MODEL 1
REMARK VINA RESULT:      -6.1      0.000      0.000
REMARK  2 active torsions:
REMARK  status: ('A' for Active; 'I' for Inactive)
REMARK    1  A    between atoms: C5_5  and  N6_21 
REMARK    2  A    between atoms: C18_14  and  N17_19 
ROOT
HETATM    1  O1  MIQ B 502     -12.049  -3.553   8.797  1.00142.91    -0.171 OA
HETATM    2  C2  MIQ B 502     -12.736  -3.458  10.009  1.00141.17     0.195 A 
HETATM    3  C3  MIQ B 502     -12.104  -3.165  11.407  1.00141.71     0.035 A 
HETATM    4  C4  MIQ B 502     -10.717  -2.915  11.867  1.00142.86     0.046 A 
HETATM    5  C5  MIQ B 502     -10.449  -2.672  13.237  1.00139.53     0.031 A 
HETATM    6  C12 MIQ B 502     -11.543  -2.669  14.198  1.00139.38     0.030 A 
HETATM    7  C13 MIQ B 502     -12.873  -2.908  13.758  1.00141.18     0.019 A 
HETATM    8  C14 MIQ B 502     -13.149  -3.159  12.317  1.00138.77     0.033 A 
HETATM    9  C15 MIQ B 502     -14.437  -3.449  11.479  1.00142.10     0.195 A 
HETATM   10  N17 MIQ B 502     -14.034  -3.586  10.226  1.00139.42    -0.288 N 
HETATM   11  O16 MIQ B 502     -15.743  -3.547  11.961  1.00148.93    -0.171 OA
ENDROOT
BRANCH  10  12
HETATM   12  C18 MIQ B 502     -14.970  -3.882   9.158  1.00139.82     0.187 C 
HETATM   13  C19 MIQ B 502     -14.456  -5.122   8.416  1.00140.06     0.247 C 
HETATM   14  O25 MIQ B 502     -14.174  -6.087   9.034  1.00143.95    -0.271 OA
HETATM   15  N20 MIQ B 502     -14.313  -5.145   6.975  1.00140.02    -0.296 N 
HETATM   16  H13 MIQ B 502     -13.971  -5.959   6.503  1.00142.77     0.171 HD
HETATM   17  C21 MIQ B 502     -14.655  -3.952   6.244  1.00142.22     0.224 C 
HETATM   18  C22 MIQ B 502     -14.383  -2.629   6.934  1.00139.52     0.106 C 
HETATM   19  O24 MIQ B 502     -15.127  -4.004   5.162  1.00146.13    -0.273 OA
HETATM   20  C23 MIQ B 502     -15.141  -2.666   8.249  1.00139.15     0.045 C 
ENDBRANCH  10  12
BRANCH   5  21
HETATM   21  N6  MIQ B 502      -9.084  -2.443  13.675  1.00140.95    -0.377 N 
HETATM   22  C7  MIQ B 502      -8.677  -1.086  13.999  1.00142.12     0.149 C 
HETATM   23  C8  MIQ B 502      -7.180  -0.881  13.808  1.00144.10     0.187 C 
HETATM   24  O9  MIQ B 502      -6.414  -1.890  14.394  1.00148.65    -0.388 OA
HETATM   25  C10 MIQ B 502      -7.023  -3.050  14.880  1.00147.44     0.187 C 
HETATM   26  C11 MIQ B 502      -8.296  -3.544  14.200  1.00144.08     0.149 C 
ENDBRANCH   5  21
TORSDOF 2
ENDMDL
MODEL 2
REMARK VINA RESULT:      -6.0      1.793      2.708
REMARK  2 active torsions:
REMARK  status: ('A' for Active; 'I' for Inactive)
REMARK    1  A    between atoms: C5_5  and  N6_21 
REMARK    2  A    between atoms: C18_14  and  N17_19 
ROOT
HETATM    1  O1  MIQ B 502     -14.433  -1.562   9.815  1.00142.91    -0.171 OA
HETATM    2  C2  MIQ B 502     -14.013  -2.888   9.685  1.00141.17     0.195 A 
HETATM    3  C3  MIQ B 502     -12.921  -3.599  10.547  1.00141.71     0.035 A 
HETATM    4  C4  MIQ B 502     -12.063  -3.156  11.671  1.00142.86     0.046 A 
HETATM    5  C5  MIQ B 502     -11.143  -4.054  12.267  1.00139.53     0.031 A 
HETATM    6  C12 MIQ B 502     -11.042  -5.420  11.772  1.00139.38     0.030 A 
HETATM    7  C13 MIQ B 502     -11.866  -5.845  10.696  1.00141.18     0.019 A 
HETATM    8  C14 MIQ B 502     -12.832  -4.898  10.075  1.00138.77     0.033 A 
HETATM    9  C15 MIQ B 502     -13.874  -4.995   8.913  1.00142.10     0.195 A 
HETATM   10  N17 MIQ B 502     -14.440  -3.802   8.830  1.00139.42    -0.288 N 
HETATM   11  O16 MIQ B 502     -14.146  -6.114   8.125  1.00148.93    -0.171 OA
ENDROOT
BRANCH  10  12
HETATM   12  C18 MIQ B 502     -15.460  -3.515   7.838  1.00139.82     0.187 C 
HETATM   13  C19 MIQ B 502     -16.484  -4.655   7.877  1.00140.06     0.247 C 
HETATM   14  O25 MIQ B 502     -16.954  -4.972   8.911  1.00143.95    -0.271 OA
HETATM   15  N20 MIQ B 502     -16.898  -5.351   6.676  1.00140.02    -0.296 N 
HETATM   16  H13 MIQ B 502     -17.563  -6.098   6.715  1.00142.77     0.171 HD
HETATM   17  C21 MIQ B 502     -16.302  -4.953   5.426  1.00142.22     0.224 C 
HETATM   18  C22 MIQ B 502     -14.863  -4.480   5.478  1.00139.52     0.106 C 
HETATM   19  O24 MIQ B 502     -16.910  -4.989   4.413  1.00146.13    -0.273 OA
HETATM   20  C23 MIQ B 502     -14.823  -3.325   6.462  1.00139.15     0.045 C 
ENDBRANCH  10  12
BRANCH   5  21
HETATM   21  N6  MIQ B 502     -10.297  -3.603  13.357  1.00140.95    -0.377 N 
HETATM   22  C7  MIQ B 502      -8.928  -4.083  13.419  1.00142.12     0.149 C 
HETATM   23  C8  MIQ B 502      -8.390  -4.087  14.844  1.00144.10     0.187 C 
HETATM   24  O9  MIQ B 502      -8.634  -2.889  15.520  1.00148.65    -0.388 OA
HETATM   25  C10 MIQ B 502      -9.487  -1.928  14.972  1.00147.44     0.187 C 
HETATM   26  C11 MIQ B 502     -10.639  -2.395  14.089  1.00144.08     0.149 C 
ENDBRANCH   5  21
TORSDOF 2
ENDMDL
MODEL 3
REMARK VINA RESULT:      -6.0     14.249     16.338
REMARK  2 active torsions:
REMARK  status: ('A' for Active; 'I' for Inactive)
REMARK    1  A    between atoms: C5_5  and  N6_21 
REMARK    2  A    between atoms: C18_14  and  N17_19 
ROOT
HETATM    1  O1  MIQ B 502     -22.186   3.083   6.721  1.00142.91    -0.171 OA
HETATM    2  C2  MIQ B 502     -23.034   3.237   5.623  1.00141.17     0.195 A 
HETATM    3  C3  MIQ B 502     -24.197   2.277   5.214  1.00141.71     0.035 A 
HETATM    4  C4  MIQ B 502     -24.732   1.021   5.791  1.00142.86     0.046 A 
HETATM    5  C5  MIQ B 502     -25.827   0.360   5.179  1.00139.53     0.031 A 
HETATM    6  C12 MIQ B 502     -26.428   0.920   3.977  1.00139.38     0.030 A 
HETATM    7  C13 MIQ B 502     -25.916   2.124   3.423  1.00141.18     0.019 A 
HETATM    8  C14 MIQ B 502     -24.767   2.815   4.072  1.00138.77     0.033 A 
HETATM    9  C15 MIQ B 502     -23.955   4.116   3.771  1.00142.10     0.195 A 
HETATM   10  N17 MIQ B 502     -23.040   4.204   4.721  1.00139.42    -0.288 N 
HETATM   11  O16 MIQ B 502     -24.158   5.001   2.710  1.00148.93    -0.171 OA
ENDROOT
BRANCH  10  12
HETATM   12  C18 MIQ B 502     -22.083   5.294   4.753  1.00139.82     0.187 C 
HETATM   13  C19 MIQ B 502     -22.868   6.608   4.667  1.00140.06     0.247 C 
HETATM   14  O25 MIQ B 502     -23.768   6.791   5.408  1.00143.95    -0.271 OA
HETATM   15  N20 MIQ B 502     -22.532   7.637   3.705  1.00140.02    -0.296 N 
HETATM   16  H13 MIQ B 502     -23.057   8.488   3.654  1.00142.77     0.171 HD
HETATM   17  C21 MIQ B 502     -21.436   7.387   2.805  1.00142.22     0.224 C 
HETATM   18  C22 MIQ B 502     -21.229   5.950   2.366  1.00139.52     0.106 C 
HETATM   19  O24 MIQ B 502     -20.730   8.259   2.432  1.00146.13    -0.273 OA
HETATM   20  C23 MIQ B 502     -21.056   5.133   3.633  1.00139.15     0.045 C 
ENDBRANCH  10  12
BRANCH   5  21
HETATM   21  N6  MIQ B 502     -26.332  -0.876   5.747  1.00140.95    -0.377 N 
HETATM   22  C7  MIQ B 502     -25.713  -1.388   6.958  1.00142.12     0.149 C 
HETATM   23  C8  MIQ B 502     -25.854  -2.900   7.073  1.00144.10     0.187 C 
HETATM   24  O9  MIQ B 502     -27.156  -3.345   6.834  1.00148.65    -0.388 OA
HETATM   25  C10 MIQ B 502     -28.118  -2.473   6.320  1.00147.44     0.187 C 
HETATM   26  C11 MIQ B 502     -27.663  -1.344   5.401  1.00144.08     0.149 C 
ENDBRANCH   5  21
TORSDOF 2
ENDMDL
MODEL 4
REMARK VINA RESULT:      -6.0      3.449      5.999
REMARK  2 active torsions:
REMARK  status: ('A' for Active; 'I' for Inactive)
REMARK    1  A    between atoms: C5_5  and  N6_21 
REMARK    2  A    between atoms: C18_14  and  N17_19 
ROOT
HETATM    1  O1  MIQ B 502     -16.368  -3.168   9.268  1.00142.91    -0.171 OA
HETATM    2  C2  MIQ B 502     -15.255  -2.956  10.085  1.00141.17     0.195 A 
HETATM    3  C3  MIQ B 502     -15.281  -2.639  11.614  1.00141.71     0.035 A 
HETATM    4  C4  MIQ B 502     -16.373  -2.478  12.603  1.00142.86     0.046 A 
HETATM    5  C5  MIQ B 502     -16.076  -2.186  13.958  1.00139.53     0.031 A 
HETATM    6  C12 MIQ B 502     -14.689  -2.044  14.380  1.00139.38     0.030 A 
HETATM    7  C13 MIQ B 502     -13.642  -2.200  13.432  1.00141.18     0.019 A 
HETATM    8  C14 MIQ B 502     -13.960  -2.509  12.011  1.00138.77     0.033 A 
HETATM    9  C15 MIQ B 502     -13.109  -2.747  10.721  1.00142.10     0.195 A 
HETATM   10  N17 MIQ B 502     -13.977  -2.983   9.750  1.00139.42    -0.288 N 
HETATM   11  O16 MIQ B 502     -11.718  -2.714  10.620  1.00148.93    -0.171 OA
ENDROOT
BRANCH  10  12
HETATM   12  C18 MIQ B 502     -13.540  -3.235   8.390  1.00139.82     0.187 C 
HETATM   13  C19 MIQ B 502     -14.263  -2.240   7.474  1.00140.06     0.247 C 
HETATM   14  O25 MIQ B 502     -14.237  -1.090   7.739  1.00143.95    -0.271 OA
HETATM   15  N20 MIQ B 502     -14.974  -2.670   6.288  1.00140.02    -0.296 N 
HETATM   16  H13 MIQ B 502     -15.447  -2.011   5.702  1.00142.77     0.171 HD
HETATM   17  C21 MIQ B 502     -15.000  -4.079   5.991  1.00142.22     0.224 C 
HETATM   18  C22 MIQ B 502     -15.018  -5.024   7.177  1.00139.52     0.106 C 
HETATM   19  O24 MIQ B 502     -15.001  -4.476   4.878  1.00146.13    -0.273 OA
HETATM   20  C23 MIQ B 502     -13.794  -4.694   8.011  1.00139.15     0.045 C 
ENDBRANCH  10  12
BRANCH   5  21
HETATM   21  N6  MIQ B 502     -17.156  -2.015  14.913  1.00140.95    -0.377 N 
HETATM   22  C7  MIQ B 502     -18.438  -2.636  14.629  1.00142.12     0.149 C 
HETATM   23  C8  MIQ B 502     -19.589  -1.895  15.296  1.00144.10     0.187 C 
HETATM   24  O9  MIQ B 502     -19.347  -1.614  16.643  1.00148.65    -0.388 OA
HETATM   25  C10 MIQ B 502     -18.076  -1.809  17.189  1.00147.44     0.187 C 
HETATM   26  C11 MIQ B 502     -16.860  -1.638  16.284  1.00144.08     0.149 C 
ENDBRANCH   5  21
TORSDOF 2
ENDMDL
MODEL 5
REMARK VINA RESULT:      -6.0     22.419     23.603
REMARK  2 active torsions:
REMARK  status: ('A' for Active; 'I' for Inactive)
REMARK    1  A    between atoms: C5_5  and  N6_21 
REMARK    2  A    between atoms: C18_14  and  N17_19 
ROOT
HETATM    1  O1  MIQ B 502     -20.189  18.224   4.373  1.00142.91    -0.171 OA
HETATM    2  C2  MIQ B 502     -19.926  17.528   3.192  1.00141.17     0.195 A 
HETATM    3  C3  MIQ B 502     -18.600  17.576   2.368  1.00141.71     0.035 A 
HETATM    4  C4  MIQ B 502     -17.315  18.294   2.546  1.00142.86     0.046 A 
HETATM    5  C5  MIQ B 502     -16.267  18.130   1.606  1.00139.53     0.031 A 
HETATM    6  C12 MIQ B 502     -16.454  17.251   0.460  1.00139.38     0.030 A 
HETATM    7  C13 MIQ B 502     -17.685  16.562   0.290  1.00141.18     0.019 A 
HETATM    8  C14 MIQ B 502     -18.782  16.736   1.281  1.00138.77     0.033 A 
HETATM    9  C15 MIQ B 502     -20.229  16.163   1.431  1.00142.10     0.195 A 
HETATM   10  N17 MIQ B 502     -20.720  16.698   2.537  1.00139.42    -0.288 N 
HETATM   11  O16 MIQ B 502     -20.868  15.271   0.569  1.00148.93    -0.171 OA
ENDROOT
BRANCH  10  12
HETATM   12  C18 MIQ B 502     -22.067  16.401   2.988  1.00139.82     0.187 C 
HETATM   13  C19 MIQ B 502     -22.225  14.876   3.018  1.00140.06     0.247 C 
HETATM   14  O25 MIQ B 502     -21.418  14.224   3.580  1.00143.95    -0.271 OA
HETATM   15  N20 MIQ B 502     -23.341  14.211   2.378  1.00140.02    -0.296 N 
HETATM   16  H13 MIQ B 502     -23.429  13.214   2.399  1.00142.77     0.171 HD
HETATM   17  C21 MIQ B 502     -24.307  15.027   1.688  1.00142.22     0.224 C 
HETATM   18  C22 MIQ B 502     -23.783  16.280   1.014  1.00139.52     0.106 C 
HETATM   19  O24 MIQ B 502     -25.452  14.735   1.656  1.00146.13    -0.273 OA
HETATM   20  C23 MIQ B 502     -23.093  17.094   2.093  1.00139.15     0.045 C 
ENDBRANCH  10  12
BRANCH   5  21
HETATM   21  N6  MIQ B 502     -15.020  18.851   1.784  1.00140.95    -0.377 N 
HETATM   22  C7  MIQ B 502     -14.803  19.566   3.030  1.00142.12     0.149 C 
HETATM   23  C8  MIQ B 502     -13.846  20.738   2.854  1.00144.10     0.187 C 
HETATM   24  O9  MIQ B 502     -12.688  20.394   2.154  1.00148.65    -0.388 OA
HETATM   25  C10 MIQ B 502     -12.591  19.157   1.511  1.00147.44     0.187 C 
HETATM   26  C11 MIQ B 502     -13.864  18.514   0.972  1.00144.08     0.149 C 
ENDBRANCH   5  21
TORSDOF 2
ENDMDL
MODEL 6
REMARK VINA RESULT:      -5.9     14.129     17.169
REMARK  2 active torsions:
REMARK  status: ('A' for Active; 'I' for Inactive)
REMARK    1  A    between atoms: C5_5  and  N6_21 
REMARK    2  A    between atoms: C18_14  and  N17_19 
ROOT
HETATM    1  O1  MIQ B 502     -24.317   4.837   2.911  1.00142.91    -0.171 OA
HETATM    2  C2  MIQ B 502     -23.994   4.007   3.987  1.00141.17     0.195 A 
HETATM    3  C3  MIQ B 502     -24.743   2.700   4.400  1.00141.71     0.035 A 
HETATM    4  C4  MIQ B 502     -25.915   1.979   3.850  1.00142.86     0.046 A 
HETATM    5  C5  MIQ B 502     -26.372   0.783   4.459  1.00139.53     0.031 A 
HETATM    6  C12 MIQ B 502     -25.685   0.261   5.631  1.00139.38     0.030 A 
HETATM    7  C13 MIQ B 502     -24.560   0.951   6.159  1.00141.18     0.019 A 
HETATM    8  C14 MIQ B 502     -24.083   2.205   5.514  1.00138.77     0.033 A 
HETATM    9  C15 MIQ B 502     -22.919   3.210   5.792  1.00142.10     0.195 A 
HETATM   10  N17 MIQ B 502     -23.010   4.142   4.859  1.00139.42    -0.288 N 
HETATM   11  O16 MIQ B 502     -21.978   3.135   6.821  1.00148.93    -0.171 OA
ENDROOT
BRANCH  10  12
HETATM   12  C18 MIQ B 502     -22.088   5.262   4.814  1.00139.82     0.187 C 
HETATM   13  C19 MIQ B 502     -22.918   6.548   4.724  1.00140.06     0.247 C 
HETATM   14  O25 MIQ B 502     -23.790   6.727   5.498  1.00143.95    -0.271 OA
HETATM   15  N20 MIQ B 502     -22.658   7.556   3.716  1.00140.02    -0.296 N 
HETATM   16  H13 MIQ B 502     -23.211   8.388   3.664  1.00142.77     0.171 HD
HETATM   17  C21 MIQ B 502     -21.595   7.311   2.775  1.00142.22     0.224 C 
HETATM   18  C22 MIQ B 502     -21.362   5.868   2.372  1.00139.52     0.106 C 
HETATM   19  O24 MIQ B 502     -20.936   8.192   2.345  1.00146.13    -0.273 OA
HETATM   20  C23 MIQ B 502     -21.107   5.097   3.654  1.00139.15     0.045 C 
ENDBRANCH  10  12
BRANCH   5  21
HETATM   21  N6  MIQ B 502     -27.530   0.096   3.918  1.00140.95    -0.377 N 
HETATM   22  C7  MIQ B 502     -27.955   0.409   2.564  1.00142.12     0.149 C 
HETATM   23  C8  MIQ B 502     -29.444   0.158   2.362  1.00144.10     0.187 C 
HETATM   24  O9  MIQ B 502     -29.854  -1.087   2.843  1.00148.65    -0.388 OA
HETATM   25  C10 MIQ B 502     -28.994  -1.863   3.623  1.00147.44     0.187 C 
HETATM   26  C11 MIQ B 502     -27.973  -1.156   4.508  1.00144.08     0.149 C 
ENDBRANCH   5  21
TORSDOF 2
ENDMDL
MODEL 7
REMARK VINA RESULT:      -5.9      3.605      5.376
REMARK  2 active torsions:
REMARK  status: ('A' for Active; 'I' for Inactive)
REMARK    1  A    between atoms: C5_5  and  N6_21 
REMARK    2  A    between atoms: C18_14  and  N17_19 
ROOT
HETATM    1  O1  MIQ B 502     -16.656  -4.249   8.387  1.00142.91    -0.171 OA
HETATM    2  C2  MIQ B 502     -15.355  -4.144   8.882  1.00141.17     0.195 A 
HETATM    3  C3  MIQ B 502     -14.948  -3.677  10.316  1.00141.71     0.035 A 
HETATM    4  C4  MIQ B 502     -15.721  -3.240  11.503  1.00142.86     0.046 A 
HETATM    5  C5  MIQ B 502     -15.052  -2.868  12.697  1.00139.53     0.031 A 
HETATM    6  C12 MIQ B 502     -13.598  -2.917  12.756  1.00139.38     0.030 A 
HETATM    7  C13 MIQ B 502     -12.857  -3.337  11.618  1.00141.18     0.019 A 
HETATM    8  C14 MIQ B 502     -13.565  -3.728  10.369  1.00138.77     0.033 A 
HETATM    9  C15 MIQ B 502     -13.110  -4.231   8.960  1.00142.10     0.195 A 
HETATM   10  N17 MIQ B 502     -14.219  -4.415   8.262  1.00139.42    -0.288 N 
HETATM   11  O16 MIQ B 502     -11.798  -4.438   8.530  1.00148.93    -0.171 OA
ENDROOT
BRANCH  10  12
HETATM   12  C18 MIQ B 502     -14.180  -4.869   6.885  1.00139.82     0.187 C 
HETATM   13  C19 MIQ B 502     -14.914  -3.830   6.029  1.00140.06     0.247 C 
HETATM   14  O25 MIQ B 502     -14.617  -2.692   6.125  1.00143.95    -0.271 OA
HETATM   15  N20 MIQ B 502     -15.958  -4.206   5.098  1.00140.02    -0.296 N 
HETATM   16  H13 MIQ B 502     -16.433  -3.517   4.549  1.00142.77     0.171 HD
HETATM   17  C21 MIQ B 502     -16.309  -5.600   5.006  1.00142.22     0.224 C 
HETATM   18  C22 MIQ B 502     -16.207  -6.414   6.281  1.00139.52     0.106 C 
HETATM   19  O24 MIQ B 502     -16.654  -6.084   3.984  1.00146.13    -0.273 OA
HETATM   20  C23 MIQ B 502     -14.778  -6.271   6.771  1.00139.15     0.045 C 
ENDBRANCH  10  12
BRANCH   5  21
HETATM   21  N6  MIQ B 502     -15.821  -2.428  13.846  1.00140.95    -0.377 N 
HETATM   22  C7  MIQ B 502     -15.421  -1.207  14.524  1.00142.12     0.149 C 
HETATM   23  C8  MIQ B 502     -15.839  -1.205  15.988  1.00144.10     0.187 C 
HETATM   24  O9  MIQ B 502     -17.171  -1.580  16.173  1.00148.65    -0.388 OA
HETATM   25  C10 MIQ B 502     -17.910  -2.113  15.113  1.00147.44     0.187 C 
HETATM   26  C11 MIQ B 502     -17.176  -2.914  14.043  1.00144.08     0.149 C 
ENDBRANCH   5  21
TORSDOF 2
ENDMDL
MODEL 8
REMARK VINA RESULT:      -5.8      3.030      4.526
REMARK  2 active torsions:
REMARK  status: ('A' for Active; 'I' for Inactive)
REMARK    1  A    between atoms: C5_5  and  N6_21 
REMARK    2  A    between atoms: C18_14  and  N17_19 
ROOT
HETATM    1  O1  MIQ B 502     -14.550  -1.819  10.365  1.00142.91    -0.171 OA
HETATM    2  C2  MIQ B 502     -13.709  -2.684  11.069  1.00141.17     0.195 A 
HETATM    3  C3  MIQ B 502     -13.478  -2.690  12.614  1.00141.71     0.035 A 
HETATM    4  C4  MIQ B 502     -14.015  -1.874  13.728  1.00142.86     0.046 A 
HETATM    5  C5  MIQ B 502     -13.607  -2.125  15.063  1.00139.53     0.031 A 
HETATM    6  C12 MIQ B 502     -12.655  -3.192  15.338  1.00139.38     0.030 A 
HETATM    7  C13 MIQ B 502     -12.141  -3.975  14.270  1.00141.18     0.019 A 
HETATM    8  C14 MIQ B 502     -12.575  -3.709  12.872  1.00138.77     0.033 A 
HETATM    9  C15 MIQ B 502     -12.244  -4.338  11.479  1.00142.10     0.195 A 
HETATM   10  N17 MIQ B 502     -12.954  -3.659  10.594  1.00139.42    -0.288 N 
HETATM   11  O16 MIQ B 502     -11.373  -5.399  11.228  1.00148.93    -0.171 OA
ENDROOT
BRANCH  10  12
HETATM   12  C18 MIQ B 502     -12.885  -3.961   9.176  1.00139.82     0.187 C 
HETATM   13  C19 MIQ B 502     -12.609  -2.649   8.431  1.00140.06     0.247 C 
HETATM   14  O25 MIQ B 502     -11.712  -1.967   8.780  1.00143.95    -0.271 OA
HETATM   15  N20 MIQ B 502     -13.416  -2.226   7.305  1.00140.02    -0.296 N 
HETATM   16  H13 MIQ B 502     -13.229  -1.364   6.832  1.00142.77     0.171 HD
HETATM   17  C21 MIQ B 502     -14.511  -3.070   6.905  1.00142.22     0.224 C 
HETATM   18  C22 MIQ B 502     -15.225  -3.829   8.007  1.00139.52     0.106 C 
HETATM   19  O24 MIQ B 502     -14.833  -3.170   5.772  1.00146.13    -0.273 OA
HETATM   20  C23 MIQ B 502     -14.168  -4.654   8.717  1.00139.15     0.045 C 
ENDBRANCH  10  12
BRANCH   5  21
HETATM   21  N6  MIQ B 502     -14.130  -1.308  16.142  1.00140.95    -0.377 N 
HETATM   22  C7  MIQ B 502     -13.468  -0.051  16.445  1.00142.12     0.149 C 
HETATM   23  C8  MIQ B 502     -13.663   0.359  17.899  1.00144.10     0.187 C 
HETATM   24  O9  MIQ B 502     -14.993   0.268  18.316  1.00148.65    -0.388 OA
HETATM   25  C10 MIQ B 502     -15.946  -0.360  17.510  1.00147.44     0.187 C 
HETATM   26  C11 MIQ B 502     -15.495  -1.498  16.600  1.00144.08     0.149 C 
ENDBRANCH   5  21
TORSDOF 2
ENDMDL
MODEL 9
REMARK VINA RESULT:      -5.8      7.431     12.002
REMARK  2 active torsions:
REMARK  status: ('A' for Active; 'I' for Inactive)
REMARK    1  A    between atoms: C5_5  and  N6_21 
REMARK    2  A    between atoms: C18_14  and  N17_19 
ROOT
HETATM    1  O1  MIQ B 502      -6.834   3.513  14.923  1.00142.91    -0.171 OA
HETATM    2  C2  MIQ B 502      -5.549   3.225  15.387  1.00141.17     0.195 A 
HETATM    3  C3  MIQ B 502      -4.688   4.122  16.334  1.00141.71     0.035 A 
HETATM    4  C4  MIQ B 502      -4.922   5.432  16.987  1.00142.86     0.046 A 
HETATM    5  C5  MIQ B 502      -3.925   6.007  17.815  1.00139.53     0.031 A 
HETATM    6  C12 MIQ B 502      -2.666   5.307  18.024  1.00139.38     0.030 A 
HETATM    7  C13 MIQ B 502      -2.442   4.051  17.399  1.00141.18     0.019 A 
HETATM    8  C14 MIQ B 502      -3.493   3.450  16.533  1.00138.77     0.033 A 
HETATM    9  C15 MIQ B 502      -3.613   2.128  15.705  1.00142.10     0.195 A 
HETATM   10  N17 MIQ B 502      -4.807   2.160  15.137  1.00139.42    -0.288 N 
HETATM   11  O16 MIQ B 502      -2.650   1.124  15.590  1.00148.93    -0.171 OA
ENDROOT
BRANCH  10  12
HETATM   12  C18 MIQ B 502      -5.262   1.089  14.271  1.00139.82     0.187 C 
HETATM   13  C19 MIQ B 502      -5.753   1.722  12.963  1.00140.06     0.247 C 
HETATM   14  O25 MIQ B 502      -5.053   2.482  12.393  1.00143.95    -0.271 OA
HETATM   15  N20 MIQ B 502      -7.051   1.408  12.402  1.00140.02    -0.296 N 
HETATM   16  H13 MIQ B 502      -7.362   1.833  11.551  1.00142.77     0.171 HD
HETATM   17  C21 MIQ B 502      -7.891   0.485  13.121  1.00142.22     0.224 C 
HETATM   18  C22 MIQ B 502      -7.790   0.509  14.634  1.00139.52     0.106 C 
HETATM   19  O24 MIQ B 502      -8.618  -0.257  12.558  1.00146.13    -0.273 OA
HETATM   20  C23 MIQ B 502      -6.332   0.255  14.973  1.00139.15     0.045 C 
ENDBRANCH  10  12
BRANCH   5  21
HETATM   21  N6  MIQ B 502      -4.161   7.298  18.436  1.00140.95    -0.377 N 
HETATM   22  C7  MIQ B 502      -5.521   7.805  18.490  1.00142.12     0.149 C 
HETATM   23  C8  MIQ B 502      -5.560   9.326  18.544  1.00144.10     0.187 C 
HETATM   24  O9  MIQ B 502      -4.687   9.858  19.496  1.00148.65    -0.388 OA
HETATM   25  C10 MIQ B 502      -3.743   9.042  20.124  1.00147.44     0.187 C 
HETATM   26  C11 MIQ B 502      -3.182   7.850  19.356  1.00144.08     0.149 C 
ENDBRANCH   5  21
TORSDOF 2
ENDMDL
