MODEL 1
REMARK VINA RESULT:      -5.7      0.000      0.000
REMARK  2 active torsions:
REMARK  status: ('A' for Active; 'I' for Inactive)
REMARK    1  A    between atoms: C5_5  and  N6_21 
REMARK    2  A    between atoms: C18_14  and  N17_19 
ROOT
HETATM    1  O1  MIQ B 502      22.701 -10.793  31.608  1.00142.91    -0.171 OA
HETATM    2  C2  MIQ B 502      23.751  -9.998  31.141  1.00141.17     0.195 A 
HETATM    3  C3  MIQ B 502      24.619 -10.270  29.871  1.00141.71     0.035 A 
HETATM    4  C4  MIQ B 502      24.618 -11.341  28.846  1.00142.86     0.046 A 
HETATM    5  C5  MIQ B 502      25.553 -11.313  27.781  1.00139.53     0.031 A 
HETATM    6  C12 MIQ B 502      26.518 -10.226  27.694  1.00139.38     0.030 A 
HETATM    7  C13 MIQ B 502      26.518  -9.199  28.675  1.00141.18     0.019 A 
HETATM    8  C14 MIQ B 502      25.532  -9.231  29.790  1.00138.77     0.033 A 
HETATM    9  C15 MIQ B 502      25.229  -8.310  31.016  1.00142.10     0.195 A 
HETATM   10  N17 MIQ B 502      24.218  -8.874  31.656  1.00139.42    -0.288 N 
HETATM   11  O16 MIQ B 502      25.896  -7.133  31.363  1.00148.93    -0.171 OA
ENDROOT
BRANCH  10  12
HETATM   12  C18 MIQ B 502      23.672  -8.295  32.869  1.00139.82     0.187 C 
HETATM   13  C19 MIQ B 502      23.391  -6.813  32.595  1.00140.06     0.247 C 
HETATM   14  O25 MIQ B 502      22.763  -6.512  31.642  1.00143.95    -0.271 OA
HETATM   15  N20 MIQ B 502      23.870  -5.769  33.477  1.00140.02    -0.296 N 
HETATM   16  H13 MIQ B 502      23.685  -4.804  33.283  1.00142.77     0.171 HD
HETATM   17  C21 MIQ B 502      24.643  -6.160  34.628  1.00142.22     0.224 C 
HETATM   18  C22 MIQ B 502      25.531  -7.379  34.470  1.00139.52     0.106 C 
HETATM   19  O24 MIQ B 502      24.582  -5.562  35.645  1.00146.13    -0.273 OA
HETATM   20  C23 MIQ B 502      24.625  -8.519  34.042  1.00139.15     0.045 C 
ENDBRANCH  10  12
BRANCH   5  21
HETATM   21  N6  MIQ B 502      25.552 -12.377  26.793  1.00140.95    -0.377 N 
HETATM   22  C7  MIQ B 502      25.660 -13.751  27.251  1.00142.12     0.149 C 
HETATM   23  C8  MIQ B 502      26.278 -14.656  26.194  1.00144.10     0.187 C 
HETATM   24  O9  MIQ B 502      25.701 -14.491  24.933  1.00148.65    -0.388 OA
HETATM   25  C10 MIQ B 502      24.826 -13.430  24.688  1.00147.44     0.187 C 
HETATM   26  C11 MIQ B 502      25.019 -12.132  25.464  1.00144.08     0.149 C 
ENDBRANCH   5  21
TORSDOF 2
ENDMDL
MODEL 2
REMARK VINA RESULT:      -5.7      1.440      2.080
REMARK  2 active torsions:
REMARK  status: ('A' for Active; 'I' for Inactive)
REMARK    1  A    between atoms: C5_5  and  N6_21 
REMARK    2  A    between atoms: C18_14  and  N17_19 
ROOT
HETATM    1  O1  MIQ B 502      23.561  -9.732  32.295  1.00142.91    -0.171 OA
HETATM    2  C2  MIQ B 502      24.464  -9.153  31.401  1.00141.17     0.195 A 
HETATM    3  C3  MIQ B 502      25.006  -9.802  30.087  1.00141.71     0.035 A 
HETATM    4  C4  MIQ B 502      24.767 -11.104  29.420  1.00142.86     0.046 A 
HETATM    5  C5  MIQ B 502      25.421 -11.416  28.201  1.00139.53     0.031 A 
HETATM    6  C12 MIQ B 502      26.331 -10.450  27.602  1.00139.38     0.030 A 
HETATM    7  C13 MIQ B 502      26.559  -9.201  28.241  1.00141.18     0.019 A 
HETATM    8  C14 MIQ B 502      25.868  -8.879  29.519  1.00138.77     0.033 A 
HETATM    9  C15 MIQ B 502      25.861  -7.649  30.485  1.00142.10     0.195 A 
HETATM   10  N17 MIQ B 502      25.035  -7.963  31.469  1.00139.42    -0.288 N 
HETATM   11  O16 MIQ B 502      26.584  -6.465  30.336  1.00148.93    -0.171 OA
ENDROOT
BRANCH  10  12
HETATM   12  C18 MIQ B 502      24.790  -7.052  32.572  1.00139.82     0.187 C 
HETATM   13  C19 MIQ B 502      25.132  -7.790  33.873  1.00140.06     0.247 C 
HETATM   14  O25 MIQ B 502      26.175  -8.330  33.971  1.00143.95    -0.271 OA
HETATM   15  N20 MIQ B 502      24.209  -7.837  34.988  1.00140.02    -0.296 N 
HETATM   16  H13 MIQ B 502      24.441  -8.328  35.830  1.00142.77     0.171 HD
HETATM   17  C21 MIQ B 502      22.937  -7.179  34.840  1.00142.22     0.224 C 
HETATM   18  C22 MIQ B 502      22.327  -7.179  33.452  1.00139.52     0.106 C 
HETATM   19  O24 MIQ B 502      22.400  -6.660  35.756  1.00146.13    -0.273 OA
HETATM   20  C23 MIQ B 502      23.351  -6.541  32.531  1.00139.15     0.045 C 
ENDBRANCH  10  12
BRANCH   5  21
HETATM   21  N6  MIQ B 502      25.189 -12.700  27.567  1.00140.95    -0.377 N 
HETATM   22  C7  MIQ B 502      25.107 -12.755  26.117  1.00142.12     0.149 C 
HETATM   23  C8  MIQ B 502      24.262 -13.928  25.639  1.00144.10     0.187 C 
HETATM   24  O9  MIQ B 502      24.598 -15.131  26.263  1.00148.65    -0.388 OA
HETATM   25  C10 MIQ B 502      25.459 -15.140  27.363  1.00147.44     0.187 C 
HETATM   26  C11 MIQ B 502      25.474 -13.928  28.289  1.00144.08     0.149 C 
ENDBRANCH   5  21
TORSDOF 2
ENDMDL
MODEL 3
REMARK VINA RESULT:      -5.6      2.134      7.967
REMARK  2 active torsions:
REMARK  status: ('A' for Active; 'I' for Inactive)
REMARK    1  A    between atoms: C5_5  and  N6_21 
REMARK    2  A    between atoms: C18_14  and  N17_19 
ROOT
HETATM    1  O1  MIQ B 502      23.819 -12.155  30.255  1.00142.91    -0.171 OA
HETATM    2  C2  MIQ B 502      24.596 -11.224  29.563  1.00141.17     0.195 A 
HETATM    3  C3  MIQ B 502      25.053  -9.828  30.094  1.00141.71     0.035 A 
HETATM    4  C4  MIQ B 502      24.842  -9.104  31.370  1.00142.86     0.046 A 
HETATM    5  C5  MIQ B 502      25.399  -7.814  31.563  1.00139.53     0.031 A 
HETATM    6  C12 MIQ B 502      26.183  -7.200  30.501  1.00139.38     0.030 A 
HETATM    7  C13 MIQ B 502      26.387  -7.894  29.278  1.00141.18     0.019 A 
HETATM    8  C14 MIQ B 502      25.801  -9.248  29.082  1.00138.77     0.033 A 
HETATM    9  C15 MIQ B 502      25.809 -10.291  27.917  1.00142.10     0.195 A 
HETATM   10  N17 MIQ B 502      25.102 -11.323  28.346  1.00139.42    -0.288 N 
HETATM   11  O16 MIQ B 502      26.435 -10.154  26.676  1.00148.93    -0.171 OA
ENDROOT
BRANCH  10  12
HETATM   12  C18 MIQ B 502      24.881 -12.489  27.510  1.00139.82     0.187 C 
HETATM   13  C19 MIQ B 502      23.373 -12.770  27.490  1.00140.06     0.247 C 
HETATM   14  O25 MIQ B 502      22.627 -11.894  27.229  1.00143.95    -0.271 OA
HETATM   15  N20 MIQ B 502      22.838 -14.086  27.776  1.00140.02    -0.296 N 
HETATM   16  H13 MIQ B 502      21.851 -14.255  27.765  1.00142.77     0.171 HD
HETATM   17  C21 MIQ B 502      23.767 -15.136  28.101  1.00142.22     0.224 C 
HETATM   18  C22 MIQ B 502      25.017 -14.730  28.858  1.00139.52     0.106 C 
HETATM   19  O24 MIQ B 502      23.567 -16.258  27.787  1.00146.13    -0.273 OA
HETATM   20  C23 MIQ B 502      25.706 -13.671  28.017  1.00139.15     0.045 C 
ENDBRANCH  10  12
BRANCH   5  21
HETATM   21  N6  MIQ B 502      25.172  -7.111  32.812  1.00140.95    -0.377 N 
HETATM   22  C7  MIQ B 502      24.287  -5.958  32.809  1.00142.12     0.149 C 
HETATM   23  C8  MIQ B 502      24.626  -4.978  33.925  1.00144.10     0.187 C 
HETATM   24  O9  MIQ B 502      24.790  -5.601  35.163  1.00148.65    -0.388 OA
HETATM   25  C10 MIQ B 502      24.858  -6.994  35.252  1.00147.44     0.187 C 
HETATM   26  C11 MIQ B 502      25.440  -7.772  34.076  1.00144.08     0.149 C 
ENDBRANCH   5  21
TORSDOF 2
ENDMDL
MODEL 4
REMARK VINA RESULT:      -5.4      1.689      8.326
REMARK  2 active torsions:
REMARK  status: ('A' for Active; 'I' for Inactive)
REMARK    1  A    between atoms: C5_5  and  N6_21 
REMARK    2  A    between atoms: C18_14  and  N17_19 
ROOT
HETATM    1  O1  MIQ B 502      22.958 -11.938  30.089  1.00142.91    -0.171 OA
HETATM    2  C2  MIQ B 502      23.960 -11.203  29.453  1.00141.17     0.195 A 
HETATM    3  C3  MIQ B 502      24.662  -9.925  30.013  1.00141.71     0.035 A 
HETATM    4  C4  MIQ B 502      24.519  -9.151  31.269  1.00142.86     0.046 A 
HETATM    5  C5  MIQ B 502      25.320  -8.004  31.499  1.00139.53     0.031 A 
HETATM    6  C12 MIQ B 502      26.289  -7.586  30.496  1.00139.38     0.030 A 
HETATM    7  C13 MIQ B 502      26.427  -8.328  29.292  1.00141.18     0.019 A 
HETATM    8  C14 MIQ B 502      25.585  -9.532  29.057  1.00138.77     0.033 A 
HETATM    9  C15 MIQ B 502      25.456 -10.573  27.897  1.00142.10     0.195 A 
HETATM   10  N17 MIQ B 502      24.518 -11.427  28.276  1.00139.42    -0.288 N 
HETATM   11  O16 MIQ B 502      26.182 -10.591  26.705  1.00148.93    -0.171 OA
ENDROOT
BRANCH  10  12
HETATM   12  C18 MIQ B 502      24.116 -12.534  27.429  1.00139.82     0.187 C 
HETATM   13  C19 MIQ B 502      25.364 -13.376  27.135  1.00140.06     0.247 C 
HETATM   14  O25 MIQ B 502      26.043 -13.732  28.032  1.00143.95    -0.271 OA
HETATM   15  N20 MIQ B 502      25.730 -13.753  25.785  1.00140.02    -0.296 N 
HETATM   16  H13 MIQ B 502      26.551 -14.297  25.606  1.00142.77     0.171 HD
HETATM   17  C21 MIQ B 502      24.891 -13.298  24.706  1.00142.22     0.224 C 
HETATM   18  C22 MIQ B 502      24.233 -11.943  24.880  1.00139.52     0.106 C 
HETATM   19  O24 MIQ B 502      24.722 -13.953  23.737  1.00146.13    -0.273 OA
HETATM   20  C23 MIQ B 502      23.429 -12.016  26.166  1.00139.15     0.045 C 
ENDBRANCH  10  12
BRANCH   5  21
HETATM   21  N6  MIQ B 502      25.159  -7.247  32.727  1.00140.95    -0.377 N 
HETATM   22  C7  MIQ B 502      24.258  -6.107  32.727  1.00142.12     0.149 C 
HETATM   23  C8  MIQ B 502      24.649  -5.073  33.775  1.00144.10     0.187 C 
HETATM   24  O9  MIQ B 502      24.899  -5.637  35.028  1.00148.65    -0.388 OA
HETATM   25  C10 MIQ B 502      24.993  -7.023  35.174  1.00147.44     0.187 C 
HETATM   26  C11 MIQ B 502      25.514  -7.847  34.001  1.00144.08     0.149 C 
ENDBRANCH   5  21
TORSDOF 2
ENDMDL
MODEL 5
REMARK VINA RESULT:      -5.2      2.471      3.406
REMARK  2 active torsions:
REMARK  status: ('A' for Active; 'I' for Inactive)
REMARK    1  A    between atoms: C5_5  and  N6_21 
REMARK    2  A    between atoms: C18_14  and  N17_19 
ROOT
HETATM    1  O1  MIQ B 502      26.157  -8.810  27.992  1.00142.91    -0.171 OA
HETATM    2  C2  MIQ B 502      25.494  -9.771  28.760  1.00141.17     0.195 A 
HETATM    3  C3  MIQ B 502      25.378 -11.294  28.432  1.00141.71     0.035 A 
HETATM    4  C4  MIQ B 502      25.879 -12.138  27.322  1.00142.86     0.046 A 
HETATM    5  C5  MIQ B 502      25.606 -13.529  27.301  1.00139.53     0.031 A 
HETATM    6  C12 MIQ B 502      24.829 -14.130  28.375  1.00139.38     0.030 A 
HETATM    7  C13 MIQ B 502      24.349 -13.321  29.440  1.00141.18     0.019 A 
HETATM    8  C14 MIQ B 502      24.641 -11.861  29.459  1.00138.77     0.033 A 
HETATM    9  C15 MIQ B 502      24.299 -10.685  30.430  1.00142.10     0.195 A 
HETATM   10  N17 MIQ B 502      24.845  -9.603  29.899  1.00139.42    -0.288 N 
HETATM   11  O16 MIQ B 502      23.563 -10.765  31.614  1.00148.93    -0.171 OA
ENDROOT
BRANCH  10  12
HETATM   12  C18 MIQ B 502      24.715  -8.302  30.530  1.00139.82     0.187 C 
HETATM   13  C19 MIQ B 502      24.155  -7.330  29.484  1.00140.06     0.247 C 
HETATM   14  O25 MIQ B 502      23.184  -7.627  28.884  1.00143.95    -0.271 OA
HETATM   15  N20 MIQ B 502      24.781  -6.052  29.217  1.00140.02    -0.296 N 
HETATM   16  H13 MIQ B 502      24.409  -5.429  28.527  1.00142.77     0.171 HD
HETATM   17  C21 MIQ B 502      25.972  -5.716  29.956  1.00142.22     0.224 C 
HETATM   18  C22 MIQ B 502      26.893  -6.864  30.320  1.00139.52     0.106 C 
HETATM   19  O24 MIQ B 502      26.213  -4.602  30.266  1.00146.13    -0.273 OA
HETATM   20  C23 MIQ B 502      26.057  -7.856  31.108  1.00139.15     0.045 C 
ENDBRANCH  10  12
BRANCH   5  21
HETATM   21  N6  MIQ B 502      26.091 -14.342  26.200  1.00140.95    -0.377 N 
HETATM   22  C7  MIQ B 502      26.631 -15.658  26.493  1.00142.12     0.149 C 
HETATM   23  C8  MIQ B 502      27.642 -16.104  25.445  1.00144.10     0.187 C 
HETATM   24  O9  MIQ B 502      27.185 -15.925  24.138  1.00148.65    -0.388 OA
HETATM   25  C10 MIQ B 502      26.020 -15.194  23.890  1.00147.44     0.187 C 
HETATM   26  C11 MIQ B 502      25.652 -14.062  24.843  1.00144.08     0.149 C 
ENDBRANCH   5  21
TORSDOF 2
ENDMDL
MODEL 6
REMARK VINA RESULT:      -5.1     16.130     19.184
REMARK  2 active torsions:
REMARK  status: ('A' for Active; 'I' for Inactive)
REMARK    1  A    between atoms: C5_5  and  N6_21 
REMARK    2  A    between atoms: C18_14  and  N17_19 
ROOT
HETATM    1  O1  MIQ B 502      40.083 -15.784  27.233  1.00142.91    -0.171 OA
HETATM    2  C2  MIQ B 502      40.888 -14.875  26.543  1.00141.17     0.195 A 
HETATM    3  C3  MIQ B 502      42.124 -14.114  27.120  1.00141.71     0.035 A 
HETATM    4  C4  MIQ B 502      42.787 -14.104  28.446  1.00142.86     0.046 A 
HETATM    5  C5  MIQ B 502      43.924 -13.288  28.672  1.00139.53     0.031 A 
HETATM    6  C12 MIQ B 502      44.442 -12.455  27.596  1.00139.38     0.030 A 
HETATM    7  C13 MIQ B 502      43.808 -12.465  26.325  1.00141.18     0.019 A 
HETATM    8  C14 MIQ B 502      42.616 -13.326  26.092  1.00138.77     0.033 A 
HETATM    9  C15 MIQ B 502      41.680 -13.600  24.870  1.00142.10     0.195 A 
HETATM   10  N17 MIQ B 502      40.783 -14.478  25.286  1.00139.42    -0.288 N 
HETATM   11  O16 MIQ B 502      41.775 -13.029  23.600  1.00148.93    -0.171 OA
ENDROOT
BRANCH  10  12
HETATM   12  C18 MIQ B 502      39.730 -14.959  24.411  1.00139.82     0.187 C 
HETATM   13  C19 MIQ B 502      38.388 -14.699  25.107  1.00140.06     0.247 C 
HETATM   14  O25 MIQ B 502      38.155 -13.621  25.525  1.00143.95    -0.271 OA
HETATM   15  N20 MIQ B 502      37.394 -15.741  25.261  1.00140.02    -0.296 N 
HETATM   16  H13 MIQ B 502      36.524 -15.560  25.723  1.00142.77     0.171 HD
HETATM   17  C21 MIQ B 502      37.705 -17.051  24.752  1.00142.22     0.224 C 
HETATM   18  C22 MIQ B 502      39.158 -17.481  24.820  1.00139.52     0.106 C 
HETATM   19  O24 MIQ B 502      36.869 -17.753  24.299  1.00146.13    -0.273 OA
HETATM   20  C23 MIQ B 502      39.954 -16.431  24.068  1.00139.15     0.045 C 
ENDBRANCH  10  12
BRANCH   5  21
HETATM   21  N6  MIQ B 502      44.554 -13.277  29.980  1.00140.95    -0.377 N 
HETATM   22  C7  MIQ B 502      44.832 -14.547  30.628  1.00142.12     0.149 C 
HETATM   23  C8  MIQ B 502      44.866 -14.416  32.145  1.00144.10     0.187 C 
HETATM   24  O9  MIQ B 502      45.644 -13.342  32.581  1.00148.65    -0.388 OA
HETATM   25  C10 MIQ B 502      46.115 -12.394  31.669  1.00147.44     0.187 C 
HETATM   26  C11 MIQ B 502      45.282 -12.101  30.425  1.00144.08     0.149 C 
ENDBRANCH   5  21
TORSDOF 2
ENDMDL
MODEL 7
REMARK VINA RESULT:      -5.1      3.502      9.337
REMARK  2 active torsions:
REMARK  status: ('A' for Active; 'I' for Inactive)
REMARK    1  A    between atoms: C5_5  and  N6_21 
REMARK    2  A    between atoms: C18_14  and  N17_19 
ROOT
HETATM    1  O1  MIQ B 502      24.575  -8.794  23.646  1.00142.91    -0.171 OA
HETATM    2  C2  MIQ B 502      24.901  -9.722  24.637  1.00141.17     0.195 A 
HETATM    3  C3  MIQ B 502      25.289  -9.396  26.115  1.00141.71     0.035 A 
HETATM    4  C4  MIQ B 502      25.423  -8.132  26.878  1.00142.86     0.046 A 
HETATM    5  C5  MIQ B 502      25.800  -8.157  28.244  1.00139.53     0.031 A 
HETATM    6  C12 MIQ B 502      26.055  -9.431  28.901  1.00139.38     0.030 A 
HETATM    7  C13 MIQ B 502      25.925 -10.643  28.170  1.00141.18     0.019 A 
HETATM    8  C14 MIQ B 502      25.527 -10.611  26.736  1.00138.77     0.033 A 
HETATM    9  C15 MIQ B 502      25.286 -11.698  25.638  1.00142.10     0.195 A 
HETATM   10  N17 MIQ B 502      24.945 -11.040  24.542  1.00139.42    -0.288 N 
HETATM   11  O16 MIQ B 502      25.408 -13.080  25.788  1.00148.93    -0.171 OA
ENDROOT
BRANCH  10  12
HETATM   12  C18 MIQ B 502      24.658 -11.734  23.300  1.00139.82     0.187 C 
HETATM   13  C19 MIQ B 502      25.523 -11.104  22.201  1.00140.06     0.247 C 
HETATM   14  O25 MIQ B 502      26.682 -10.983  22.380  1.00143.95    -0.271 OA
HETATM   15  N20 MIQ B 502      24.956 -10.658  20.945  1.00140.02    -0.296 N 
HETATM   16  H13 MIQ B 502      25.530 -10.243  20.238  1.00142.77     0.171 HD
HETATM   17  C21 MIQ B 502      23.536 -10.808  20.755  1.00142.22     0.224 C 
HETATM   18  C22 MIQ B 502      22.664 -10.658  21.987  1.00139.52     0.106 C 
HETATM   19  O24 MIQ B 502      23.076 -11.040  19.691  1.00146.13    -0.273 OA
HETATM   20  C23 MIQ B 502      23.162 -11.679  22.994  1.00139.15     0.045 C 
ENDBRANCH  10  12
BRANCH   5  21
HETATM   21  N6  MIQ B 502      25.942  -6.911  28.976  1.00140.95    -0.377 N 
HETATM   22  C7  MIQ B 502      26.028  -5.671  28.224  1.00142.12     0.149 C 
HETATM   23  C8  MIQ B 502      26.790  -4.595  28.988  1.00144.10     0.187 C 
HETATM   24  O9  MIQ B 502      26.364  -4.463  30.311  1.00148.65    -0.388 OA
HETATM   25  C10 MIQ B 502      25.498  -5.404  30.873  1.00147.44     0.187 C 
HETATM   26  C11 MIQ B 502      25.565  -6.845  30.377  1.00144.08     0.149 C 
ENDBRANCH   5  21
TORSDOF 2
ENDMDL
MODEL 8
REMARK VINA RESULT:      -5.1     15.589     18.885
REMARK  2 active torsions:
REMARK  status: ('A' for Active; 'I' for Inactive)
REMARK    1  A    between atoms: C5_5  and  N6_21 
REMARK    2  A    between atoms: C18_14  and  N17_19 
ROOT
HETATM    1  O1  MIQ B 502      38.009 -17.214  19.588  1.00142.91    -0.171 OA
HETATM    2  C2  MIQ B 502      37.217 -17.862  20.538  1.00141.17     0.195 A 
HETATM    3  C3  MIQ B 502      37.221 -17.599  22.077  1.00141.71     0.035 A 
HETATM    4  C4  MIQ B 502      37.981 -16.673  22.950  1.00142.86     0.046 A 
HETATM    5  C5  MIQ B 502      37.759 -16.664  24.351  1.00139.53     0.031 A 
HETATM    6  C12 MIQ B 502      36.778 -17.569  24.933  1.00139.38     0.030 A 
HETATM    7  C13 MIQ B 502      36.049 -18.456  24.096  1.00141.18     0.019 A 
HETATM    8  C14 MIQ B 502      36.285 -18.460  22.626  1.00138.77     0.033 A 
HETATM    9  C15 MIQ B 502      35.694 -19.261  21.420  1.00142.10     0.195 A 
HETATM   10  N17 MIQ B 502      36.314 -18.808  20.343  1.00139.42    -0.288 N 
HETATM   11  O16 MIQ B 502      34.715 -20.254  21.476  1.00148.93    -0.171 OA
ENDROOT
BRANCH  10  12
HETATM   12  C18 MIQ B 502      36.027 -19.342  19.024  1.00139.82     0.187 C 
HETATM   13  C19 MIQ B 502      37.363 -19.722  18.373  1.00140.06     0.247 C 
HETATM   14  O25 MIQ B 502      38.121 -20.402  18.968  1.00143.95    -0.271 OA
HETATM   15  N20 MIQ B 502      37.719 -19.273  17.042  1.00140.02    -0.296 N 
HETATM   16  H13 MIQ B 502      38.597 -19.523  16.631  1.00142.77     0.171 HD
HETATM   17  C21 MIQ B 502      36.782 -18.435  16.340  1.00142.22     0.224 C 
HETATM   18  C22 MIQ B 502      35.956 -17.482  17.182  1.00139.52     0.106 C 
HETATM   19  O24 MIQ B 502      36.660 -18.493  15.166  1.00146.13    -0.273 OA
HETATM   20  C23 MIQ B 502      35.225 -18.332  18.205  1.00139.15     0.045 C 
ENDBRANCH  10  12
BRANCH   5  21
HETATM   21  N6  MIQ B 502      38.521 -15.762  25.195  1.00140.95    -0.377 N 
HETATM   22  C7  MIQ B 502      38.061 -14.392  25.341  1.00142.12     0.149 C 
HETATM   23  C8  MIQ B 502      39.204 -13.440  25.670  1.00144.10     0.187 C 
HETATM   24  O9  MIQ B 502      40.021 -13.908  26.701  1.00148.65    -0.388 OA
HETATM   25  C10 MIQ B 502      39.888 -15.218  27.170  1.00147.44     0.187 C 
HETATM   26  C11 MIQ B 502      39.425 -16.298  26.198  1.00144.08     0.149 C 
ENDBRANCH   5  21
TORSDOF 2
ENDMDL
MODEL 9
REMARK VINA RESULT:      -5.1     13.371     16.558
REMARK  2 active torsions:
REMARK  status: ('A' for Active; 'I' for Inactive)
REMARK    1  A    between atoms: C5_5  and  N6_21 
REMARK    2  A    between atoms: C18_14  and  N17_19 
ROOT
HETATM    1  O1  MIQ B 502      31.544 -17.954  42.187  1.00142.91    -0.171 OA
HETATM    2  C2  MIQ B 502      31.281 -16.846  41.378  1.00141.17     0.195 A 
HETATM    3  C3  MIQ B 502      30.650 -15.494  41.842  1.00141.71     0.035 A 
HETATM    4  C4  MIQ B 502      30.175 -14.988  43.152  1.00142.86     0.046 A 
HETATM    5  C5  MIQ B 502      29.638 -13.681  43.263  1.00139.53     0.031 A 
HETATM    6  C12 MIQ B 502      29.553 -12.832  42.083  1.00139.38     0.030 A 
HETATM    7  C13 MIQ B 502      30.009 -13.316  40.828  1.00141.18     0.019 A 
HETATM    8  C14 MIQ B 502      30.575 -14.689  40.718  1.00138.77     0.033 A 
HETATM    9  C15 MIQ B 502      31.163 -15.545  39.549  1.00142.10     0.195 A 
HETATM   10  N17 MIQ B 502      31.507 -16.705  40.083  1.00139.42    -0.288 N 
HETATM   11  O16 MIQ B 502      31.293 -15.159  38.214  1.00148.93    -0.171 OA
ENDROOT
BRANCH  10  12
HETATM   12  C18 MIQ B 502      32.081 -17.768  39.280  1.00139.82     0.187 C 
HETATM   13  C19 MIQ B 502      31.243 -19.032  39.508  1.00140.06     0.247 C 
HETATM   14  O25 MIQ B 502      30.071 -18.975  39.389  1.00143.95    -0.271 OA
HETATM   15  N20 MIQ B 502      31.851 -20.299  39.860  1.00140.02    -0.296 N 
HETATM   16  H13 MIQ B 502      31.292 -21.115  40.013  1.00142.77     0.171 HD
HETATM   17  C21 MIQ B 502      33.283 -20.341  40.009  1.00142.22     0.224 C 
HETATM   18  C22 MIQ B 502      33.949 -19.091  40.553  1.00139.52     0.106 C 
HETATM   19  O24 MIQ B 502      33.907 -21.301  39.717  1.00146.13    -0.273 OA
HETATM   20  C23 MIQ B 502      33.558 -17.956  39.624  1.00139.15     0.045 C 
ENDBRANCH  10  12
BRANCH   5  21
HETATM   21  N6  MIQ B 502      29.163 -13.204  44.549  1.00140.95    -0.377 N 
HETATM   22  C7  MIQ B 502      29.806 -13.698  45.754  1.00142.12     0.149 C 
HETATM   23  C8  MIQ B 502      28.870 -13.661  46.955  1.00144.10     0.187 C 
HETATM   24  O9  MIQ B 502      28.208 -12.439  47.090  1.00148.65    -0.388 OA
HETATM   25  C10 MIQ B 502      28.264 -11.487  46.069  1.00147.44     0.187 C 
HETATM   26  C11 MIQ B 502      28.403 -11.969  44.629  1.00144.08     0.149 C 
ENDBRANCH   5  21
TORSDOF 2
ENDMDL
