MODEL 1
REMARK VINA RESULT:      -6.4      0.000      0.000
REMARK  2 active torsions:
REMARK  status: ('A' for Active; 'I' for Inactive)
REMARK    1  A    between atoms: C5_5  and  N6_21 
REMARK    2  A    between atoms: C18_14  and  N17_19 
ROOT
HETATM    1  O1  MIQ B 502      15.866 -17.309   0.429  1.00142.91    -0.171 OA
HETATM    2  C2  MIQ B 502      16.794 -18.226   0.927  1.00141.17     0.195 A 
HETATM    3  C3  MIQ B 502      17.939 -18.912   0.115  1.00141.71     0.035 A 
HETATM    4  C4  MIQ B 502      18.378 -18.827  -1.298  1.00142.86     0.046 A 
HETATM    5  C5  MIQ B 502      19.483 -19.591  -1.752  1.00139.53     0.031 A 
HETATM    6  C12 MIQ B 502      20.190 -20.462  -0.824  1.00139.38     0.030 A 
HETATM    7  C13 MIQ B 502      19.769 -20.543   0.531  1.00141.18     0.019 A 
HETATM    8  C14 MIQ B 502      18.610 -19.737   1.003  1.00138.77     0.033 A 
HETATM    9  C15 MIQ B 502      17.878 -19.561   2.374  1.00142.10     0.195 A 
HETATM   10  N17 MIQ B 502      16.904 -18.693   2.159  1.00139.42    -0.288 N 
HETATM   11  O16 MIQ B 502      18.192 -20.197   3.576  1.00148.93    -0.171 OA
ENDROOT
BRANCH  10  12
HETATM   12  C18 MIQ B 502      15.995 -18.297   3.218  1.00139.82     0.187 C 
HETATM   13  C19 MIQ B 502      14.565 -18.561   2.731  1.00140.06     0.247 C 
HETATM   14  O25 MIQ B 502      14.293 -19.621   2.292  1.00143.95    -0.271 OA
HETATM   15  N20 MIQ B 502      13.534 -17.545   2.801  1.00140.02    -0.296 N 
HETATM   16  H13 MIQ B 502      12.606 -17.728   2.474  1.00142.77     0.171 HD
HETATM   17  C21 MIQ B 502      13.894 -16.256   3.332  1.00142.22     0.224 C 
HETATM   18  C22 MIQ B 502      15.306 -15.775   3.059  1.00139.52     0.106 C 
HETATM   19  O24 MIQ B 502      13.125 -15.608   3.955  1.00146.13    -0.273 OA
HETATM   20  C23 MIQ B 502      16.237 -16.840   3.610  1.00139.15     0.045 C 
ENDBRANCH  10  12
BRANCH   5  21
HETATM   21  N6  MIQ B 502      19.893 -19.509  -3.142  1.00140.95    -0.377 N 
HETATM   22  C7  MIQ B 502      19.745 -20.686  -3.980  1.00142.12     0.149 C 
HETATM   23  C8  MIQ B 502      20.745 -20.696  -5.129  1.00144.10     0.187 C 
HETATM   24  O9  MIQ B 502      20.799 -19.480  -5.813  1.00148.65    -0.388 OA
HETATM   25  C10 MIQ B 502      20.156 -18.350  -5.299  1.00147.44     0.187 C 
HETATM   26  C11 MIQ B 502      20.019 -18.214  -3.786  1.00144.08     0.149 C 
ENDBRANCH   5  21
TORSDOF 2
ENDMDL
MODEL 2
REMARK VINA RESULT:      -6.3      2.640      4.273
REMARK  2 active torsions:
REMARK  status: ('A' for Active; 'I' for Inactive)
REMARK    1  A    between atoms: C5_5  and  N6_21 
REMARK    2  A    between atoms: C18_14  and  N17_19 
ROOT
HETATM    1  O1  MIQ B 502      14.569 -15.599   2.633  1.00142.91    -0.171 OA
HETATM    2  C2  MIQ B 502      14.676 -16.893   3.146  1.00141.17     0.195 A 
HETATM    3  C3  MIQ B 502      15.705 -17.980   2.699  1.00141.71     0.035 A 
HETATM    4  C4  MIQ B 502      16.795 -18.000   1.694  1.00142.86     0.046 A 
HETATM    5  C5  MIQ B 502      17.581 -19.166   1.513  1.00139.53     0.031 A 
HETATM    6  C12 MIQ B 502      17.316 -20.349   2.319  1.00139.38     0.030 A 
HETATM    7  C13 MIQ B 502      16.272 -20.330   3.283  1.00141.18     0.019 A 
HETATM    8  C14 MIQ B 502      15.451 -19.102   3.471  1.00138.77     0.033 A 
HETATM    9  C15 MIQ B 502      14.259 -18.709   4.402  1.00142.10     0.195 A 
HETATM   10  N17 MIQ B 502      13.953 -17.459   4.097  1.00139.42    -0.288 N 
HETATM   11  O16 MIQ B 502      13.643 -19.519   5.358  1.00148.93    -0.171 OA
ENDROOT
BRANCH  10  12
HETATM   12  C18 MIQ B 502      12.868 -16.761   4.761  1.00139.82     0.187 C 
HETATM   13  C19 MIQ B 502      13.051 -16.941   6.273  1.00140.06     0.247 C 
HETATM   14  O25 MIQ B 502      14.097 -16.694   6.760  1.00143.95    -0.271 OA
HETATM   15  N20 MIQ B 502      11.972 -17.402   7.123  1.00140.02    -0.296 N 
HETATM   16  H13 MIQ B 502      12.107 -17.522   8.108  1.00142.77     0.171 HD
HETATM   17  C21 MIQ B 502      10.709 -17.707   6.503  1.00142.22     0.224 C 
HETATM   18  C22 MIQ B 502      10.758 -18.275   5.098  1.00139.52     0.106 C 
HETATM   19  O24 MIQ B 502       9.685 -17.518   7.063  1.00146.13    -0.273 OA
HETATM   20  C23 MIQ B 502      11.520 -17.269   4.253  1.00139.15     0.045 C 
ENDBRANCH  10  12
BRANCH   5  21
HETATM   21  N6  MIQ B 502      18.635 -19.176   0.515  1.00140.95    -0.377 N 
HETATM   22  C7  MIQ B 502      19.209 -20.452   0.125  1.00142.12     0.149 C 
HETATM   23  C8  MIQ B 502      20.640 -20.303  -0.377  1.00144.10     0.187 C 
HETATM   24  O9  MIQ B 502      20.784 -19.273  -1.309  1.00148.65    -0.388 OA
HETATM   25  C10 MIQ B 502      19.742 -18.369  -1.532  1.00147.44     0.187 C 
HETATM   26  C11 MIQ B 502      18.800 -18.043  -0.378  1.00144.08     0.149 C 
ENDBRANCH   5  21
TORSDOF 2
ENDMDL
MODEL 3
REMARK VINA RESULT:      -6.3      3.810      6.220
REMARK  2 active torsions:
REMARK  status: ('A' for Active; 'I' for Inactive)
REMARK    1  A    between atoms: C5_5  and  N6_21 
REMARK    2  A    between atoms: C18_14  and  N17_19 
ROOT
HETATM    1  O1  MIQ B 502      13.219 -20.780   5.083  1.00142.91    -0.171 OA
HETATM    2  C2  MIQ B 502      13.542 -19.433   5.262  1.00141.17     0.195 A 
HETATM    3  C3  MIQ B 502      14.605 -18.624   4.452  1.00141.71     0.035 A 
HETATM    4  C4  MIQ B 502      15.524 -18.975   3.343  1.00142.86     0.046 A 
HETATM    5  C5  MIQ B 502      16.396 -17.998   2.799  1.00139.53     0.031 A 
HETATM    6  C12 MIQ B 502      16.387 -16.643   3.334  1.00139.38     0.030 A 
HETATM    7  C13 MIQ B 502      15.505 -16.307   4.396  1.00141.18     0.019 A 
HETATM    8  C14 MIQ B 502      14.591 -17.336   4.962  1.00138.77     0.033 A 
HETATM    9  C15 MIQ B 502      13.512 -17.345   6.093  1.00142.10     0.195 A 
HETATM   10  N17 MIQ B 502      13.028 -18.576   6.127  1.00139.42    -0.288 N 
HETATM   11  O16 MIQ B 502      13.141 -16.270   6.903  1.00148.93    -0.171 OA
ENDROOT
BRANCH  10  12
HETATM   12  C18 MIQ B 502      12.004 -18.961   7.080  1.00139.82     0.187 C 
HETATM   13  C19 MIQ B 502      10.858 -17.948   6.970  1.00140.06     0.247 C 
HETATM   14  O25 MIQ B 502      10.403 -17.705   5.909  1.00143.95    -0.271 OA
HETATM   15  N20 MIQ B 502      10.312 -17.283   8.135  1.00140.02    -0.296 N 
HETATM   16  H13 MIQ B 502       9.568 -16.618   8.049  1.00142.77     0.171 HD
HETATM   17  C21 MIQ B 502      10.891 -17.587   9.418  1.00142.22     0.224 C 
HETATM   18  C22 MIQ B 502      12.376 -17.892   9.441  1.00139.52     0.106 C 
HETATM   19  O24 MIQ B 502      10.237 -17.604  10.403  1.00146.13    -0.273 OA
HETATM   20  C23 MIQ B 502      12.593 -19.052   8.486  1.00139.15     0.045 C 
ENDBRANCH  10  12
BRANCH   5  21
HETATM   21  N6  MIQ B 502      17.301 -18.358   1.724  1.00140.95    -0.377 N 
HETATM   22  C7  MIQ B 502      18.072 -17.307   1.083  1.00142.12     0.149 C 
HETATM   23  C8  MIQ B 502      18.442 -17.666  -0.351  1.00144.10     0.187 C 
HETATM   24  O9  MIQ B 502      18.974 -18.952  -0.469  1.00148.65    -0.388 OA
HETATM   25  C10 MIQ B 502      18.922 -19.841   0.608  1.00147.44     0.187 C 
HETATM   26  C11 MIQ B 502      17.760 -19.730   1.590  1.00144.08     0.149 C 
ENDBRANCH   5  21
TORSDOF 2
ENDMDL
MODEL 4
REMARK VINA RESULT:      -6.2      2.493      8.572
REMARK  2 active torsions:
REMARK  status: ('A' for Active; 'I' for Inactive)
REMARK    1  A    between atoms: C5_5  and  N6_21 
REMARK    2  A    between atoms: C18_14  and  N17_19 
ROOT
HETATM    1  O1  MIQ B 502      15.310 -20.765   1.274  1.00142.91    -0.171 OA
HETATM    2  C2  MIQ B 502      15.933 -19.544   1.545  1.00141.17     0.195 A 
HETATM    3  C3  MIQ B 502      15.580 -18.569   2.713  1.00141.71     0.035 A 
HETATM    4  C4  MIQ B 502      14.581 -18.608   3.807  1.00142.86     0.046 A 
HETATM    5  C5  MIQ B 502      14.500 -17.545   4.741  1.00139.53     0.031 A 
HETATM    6  C12 MIQ B 502      15.404 -16.410   4.626  1.00139.38     0.030 A 
HETATM    7  C13 MIQ B 502      16.363 -16.373   3.578  1.00141.18     0.019 A 
HETATM    8  C14 MIQ B 502      16.445 -17.493   2.601  1.00138.77     0.033 A 
HETATM    9  C15 MIQ B 502      17.340 -17.802   1.356  1.00142.10     0.195 A 
HETATM   10  N17 MIQ B 502      16.929 -18.971   0.893  1.00139.42    -0.288 N 
HETATM   11  O16 MIQ B 502      18.362 -17.002   0.842  1.00148.93    -0.171 OA
ENDROOT
BRANCH  10  12
HETATM   12  C18 MIQ B 502      17.531 -19.573  -0.282  1.00139.82     0.187 C 
HETATM   13  C19 MIQ B 502      19.035 -19.712  -0.019  1.00140.06     0.247 C 
HETATM   14  O25 MIQ B 502      19.400 -20.229   0.977  1.00143.95    -0.271 OA
HETATM   15  N20 MIQ B 502      20.023 -19.230  -0.962  1.00140.02    -0.296 N 
HETATM   16  H13 MIQ B 502      21.003 -19.321  -0.775  1.00142.77     0.171 HD
HETATM   17  C21 MIQ B 502      19.553 -18.594  -2.165  1.00142.22     0.224 C 
HETATM   18  C22 MIQ B 502      18.270 -17.794  -2.056  1.00139.52     0.106 C 
HETATM   19  O24 MIQ B 502      20.138 -18.696  -3.187  1.00146.13    -0.273 OA
HETATM   20  C23 MIQ B 502      17.212 -18.745  -1.527  1.00139.15     0.045 C 
ENDBRANCH  10  12
BRANCH   5  21
HETATM   21  N6  MIQ B 502      13.506 -17.589   5.799  1.00140.95    -0.377 N 
HETATM   22  C7  MIQ B 502      12.994 -18.882   6.217  1.00142.12     0.149 C 
HETATM   23  C8  MIQ B 502      11.591 -18.777   6.801  1.00144.10     0.187 C 
HETATM   24  O9  MIQ B 502      11.470 -17.754   7.744  1.00148.65    -0.388 OA
HETATM   25  C10 MIQ B 502      12.496 -16.820   7.909  1.00147.44     0.187 C 
HETATM   26  C11 MIQ B 502      13.359 -16.462   6.704  1.00144.08     0.149 C 
ENDBRANCH   5  21
TORSDOF 2
ENDMDL
MODEL 5
REMARK VINA RESULT:      -6.2      3.480      8.265
REMARK  2 active torsions:
REMARK  status: ('A' for Active; 'I' for Inactive)
REMARK    1  A    between atoms: C5_5  and  N6_21 
REMARK    2  A    between atoms: C18_14  and  N17_19 
ROOT
HETATM    1  O1  MIQ B 502      16.668 -22.896   2.355  1.00142.91    -0.171 OA
HETATM    2  C2  MIQ B 502      17.337 -21.740   1.946  1.00141.17     0.195 A 
HETATM    3  C3  MIQ B 502      16.970 -20.274   2.339  1.00141.71     0.035 A 
HETATM    4  C4  MIQ B 502      15.909 -19.681   3.187  1.00142.86     0.046 A 
HETATM    5  C5  MIQ B 502      15.830 -18.276   3.359  1.00139.53     0.031 A 
HETATM    6  C12 MIQ B 502      16.799 -17.412   2.700  1.00139.38     0.030 A 
HETATM    7  C13 MIQ B 502      17.817 -17.980   1.888  1.00141.18     0.019 A 
HETATM    8  C14 MIQ B 502      17.896 -19.456   1.713  1.00138.77     0.033 A 
HETATM    9  C15 MIQ B 502      18.844 -20.420   0.927  1.00142.10     0.195 A 
HETATM   10  N17 MIQ B 502      18.399 -21.643   1.164  1.00139.42    -0.288 N 
HETATM   11  O16 MIQ B 502      19.935 -20.058   0.135  1.00148.93    -0.171 OA
ENDROOT
BRANCH  10  12
HETATM   12  C18 MIQ B 502      19.034 -22.807   0.577  1.00139.82     0.187 C 
HETATM   13  C19 MIQ B 502      17.964 -23.582  -0.201  1.00140.06     0.247 C 
HETATM   14  O25 MIQ B 502      17.289 -23.008  -0.981  1.00143.95    -0.271 OA
HETATM   15  N20 MIQ B 502      17.759 -25.004  -0.010  1.00140.02    -0.296 N 
HETATM   16  H13 MIQ B 502      17.052 -25.497  -0.519  1.00142.77     0.171 HD
HETATM   17  C21 MIQ B 502      18.587 -25.680   0.955  1.00142.22     0.224 C 
HETATM   18  C22 MIQ B 502      19.003 -24.881   2.175  1.00139.52     0.106 C 
HETATM   19  O24 MIQ B 502      18.929 -26.801   0.798  1.00146.13    -0.273 OA
HETATM   20  C23 MIQ B 502      19.715 -23.644   1.658  1.00139.15     0.045 C 
ENDBRANCH  10  12
BRANCH   5  21
HETATM   21  N6  MIQ B 502      14.776 -17.708   4.180  1.00140.95    -0.377 N 
HETATM   22  C7  MIQ B 502      14.208 -16.428   3.794  1.00142.12     0.149 C 
HETATM   23  C8  MIQ B 502      13.643 -15.673   4.990  1.00144.10     0.187 C 
HETATM   24  O9  MIQ B 502      12.828 -16.468   5.799  1.00148.65    -0.388 OA
HETATM   25  C10 MIQ B 502      12.773 -17.851   5.606  1.00147.44     0.187 C 
HETATM   26  C11 MIQ B 502      14.011 -18.563   5.072  1.00144.08     0.149 C 
ENDBRANCH   5  21
TORSDOF 2
ENDMDL
MODEL 6
REMARK VINA RESULT:      -6.2      1.735      7.841
REMARK  2 active torsions:
REMARK  status: ('A' for Active; 'I' for Inactive)
REMARK    1  A    between atoms: C5_5  and  N6_21 
REMARK    2  A    between atoms: C18_14  and  N17_19 
ROOT
HETATM    1  O1  MIQ B 502      17.785 -18.713  -1.727  1.00142.91    -0.171 OA
HETATM    2  C2  MIQ B 502      18.100 -19.394  -0.549  1.00141.17     0.195 A 
HETATM    3  C3  MIQ B 502      17.414 -19.199   0.841  1.00141.71     0.035 A 
HETATM    4  C4  MIQ B 502      16.318 -18.326   1.322  1.00142.86     0.046 A 
HETATM    5  C5  MIQ B 502      15.904 -18.377   2.677  1.00139.53     0.031 A 
HETATM    6  C12 MIQ B 502      16.559 -19.294   3.599  1.00139.38     0.030 A 
HETATM    7  C13 MIQ B 502      17.609 -20.132   3.137  1.00141.18     0.019 A 
HETATM    8  C14 MIQ B 502      18.038 -20.076   1.713  1.00138.77     0.033 A 
HETATM    9  C15 MIQ B 502      19.117 -20.819   0.860  1.00142.10     0.195 A 
HETATM   10  N17 MIQ B 502      19.018 -20.328  -0.364  1.00139.42    -0.288 N 
HETATM   11  O16 MIQ B 502      20.005 -21.800   1.306  1.00148.93    -0.171 OA
ENDROOT
BRANCH  10  12
HETATM   12  C18 MIQ B 502      19.886 -20.780  -1.435  1.00139.82     0.187 C 
HETATM   13  C19 MIQ B 502      20.520 -19.540  -2.077  1.00140.06     0.247 C 
HETATM   14  O25 MIQ B 502      21.049 -18.741  -1.389  1.00143.95    -0.271 OA
HETATM   15  N20 MIQ B 502      20.494 -19.324  -3.509  1.00140.02    -0.296 N 
HETATM   16  H13 MIQ B 502      20.905 -18.507  -3.916  1.00142.77     0.171 HD
HETATM   17  C21 MIQ B 502      19.834 -20.308  -4.328  1.00142.22     0.224 C 
HETATM   18  C22 MIQ B 502      18.629 -21.002  -3.721  1.00139.52     0.106 C 
HETATM   19  O24 MIQ B 502      20.217 -20.565  -5.416  1.00146.13    -0.273 OA
HETATM   20  C23 MIQ B 502      19.105 -21.638  -2.427  1.00139.15     0.045 C 
ENDBRANCH  10  12
BRANCH   5  21
HETATM   21  N6  MIQ B 502      14.839 -17.505   3.139  1.00140.95    -0.377 N 
HETATM   22  C7  MIQ B 502      13.507 -18.061   3.300  1.00142.12     0.149 C 
HETATM   23  C8  MIQ B 502      12.425 -17.000   3.147  1.00144.10     0.187 C 
HETATM   24  O9  MIQ B 502      12.685 -15.848   3.892  1.00148.65    -0.388 OA
HETATM   25  C10 MIQ B 502      13.930 -15.663   4.498  1.00147.44     0.187 C 
HETATM   26  C11 MIQ B 502      15.161 -16.272   3.835  1.00144.08     0.149 C 
ENDBRANCH   5  21
TORSDOF 2
ENDMDL
MODEL 7
REMARK VINA RESULT:      -6.2      4.201      5.716
REMARK  2 active torsions:
REMARK  status: ('A' for Active; 'I' for Inactive)
REMARK    1  A    between atoms: C5_5  and  N6_21 
REMARK    2  A    between atoms: C18_14  and  N17_19 
ROOT
HETATM    1  O1  MIQ B 502      13.046 -19.847   4.906  1.00142.91    -0.171 OA
HETATM    2  C2  MIQ B 502      13.995 -18.922   4.463  1.00141.17     0.195 A 
HETATM    3  C3  MIQ B 502      15.369 -19.256   3.800  1.00141.71     0.035 A 
HETATM    4  C4  MIQ B 502      16.051 -20.526   3.453  1.00142.86     0.046 A 
HETATM    5  C5  MIQ B 502      17.329 -20.508   2.839  1.00139.53     0.031 A 
HETATM    6  C12 MIQ B 502      17.973 -19.235   2.549  1.00139.38     0.030 A 
HETATM    7  C13 MIQ B 502      17.319 -18.018   2.880  1.00141.18     0.019 A 
HETATM    8  C14 MIQ B 502      15.977 -18.043   3.522  1.00138.77     0.033 A 
HETATM    9  C15 MIQ B 502      14.974 -16.949   4.016  1.00142.10     0.195 A 
HETATM   10  N17 MIQ B 502      13.933 -17.602   4.505  1.00139.42    -0.288 N 
HETATM   11  O16 MIQ B 502      15.148 -15.566   3.953  1.00148.93    -0.171 OA
ENDROOT
BRANCH  10  12
HETATM   12  C18 MIQ B 502      12.798 -16.901   5.074  1.00139.82     0.187 C 
HETATM   13  C19 MIQ B 502      12.631 -17.377   6.522  1.00140.06     0.247 C 
HETATM   14  O25 MIQ B 502      13.564 -17.364   7.244  1.00143.95    -0.271 OA
HETATM   15  N20 MIQ B 502      11.356 -17.839   7.032  1.00140.02    -0.296 N 
HETATM   16  H13 MIQ B 502      11.262 -18.154   7.977  1.00142.77     0.171 HD
HETATM   17  C21 MIQ B 502      10.234 -17.856   6.129  1.00142.22     0.224 C 
HETATM   18  C22 MIQ B 502      10.536 -18.159   4.674  1.00139.52     0.106 C 
HETATM   19  O24 MIQ B 502       9.135 -17.640   6.505  1.00146.13    -0.273 OA
HETATM   20  C23 MIQ B 502      11.551 -17.125   4.220  1.00139.15     0.045 C 
ENDBRANCH  10  12
BRANCH   5  21
HETATM   21  N6  MIQ B 502      17.992 -21.759   2.518  1.00140.95    -0.377 N 
HETATM   22  C7  MIQ B 502      17.238 -22.995   2.636  1.00142.12     0.149 C 
HETATM   23  C8  MIQ B 502      18.143 -24.189   2.909  1.00144.10     0.187 C 
HETATM   24  O9  MIQ B 502      19.245 -24.242   2.053  1.00148.65    -0.388 OA
HETATM   25  C10 MIQ B 502      19.549 -23.160   1.222  1.00147.44     0.187 C 
HETATM   26  C11 MIQ B 502      19.187 -21.755   1.693  1.00144.08     0.149 C 
ENDBRANCH   5  21
TORSDOF 2
ENDMDL
MODEL 8
REMARK VINA RESULT:      -6.1      4.466      6.171
REMARK  2 active torsions:
REMARK  status: ('A' for Active; 'I' for Inactive)
REMARK    1  A    between atoms: C5_5  and  N6_21 
REMARK    2  A    between atoms: C18_14  and  N17_19 
ROOT
HETATM    1  O1  MIQ B 502      16.684 -23.791   3.969  1.00142.91    -0.171 OA
HETATM    2  C2  MIQ B 502      16.124 -22.517   4.079  1.00141.17     0.195 A 
HETATM    3  C3  MIQ B 502      16.531 -21.256   3.251  1.00141.71     0.035 A 
HETATM    4  C4  MIQ B 502      17.534 -21.016   2.187  1.00142.86     0.046 A 
HETATM    5  C5  MIQ B 502      17.673 -19.729   1.610  1.00139.53     0.031 A 
HETATM    6  C12 MIQ B 502      16.824 -18.637   2.065  1.00139.38     0.030 A 
HETATM    7  C13 MIQ B 502      15.861 -18.867   3.085  1.00141.18     0.019 A 
HETATM    8  C14 MIQ B 502      15.718 -20.222   3.685  1.00138.77     0.033 A 
HETATM    9  C15 MIQ B 502      14.801 -20.844   4.788  1.00142.10     0.195 A 
HETATM   10  N17 MIQ B 502      15.152 -22.116   4.880  1.00139.42    -0.288 N 
HETATM   11  O16 MIQ B 502      13.816 -20.185   5.525  1.00148.93    -0.171 OA
ENDROOT
BRANCH  10  12
HETATM   12  C18 MIQ B 502      14.514 -23.011   5.828  1.00139.82     0.187 C 
HETATM   13  C19 MIQ B 502      15.615 -23.641   6.690  1.00140.06     0.247 C 
HETATM   14  O25 MIQ B 502      16.410 -22.942   7.211  1.00143.95    -0.271 OA
HETATM   15  N20 MIQ B 502      15.704 -25.073   6.888  1.00140.02    -0.296 N 
HETATM   16  H13 MIQ B 502      16.432 -25.472   7.448  1.00142.77     0.171 HD
HETATM   17  C21 MIQ B 502      14.729 -25.907   6.233  1.00142.22     0.224 C 
HETATM   18  C22 MIQ B 502      14.229 -25.436   4.881  1.00139.52     0.106 C 
HETATM   19  O24 MIQ B 502      14.337 -26.905   6.730  1.00146.13    -0.273 OA
HETATM   20  C23 MIQ B 502      13.662 -24.044   5.092  1.00139.15     0.045 C 
ENDBRANCH  10  12
BRANCH   5  21
HETATM   21  N6  MIQ B 502      18.670 -19.504   0.579  1.00140.95    -0.377 N 
HETATM   22  C7  MIQ B 502      19.377 -20.651   0.035  1.00142.12     0.149 C 
HETATM   23  C8  MIQ B 502      20.752 -20.270  -0.499  1.00144.10     0.187 C 
HETATM   24  O9  MIQ B 502      20.723 -19.142  -1.321  1.00148.65    -0.388 OA
HETATM   25  C10 MIQ B 502      19.568 -18.361  -1.409  1.00147.44     0.187 C 
HETATM   26  C11 MIQ B 502      18.651 -18.274  -0.194  1.00144.08     0.149 C 
ENDBRANCH   5  21
TORSDOF 2
ENDMDL
MODEL 9
REMARK VINA RESULT:      -6.0      3.917      9.597
REMARK  2 active torsions:
REMARK  status: ('A' for Active; 'I' for Inactive)
REMARK    1  A    between atoms: C5_5  and  N6_21 
REMARK    2  A    between atoms: C18_14  and  N17_19 
ROOT
HETATM    1  O1  MIQ B 502      15.375 -20.037   3.179  1.00142.91    -0.171 OA
HETATM    2  C2  MIQ B 502      15.280 -18.766   3.751  1.00141.17     0.195 A 
HETATM    3  C3  MIQ B 502      14.310 -18.341   4.899  1.00141.71     0.035 A 
HETATM    4  C4  MIQ B 502      13.280 -19.065   5.682  1.00142.86     0.046 A 
HETATM    5  C5  MIQ B 502      12.541 -18.392   6.688  1.00139.53     0.031 A 
HETATM    6  C12 MIQ B 502      12.797 -16.983   6.952  1.00139.38     0.030 A 
HETATM    7  C13 MIQ B 502      13.785 -16.290   6.202  1.00141.18     0.019 A 
HETATM    8  C14 MIQ B 502      14.559 -17.002   5.149  1.00138.77     0.033 A 
HETATM    9  C15 MIQ B 502      15.692 -16.593   4.152  1.00142.10     0.195 A 
HETATM   10  N17 MIQ B 502      15.976 -17.681   3.456  1.00139.42    -0.288 N 
HETATM   11  O16 MIQ B 502      16.277 -15.332   4.024  1.00148.93    -0.171 OA
ENDROOT
BRANCH  10  12
HETATM   12  C18 MIQ B 502      16.984 -17.671   2.412  1.00139.82     0.187 C 
HETATM   13  C19 MIQ B 502      16.315 -18.130   1.111  1.00140.06     0.247 C 
HETATM   14  O25 MIQ B 502      15.315 -17.609   0.763  1.00143.95    -0.271 OA
HETATM   15  N20 MIQ B 502      16.879 -19.183   0.292  1.00140.02    -0.296 N 
HETATM   16  H13 MIQ B 502      16.429 -19.478  -0.552  1.00142.77     0.171 HD
HETATM   17  C21 MIQ B 502      18.094 -19.811   0.743  1.00142.22     0.224 C 
HETATM   18  C22 MIQ B 502      18.277 -19.942   2.243  1.00139.52     0.106 C 
HETATM   19  O24 MIQ B 502      18.910 -20.198  -0.020  1.00146.13    -0.273 OA
HETATM   20  C23 MIQ B 502      18.175 -18.540   2.815  1.00139.15     0.045 C 
ENDBRANCH  10  12
BRANCH   5  21
HETATM   21  N6  MIQ B 502      11.525 -19.108   7.437  1.00140.95    -0.377 N 
HETATM   22  C7  MIQ B 502      11.900 -19.733   8.694  1.00142.12     0.149 C 
HETATM   23  C8  MIQ B 502      11.009 -20.923   9.026  1.00144.10     0.187 C 
HETATM   24  O9  MIQ B 502       9.649 -20.641   8.882  1.00148.65    -0.388 OA
HETATM   25  C10 MIQ B 502       9.233 -19.455   8.270  1.00147.44     0.187 C 
HETATM   26  C11 MIQ B 502      10.119 -18.842   7.191  1.00144.08     0.149 C 
ENDBRANCH   5  21
TORSDOF 2
ENDMDL
