MODEL 1
REMARK VINA RESULT:      -7.3      0.000      0.000
REMARK  2 active torsions:
REMARK  status: ('A' for Active; 'I' for Inactive)
REMARK    1  A    between atoms: C5_5  and  N6_21 
REMARK    2  A    between atoms: C18_14  and  N17_19 
ROOT
HETATM    1  O1  MIQ B 502     -22.165  12.981  -3.325  1.00142.91    -0.171 OA
HETATM    2  C2  MIQ B 502     -22.047  11.590  -3.270  1.00141.17     0.195 A 
HETATM    3  C3  MIQ B 502     -22.750  10.566  -4.217  1.00141.71     0.035 A 
HETATM    4  C4  MIQ B 502     -23.673  10.710  -5.368  1.00142.86     0.046 A 
HETATM    5  C5  MIQ B 502     -24.155   9.563  -6.047  1.00139.53     0.031 A 
HETATM    6  C12 MIQ B 502     -23.740   8.237  -5.612  1.00139.38     0.030 A 
HETATM    7  C13 MIQ B 502     -22.855   8.099  -4.510  1.00141.18     0.019 A 
HETATM    8  C14 MIQ B 502     -22.350   9.307  -3.801  1.00138.77     0.033 A 
HETATM    9  C15 MIQ B 502     -21.392   9.550  -2.589  1.00142.10     0.195 A 
HETATM   10  N17 MIQ B 502     -21.331  10.862  -2.430  1.00139.42    -0.288 N 
HETATM   11  O16 MIQ B 502     -20.739   8.577  -1.832  1.00148.93    -0.171 OA
ENDROOT
BRANCH  10  12
HETATM   12  C18 MIQ B 502     -20.537  11.460  -1.373  1.00139.82     0.187 C 
HETATM   13  C19 MIQ B 502     -21.435  12.443  -0.612  1.00140.06     0.247 C 
HETATM   14  O25 MIQ B 502     -22.485  12.077  -0.219  1.00143.95    -0.271 OA
HETATM   15  N20 MIQ B 502     -21.027  13.809  -0.355  1.00140.02    -0.296 N 
HETATM   16  H13 MIQ B 502     -21.625  14.442   0.138  1.00142.77     0.171 HD
HETATM   17  C21 MIQ B 502     -19.744  14.235  -0.853  1.00142.22     0.224 C 
HETATM   18  C22 MIQ B 502     -19.283  13.621  -2.161  1.00139.52     0.106 C 
HETATM   19  O24 MIQ B 502     -19.083  15.020  -0.267  1.00146.13    -0.273 OA
HETATM   20  C23 MIQ B 502     -19.286  12.117  -1.956  1.00139.15     0.045 C 
ENDBRANCH  10  12
BRANCH   5  21
HETATM   21  N6  MIQ B 502     -25.071   9.718  -7.163  1.00140.95    -0.377 N 
HETATM   22  C7  MIQ B 502     -25.611   8.524  -7.790  1.00142.12     0.149 C 
HETATM   23  C8  MIQ B 502     -25.987   8.766  -9.246  1.00144.10     0.187 C 
HETATM   24  O9  MIQ B 502     -26.740   9.928  -9.427  1.00148.65    -0.388 OA
HETATM   25  C10 MIQ B 502     -26.892  10.843  -8.382  1.00147.44     0.187 C 
HETATM   26  C11 MIQ B 502     -25.768  10.977  -7.361  1.00144.08     0.149 C 
ENDBRANCH   5  21
TORSDOF 2
ENDMDL
MODEL 2
REMARK VINA RESULT:      -7.1      4.227      9.033
REMARK  2 active torsions:
REMARK  status: ('A' for Active; 'I' for Inactive)
REMARK    1  A    between atoms: C5_5  and  N6_21 
REMARK    2  A    between atoms: C18_14  and  N17_19 
ROOT
HETATM    1  O1  MIQ B 502     -22.339  15.220  -3.137  1.00142.91    -0.171 OA
HETATM    2  C2  MIQ B 502     -21.232  14.815  -2.387  1.00141.17     0.195 A 
HETATM    3  C3  MIQ B 502     -20.112  15.745  -1.821  1.00141.71     0.035 A 
HETATM    4  C4  MIQ B 502     -19.874  17.207  -1.879  1.00142.86     0.046 A 
HETATM    5  C5  MIQ B 502     -18.738  17.774  -1.250  1.00139.53     0.031 A 
HETATM    6  C12 MIQ B 502     -17.800  16.915  -0.542  1.00139.38     0.030 A 
HETATM    7  C13 MIQ B 502     -18.028  15.513  -0.484  1.00141.18     0.019 A 
HETATM    8  C14 MIQ B 502     -19.224  14.924  -1.145  1.00138.77     0.033 A 
HETATM    9  C15 MIQ B 502     -19.797  13.476  -1.292  1.00142.10     0.195 A 
HETATM   10  N17 MIQ B 502     -20.907  13.593  -2.002  1.00139.42    -0.288 N 
HETATM   11  O16 MIQ B 502     -19.243  12.302  -0.779  1.00148.93    -0.171 OA
ENDROOT
BRANCH  10  12
HETATM   12  C18 MIQ B 502     -21.708  12.435  -2.352  1.00139.82     0.187 C 
HETATM   13  C19 MIQ B 502     -21.995  11.657  -1.061  1.00140.06     0.247 C 
HETATM   14  O25 MIQ B 502     -22.435  12.231  -0.129  1.00143.95    -0.271 OA
HETATM   15  N20 MIQ B 502     -21.747  10.234  -0.955  1.00140.02    -0.296 N 
HETATM   16  H13 MIQ B 502     -21.932   9.740  -0.105  1.00142.77     0.171 HD
HETATM   17  C21 MIQ B 502     -21.200   9.558  -2.103  1.00142.22     0.224 C 
HETATM   18  C22 MIQ B 502     -20.245  10.354  -2.972  1.00139.52     0.106 C 
HETATM   19  O24 MIQ B 502     -21.488   8.440  -2.357  1.00146.13    -0.273 OA
HETATM   20  C23 MIQ B 502     -20.996  11.597  -3.412  1.00139.15     0.045 C 
ENDBRANCH  10  12
BRANCH   5  21
HETATM   21  N6  MIQ B 502     -18.510  19.205  -1.328  1.00140.95    -0.377 N 
HETATM   22  C7  MIQ B 502     -17.245  19.679  -1.864  1.00142.12     0.149 C 
HETATM   23  C8  MIQ B 502     -16.874  21.052  -1.317  1.00144.10     0.187 C 
HETATM   24  O9  MIQ B 502     -17.929  21.965  -1.380  1.00148.65    -0.388 OA
HETATM   25  C10 MIQ B 502     -19.219  21.535  -1.699  1.00147.44     0.187 C 
HETATM   26  C11 MIQ B 502     -19.636  20.122  -1.303  1.00144.08     0.149 C 
ENDBRANCH   5  21
TORSDOF 2
ENDMDL
MODEL 3
REMARK VINA RESULT:      -7.0      4.039      9.050
REMARK  2 active torsions:
REMARK  status: ('A' for Active; 'I' for Inactive)
REMARK    1  A    between atoms: C5_5  and  N6_21 
REMARK    2  A    between atoms: C18_14  and  N17_19 
ROOT
HETATM    1  O1  MIQ B 502     -20.654  14.839  -4.763  1.00142.91    -0.171 OA
HETATM    2  C2  MIQ B 502     -20.209  14.484  -3.487  1.00141.17     0.195 A 
HETATM    3  C3  MIQ B 502     -19.355  15.372  -2.528  1.00141.71     0.035 A 
HETATM    4  C4  MIQ B 502     -18.794  16.740  -2.635  1.00142.86     0.046 A 
HETATM    5  C5  MIQ B 502     -18.041  17.291  -1.567  1.00139.53     0.031 A 
HETATM    6  C12 MIQ B 502     -17.819  16.509  -0.360  1.00139.38     0.030 A 
HETATM    7  C13 MIQ B 502     -18.357  15.198  -0.257  1.00141.18     0.019 A 
HETATM    8  C14 MIQ B 502     -19.149  14.625  -1.379  1.00138.77     0.033 A 
HETATM    9  C15 MIQ B 502     -19.880  13.265  -1.627  1.00142.10     0.195 A 
HETATM   10  N17 MIQ B 502     -20.414  13.353  -2.834  1.00139.42    -0.288 N 
HETATM   11  O16 MIQ B 502     -19.949  12.182  -0.750  1.00148.93    -0.171 OA
ENDROOT
BRANCH  10  12
HETATM   12  C18 MIQ B 502     -21.166  12.254  -3.411  1.00139.82     0.187 C 
HETATM   13  C19 MIQ B 502     -22.315  11.919  -2.453  1.00140.06     0.247 C 
HETATM   14  O25 MIQ B 502     -23.022  12.785  -2.076  1.00143.95    -0.271 OA
HETATM   15  N20 MIQ B 502     -22.563  10.565  -2.001  1.00140.02    -0.296 N 
HETATM   16  H13 MIQ B 502     -23.313  10.361  -1.370  1.00142.77     0.171 HD
HETATM   17  C21 MIQ B 502     -21.680   9.526  -2.466  1.00142.22     0.224 C 
HETATM   18  C22 MIQ B 502     -20.232   9.914  -2.695  1.00139.52     0.106 C 
HETATM   19  O24 MIQ B 502     -22.069   8.428  -2.665  1.00146.13    -0.273 OA
HETATM   20  C23 MIQ B 502     -20.245  11.065  -3.684  1.00139.15     0.045 C 
ENDBRANCH  10  12
BRANCH   5  21
HETATM   21  N6  MIQ B 502     -17.485  18.626  -1.692  1.00140.95    -0.377 N 
HETATM   22  C7  MIQ B 502     -17.029  19.070  -2.998  1.00142.12     0.149 C 
HETATM   23  C8  MIQ B 502     -15.939  20.130  -2.890  1.00144.10     0.187 C 
HETATM   24  O9  MIQ B 502     -16.260  21.149  -1.992  1.00148.65    -0.388 OA
HETATM   25  C10 MIQ B 502     -17.365  21.025  -1.145  1.00147.44     0.187 C 
HETATM   26  C11 MIQ B 502     -17.778  19.631  -0.684  1.00144.08     0.149 C 
ENDBRANCH   5  21
TORSDOF 2
ENDMDL
MODEL 4
REMARK VINA RESULT:      -6.6      3.750      6.921
REMARK  2 active torsions:
REMARK  status: ('A' for Active; 'I' for Inactive)
REMARK    1  A    between atoms: C5_5  and  N6_21 
REMARK    2  A    between atoms: C18_14  and  N17_19 
ROOT
HETATM    1  O1  MIQ B 502     -20.512  16.401  -4.629  1.00142.91    -0.171 OA
HETATM    2  C2  MIQ B 502     -19.798  16.044  -3.483  1.00141.17     0.195 A 
HETATM    3  C3  MIQ B 502     -19.791  14.639  -2.800  1.00141.71     0.035 A 
HETATM    4  C4  MIQ B 502     -20.463  13.354  -3.107  1.00142.86     0.046 A 
HETATM    5  C5  MIQ B 502     -20.254  12.221  -2.280  1.00139.53     0.031 A 
HETATM    6  C12 MIQ B 502     -19.374  12.322  -1.125  1.00139.38     0.030 A 
HETATM    7  C13 MIQ B 502     -18.729  13.554  -0.831  1.00141.18     0.019 A 
HETATM    8  C14 MIQ B 502     -18.950  14.739  -1.704  1.00138.77     0.033 A 
HETATM    9  C15 MIQ B 502     -18.431  16.214  -1.707  1.00142.10     0.195 A 
HETATM   10  N17 MIQ B 502     -18.992  16.797  -2.754  1.00139.42    -0.288 N 
HETATM   11  O16 MIQ B 502     -17.556  16.794  -0.786  1.00148.93    -0.171 OA
ENDROOT
BRANCH  10  12
HETATM   12  C18 MIQ B 502     -18.748  18.193  -3.065  1.00139.82     0.187 C 
HETATM   13  C19 MIQ B 502     -17.233  18.380  -3.216  1.00140.06     0.247 C 
HETATM   14  O25 MIQ B 502     -16.632  17.658  -3.929  1.00143.95    -0.271 OA
HETATM   15  N20 MIQ B 502     -16.519  19.424  -2.510  1.00140.02    -0.296 N 
HETATM   16  H13 MIQ B 502     -15.529  19.532  -2.612  1.00142.77     0.171 HD
HETATM   17  C21 MIQ B 502     -17.273  20.286  -1.637  1.00142.22     0.224 C 
HETATM   18  C22 MIQ B 502     -18.453  19.663  -0.918  1.00139.52     0.106 C 
HETATM   19  O24 MIQ B 502     -16.987  21.424  -1.495  1.00146.13    -0.273 OA
HETATM   20  C23 MIQ B 502     -19.361  19.092  -1.992  1.00139.15     0.045 C 
ENDBRANCH  10  12
BRANCH   5  21
HETATM   21  N6  MIQ B 502     -20.930  10.973  -2.583  1.00140.95    -0.377 N 
HETATM   22  C7  MIQ B 502     -21.638  10.289  -1.515  1.00142.12     0.149 C 
HETATM   23  C8  MIQ B 502     -21.725   8.788  -1.760  1.00144.10     0.187 C 
HETATM   24  O9  MIQ B 502     -22.147   8.473  -3.053  1.00148.65    -0.388 OA
HETATM   25  C10 MIQ B 502     -22.233   9.466  -4.032  1.00147.44     0.187 C 
HETATM   26  C11 MIQ B 502     -21.273  10.649  -3.957  1.00144.08     0.149 C 
ENDBRANCH   5  21
TORSDOF 2
ENDMDL
MODEL 5
REMARK VINA RESULT:      -6.6      4.414      9.287
REMARK  2 active torsions:
REMARK  status: ('A' for Active; 'I' for Inactive)
REMARK    1  A    between atoms: C5_5  and  N6_21 
REMARK    2  A    between atoms: C18_14  and  N17_19 
ROOT
HETATM    1  O1  MIQ B 502     -19.125  15.232   0.466  1.00142.91    -0.171 OA
HETATM    2  C2  MIQ B 502     -19.223  15.025  -0.912  1.00141.17     0.195 A 
HETATM    3  C3  MIQ B 502     -18.794  16.029  -2.029  1.00141.71     0.035 A 
HETATM    4  C4  MIQ B 502     -18.201  17.387  -2.005  1.00142.86     0.046 A 
HETATM    5  C5  MIQ B 502     -17.913  18.065  -3.216  1.00139.53     0.031 A 
HETATM    6  C12 MIQ B 502     -18.202  17.422  -4.490  1.00139.38     0.030 A 
HETATM    7  C13 MIQ B 502     -18.770  16.120  -4.514  1.00141.18     0.019 A 
HETATM    8  C14 MIQ B 502     -19.068  15.412  -3.239  1.00138.77     0.033 A 
HETATM    9  C15 MIQ B 502     -19.669  14.016  -2.871  1.00142.10     0.195 A 
HETATM   10  N17 MIQ B 502     -19.683  13.962  -1.549  1.00139.42    -0.288 N 
HETATM   11  O16 MIQ B 502     -20.104  13.033  -3.761  1.00148.93    -0.171 OA
ENDROOT
BRANCH  10  12
HETATM   12  C18 MIQ B 502     -20.198  12.802  -0.845  1.00139.82     0.187 C 
HETATM   13  C19 MIQ B 502     -19.484  11.563  -1.400  1.00140.06     0.247 C 
HETATM   14  O25 MIQ B 502     -18.306  11.555  -1.459  1.00143.95    -0.271 OA
HETATM   15  N20 MIQ B 502     -20.217  10.397  -1.848  1.00140.02    -0.296 N 
HETATM   16  H13 MIQ B 502     -19.740   9.597  -2.215  1.00142.77     0.171 HD
HETATM   17  C21 MIQ B 502     -21.655  10.435  -1.775  1.00142.22     0.224 C 
HETATM   18  C22 MIQ B 502     -22.314  11.782  -2.002  1.00139.52     0.106 C 
HETATM   19  O24 MIQ B 502     -22.288   9.463  -1.545  1.00146.13    -0.273 OA
HETATM   20  C23 MIQ B 502     -21.718  12.731  -0.977  1.00139.15     0.045 C 
ENDBRANCH  10  12
BRANCH   5  21
HETATM   21  N6  MIQ B 502     -17.346  19.401  -3.178  1.00140.95    -0.377 N 
HETATM   22  C7  MIQ B 502     -16.964  19.956  -1.891  1.00142.12     0.149 C 
HETATM   23  C8  MIQ B 502     -17.012  21.479  -1.893  1.00144.10     0.187 C 
HETATM   24  O9  MIQ B 502     -16.372  22.041  -2.999  1.00148.65    -0.388 OA
HETATM   25  C10 MIQ B 502     -15.964  21.236  -4.066  1.00147.44     0.187 C 
HETATM   26  C11 MIQ B 502     -16.767  19.978  -4.378  1.00144.08     0.149 C 
ENDBRANCH   5  21
TORSDOF 2
ENDMDL
MODEL 6
REMARK VINA RESULT:      -6.6      3.889      8.755
REMARK  2 active torsions:
REMARK  status: ('A' for Active; 'I' for Inactive)
REMARK    1  A    between atoms: C5_5  and  N6_21 
REMARK    2  A    between atoms: C18_14  and  N17_19 
ROOT
HETATM    1  O1  MIQ B 502     -19.572  12.997  -1.849  1.00142.91    -0.171 OA
HETATM    2  C2  MIQ B 502     -20.602  13.845  -2.260  1.00141.17     0.195 A 
HETATM    3  C3  MIQ B 502     -20.508  15.395  -2.432  1.00141.71     0.035 A 
HETATM    4  C4  MIQ B 502     -19.415  16.377  -2.241  1.00142.86     0.046 A 
HETATM    5  C5  MIQ B 502     -19.639  17.755  -2.485  1.00139.53     0.031 A 
HETATM    6  C12 MIQ B 502     -20.950  18.207  -2.926  1.00139.38     0.030 A 
HETATM    7  C13 MIQ B 502     -21.999  17.266  -3.111  1.00141.18     0.019 A 
HETATM    8  C14 MIQ B 502     -21.757  15.820  -2.855  1.00138.77     0.033 A 
HETATM    9  C15 MIQ B 502     -22.631  14.526  -2.947  1.00142.10     0.195 A 
HETATM   10  N17 MIQ B 502     -21.843  13.527  -2.589  1.00139.42    -0.288 N 
HETATM   11  O16 MIQ B 502     -23.972  14.449  -3.328  1.00148.93    -0.171 OA
ENDROOT
BRANCH  10  12
HETATM   12  C18 MIQ B 502     -22.327  12.160  -2.540  1.00139.82     0.187 C 
HETATM   13  C19 MIQ B 502     -22.007  11.599  -1.149  1.00140.06     0.247 C 
HETATM   14  O25 MIQ B 502     -22.325  12.213  -0.194  1.00143.95    -0.271 OA
HETATM   15  N20 MIQ B 502     -21.329  10.331  -0.975  1.00140.02    -0.296 N 
HETATM   16  H13 MIQ B 502     -21.120   9.979  -0.061  1.00142.77     0.171 HD
HETATM   17  C21 MIQ B 502     -20.941   9.605  -2.157  1.00142.22     0.224 C 
HETATM   18  C22 MIQ B 502     -20.540  10.432  -3.363  1.00139.52     0.106 C 
HETATM   19  O24 MIQ B 502     -20.942   8.423  -2.184  1.00146.13    -0.273 OA
HETATM   20  C23 MIQ B 502     -21.716  11.339  -3.675  1.00139.15     0.045 C 
ENDBRANCH  10  12
BRANCH   5  21
HETATM   21  N6  MIQ B 502     -18.563  18.708  -2.279  1.00140.95    -0.377 N 
HETATM   22  C7  MIQ B 502     -17.992  19.371  -3.438  1.00142.12     0.149 C 
HETATM   23  C8  MIQ B 502     -16.549  19.796  -3.197  1.00144.10     0.187 C 
HETATM   24  O9  MIQ B 502     -16.374  20.462  -1.982  1.00148.65    -0.388 OA
HETATM   25  C10 MIQ B 502     -17.403  20.490  -1.037  1.00147.44     0.187 C 
HETATM   26  C11 MIQ B 502     -18.367  19.311  -0.972  1.00144.08     0.149 C 
ENDBRANCH   5  21
TORSDOF 2
ENDMDL
MODEL 7
REMARK VINA RESULT:      -6.6      4.026      8.691
REMARK  2 active torsions:
REMARK  status: ('A' for Active; 'I' for Inactive)
REMARK    1  A    between atoms: C5_5  and  N6_21 
REMARK    2  A    between atoms: C18_14  and  N17_19 
ROOT
HETATM    1  O1  MIQ B 502     -20.400  13.252  -1.502  1.00142.91    -0.171 OA
HETATM    2  C2  MIQ B 502     -20.156  13.562  -2.842  1.00141.17     0.195 A 
HETATM    3  C3  MIQ B 502     -19.459  14.853  -3.378  1.00141.71     0.035 A 
HETATM    4  C4  MIQ B 502     -18.884  16.049  -2.717  1.00142.86     0.046 A 
HETATM    5  C5  MIQ B 502     -18.302  17.085  -3.492  1.00139.53     0.031 A 
HETATM    6  C12 MIQ B 502     -18.270  16.971  -4.943  1.00139.38     0.030 A 
HETATM    7  C13 MIQ B 502     -18.820  15.824  -5.576  1.00141.18     0.019 A 
HETATM    8  C14 MIQ B 502     -19.428  14.739  -4.758  1.00138.77     0.033 A 
HETATM    9  C15 MIQ B 502     -20.108  13.369  -5.081  1.00142.10     0.195 A 
HETATM   10  N17 MIQ B 502     -20.449  12.847  -3.915  1.00139.42    -0.288 N 
HETATM   11  O16 MIQ B 502     -20.314  12.816  -6.346  1.00148.93    -0.171 OA
ENDROOT
BRANCH  10  12
HETATM   12  C18 MIQ B 502     -21.127  11.567  -3.827  1.00139.82     0.187 C 
HETATM   13  C19 MIQ B 502     -22.356  11.749  -2.928  1.00140.06     0.247 C 
HETATM   14  O25 MIQ B 502     -23.107  12.631  -3.151  1.00143.95    -0.271 OA
HETATM   15  N20 MIQ B 502     -22.626  10.864  -1.814  1.00140.02    -0.296 N 
HETATM   16  H13 MIQ B 502     -23.428  10.998  -1.230  1.00142.77     0.171 HD
HETATM   17  C21 MIQ B 502     -21.689   9.801  -1.555  1.00142.22     0.224 C 
HETATM   18  C22 MIQ B 502     -20.231  10.088  -1.860  1.00139.52     0.106 C 
HETATM   19  O24 MIQ B 502     -22.042   8.756  -1.131  1.00146.13    -0.273 OA
HETATM   20  C23 MIQ B 502     -20.168  10.490  -3.323  1.00139.15     0.045 C 
ENDBRANCH  10  12
BRANCH   5  21
HETATM   21  N6  MIQ B 502     -17.755  18.257  -2.833  1.00140.95    -0.377 N 
HETATM   22  C7  MIQ B 502     -17.729  18.289  -1.380  1.00142.12     0.149 C 
HETATM   23  C8  MIQ B 502     -17.762  19.713  -0.842  1.00144.10     0.187 C 
HETATM   24  O9  MIQ B 502     -16.845  20.554  -1.474  1.00148.65    -0.388 OA
HETATM   25  C10 MIQ B 502     -16.172  20.132  -2.623  1.00147.44     0.187 C 
HETATM   26  C11 MIQ B 502     -16.871  19.151  -3.559  1.00144.08     0.149 C 
ENDBRANCH   5  21
TORSDOF 2
ENDMDL
MODEL 8
REMARK VINA RESULT:      -6.5      2.597      8.490
REMARK  2 active torsions:
REMARK  status: ('A' for Active; 'I' for Inactive)
REMARK    1  A    between atoms: C5_5  and  N6_21 
REMARK    2  A    between atoms: C18_14  and  N17_19 
ROOT
HETATM    1  O1  MIQ B 502     -21.707  13.686  -4.955  1.00142.91    -0.171 OA
HETATM    2  C2  MIQ B 502     -21.019  12.934  -4.000  1.00141.17     0.195 A 
HETATM    3  C3  MIQ B 502     -20.149  13.500  -2.833  1.00141.71     0.035 A 
HETATM    4  C4  MIQ B 502     -19.802  14.872  -2.393  1.00142.86     0.046 A 
HETATM    5  C5  MIQ B 502     -18.968  15.073  -1.264  1.00139.53     0.031 A 
HETATM    6  C12 MIQ B 502     -18.452  13.925  -0.533  1.00139.38     0.030 A 
HETATM    7  C13 MIQ B 502     -18.785  12.609  -0.954  1.00141.18     0.019 A 
HETATM    8  C14 MIQ B 502     -19.663  12.404  -2.138  1.00138.77     0.033 A 
HETATM    9  C15 MIQ B 502     -20.235  11.151  -2.878  1.00142.10     0.195 A 
HETATM   10  N17 MIQ B 502     -20.964  11.619  -3.879  1.00139.42    -0.288 N 
HETATM   11  O16 MIQ B 502     -20.017   9.813  -2.547  1.00148.93    -0.171 OA
ENDROOT
BRANCH  10  12
HETATM   12  C18 MIQ B 502     -21.643  10.729  -4.802  1.00139.82     0.187 C 
HETATM   13  C19 MIQ B 502     -21.253  11.144  -6.225  1.00140.06     0.247 C 
HETATM   14  O25 MIQ B 502     -20.111  11.271  -6.496  1.00143.95    -0.271 OA
HETATM   15  N20 MIQ B 502     -22.247  11.380  -7.252  1.00140.02    -0.296 N 
HETATM   16  H13 MIQ B 502     -21.979  11.657  -8.176  1.00142.77     0.171 HD
HETATM   17  C21 MIQ B 502     -23.634  11.230  -6.895  1.00142.22     0.224 C 
HETATM   18  C22 MIQ B 502     -24.017  11.605  -5.476  1.00139.52     0.106 C 
HETATM   19  O24 MIQ B 502     -24.431  10.828  -7.669  1.00146.13    -0.273 OA
HETATM   20  C23 MIQ B 502     -23.151  10.761  -4.558  1.00139.15     0.045 C 
ENDBRANCH  10  12
BRANCH   5  21
HETATM   21  N6  MIQ B 502     -18.624  16.422  -0.854  1.00140.95    -0.377 N 
HETATM   22  C7  MIQ B 502     -19.369  17.533  -1.422  1.00142.12     0.149 C 
HETATM   23  C8  MIQ B 502     -18.550  18.817  -1.441  1.00144.10     0.187 C 
HETATM   24  O9  MIQ B 502     -17.924  19.080  -0.221  1.00148.65    -0.388 OA
HETATM   25  C10 MIQ B 502     -17.900  18.112   0.786  1.00147.44     0.187 C 
HETATM   26  C11 MIQ B 502     -17.895  16.641   0.383  1.00144.08     0.149 C 
ENDBRANCH   5  21
TORSDOF 2
ENDMDL
MODEL 9
REMARK VINA RESULT:      -6.4      1.215      2.340
REMARK  2 active torsions:
REMARK  status: ('A' for Active; 'I' for Inactive)
REMARK    1  A    between atoms: C5_5  and  N6_21 
REMARK    2  A    between atoms: C18_14  and  N17_19 
ROOT
HETATM    1  O1  MIQ B 502     -21.078   9.194  -2.881  1.00142.91    -0.171 OA
HETATM    2  C2  MIQ B 502     -21.639  10.376  -3.369  1.00141.17     0.195 A 
HETATM    3  C3  MIQ B 502     -22.607  10.504  -4.587  1.00141.71     0.035 A 
HETATM    4  C4  MIQ B 502     -23.194   9.522  -5.530  1.00142.86     0.046 A 
HETATM    5  C5  MIQ B 502     -24.065   9.952  -6.563  1.00139.53     0.031 A 
HETATM    6  C12 MIQ B 502     -24.385  11.366  -6.697  1.00139.38     0.030 A 
HETATM    7  C13 MIQ B 502     -23.823  12.307  -5.793  1.00141.18     0.019 A 
HETATM    8  C14 MIQ B 502     -22.911  11.850  -4.709  1.00138.77     0.033 A 
HETATM    9  C15 MIQ B 502     -22.128  12.562  -3.558  1.00142.10     0.195 A 
HETATM   10  N17 MIQ B 502     -21.480  11.607  -2.912  1.00139.42    -0.288 N 
HETATM   11  O16 MIQ B 502     -22.116  13.929  -3.277  1.00148.93    -0.171 OA
ENDROOT
BRANCH  10  12
HETATM   12  C18 MIQ B 502     -20.625  11.905  -1.778  1.00139.82     0.187 C 
HETATM   13  C19 MIQ B 502     -21.454  12.703  -0.764  1.00140.06     0.247 C 
HETATM   14  O25 MIQ B 502     -22.505  12.287  -0.426  1.00143.95    -0.271 OA
HETATM   15  N20 MIQ B 502     -20.980  13.952  -0.204  1.00140.02    -0.296 N 
HETATM   16  H13 MIQ B 502     -21.534  14.466   0.452  1.00142.77     0.171 HD
HETATM   17  C21 MIQ B 502     -19.699  14.443  -0.640  1.00142.22     0.224 C 
HETATM   18  C22 MIQ B 502     -19.309  14.150  -2.076  1.00139.52     0.106 C 
HETATM   19  O24 MIQ B 502     -18.986  15.041   0.089  1.00146.13    -0.273 OA
HETATM   20  C23 MIQ B 502     -19.368  12.642  -2.239  1.00139.15     0.045 C 
ENDBRANCH  10  12
BRANCH   5  21
HETATM   21  N6  MIQ B 502     -24.621   8.981  -7.488  1.00140.95    -0.377 N 
HETATM   22  C7  MIQ B 502     -24.106   7.622  -7.461  1.00142.12     0.149 C 
HETATM   23  C8  MIQ B 502     -24.262   6.928  -8.808  1.00144.10     0.187 C 
HETATM   24  O9  MIQ B 502     -25.542   7.071  -9.348  1.00148.65    -0.388 OA
HETATM   25  C10 MIQ B 502     -26.455   7.962  -8.777  1.00147.44     0.187 C 
HETATM   26  C11 MIQ B 502     -25.921   9.215  -8.091  1.00144.08     0.149 C 
ENDBRANCH   5  21
TORSDOF 2
ENDMDL
