MODEL 1
REMARK VINA RESULT:      -7.6      0.000      0.000
REMARK  2 active torsions:
REMARK  status: ('A' for Active; 'I' for Inactive)
REMARK    1  A    between atoms: C5_5  and  N6_21 
REMARK    2  A    between atoms: C18_14  and  N17_19 
ROOT
HETATM    1  O1  MIQ B 502      20.162  -0.488 -10.060  1.00142.91    -0.171 OA
HETATM    2  C2  MIQ B 502      18.926  -0.798 -10.634  1.00141.17     0.195 A 
HETATM    3  C3  MIQ B 502      17.524  -0.559  -9.988  1.00141.71     0.035 A 
HETATM    4  C4  MIQ B 502      17.082   0.016  -8.696  1.00142.86     0.046 A 
HETATM    5  C5  MIQ B 502      15.701   0.104  -8.386  1.00139.53     0.031 A 
HETATM    6  C12 MIQ B 502      14.713  -0.373  -9.344  1.00139.38     0.030 A 
HETATM    7  C13 MIQ B 502      15.137  -0.924 -10.583  1.00141.18     0.019 A 
HETATM    8  C14 MIQ B 502      16.588  -1.011 -10.904  1.00138.77     0.033 A 
HETATM    9  C15 MIQ B 502      17.414  -1.533 -12.125  1.00142.10     0.195 A 
HETATM   10  N17 MIQ B 502      18.685  -1.340 -11.815  1.00139.42    -0.288 N 
HETATM   11  O16 MIQ B 502      16.907  -2.091 -13.300  1.00148.93    -0.171 OA
ENDROOT
BRANCH  10  12
HETATM   12  C18 MIQ B 502      19.752  -1.726 -12.719  1.00139.82     0.187 C 
HETATM   13  C19 MIQ B 502      20.723  -2.624 -11.942  1.00140.06     0.247 C 
HETATM   14  O25 MIQ B 502      20.299  -3.547 -11.342  1.00143.95    -0.271 OA
HETATM   15  N20 MIQ B 502      22.150  -2.373 -11.928  1.00140.02    -0.296 N 
HETATM   16  H13 MIQ B 502      22.772  -2.963 -11.411  1.00142.77     0.171 HD
HETATM   17  C21 MIQ B 502      22.642  -1.234 -12.659  1.00142.22     0.224 C 
HETATM   18  C22 MIQ B 502      21.738  -0.018 -12.716  1.00139.52     0.106 C 
HETATM   19  O24 MIQ B 502      23.697  -1.251 -13.192  1.00146.13    -0.273 OA
HETATM   20  C23 MIQ B 502      20.422  -0.487 -13.311  1.00139.15     0.045 C 
ENDBRANCH  10  12
BRANCH   5  21
HETATM   21  N6  MIQ B 502      15.282   0.656  -7.111  1.00140.95    -0.377 N 
HETATM   22  C7  MIQ B 502      16.304   1.082  -6.169  1.00142.12     0.149 C 
HETATM   23  C8  MIQ B 502      15.812   1.016  -4.729  1.00144.10     0.187 C 
HETATM   24  O9  MIQ B 502      14.558   1.604  -4.555  1.00148.65    -0.388 OA
HETATM   25  C10 MIQ B 502      13.793   1.979  -5.662  1.00147.44     0.187 C 
HETATM   26  C11 MIQ B 502      13.937   1.180  -6.953  1.00144.08     0.149 C 
ENDBRANCH   5  21
TORSDOF 2
ENDMDL
MODEL 2
REMARK VINA RESULT:      -7.1      1.762      2.587
REMARK  2 active torsions:
REMARK  status: ('A' for Active; 'I' for Inactive)
REMARK    1  A    between atoms: C5_5  and  N6_21 
REMARK    2  A    between atoms: C18_14  and  N17_19 
ROOT
HETATM    1  O1  MIQ B 502      20.499  -1.366  -9.728  1.00142.91    -0.171 OA
HETATM    2  C2  MIQ B 502      19.277  -1.481 -10.394  1.00141.17     0.195 A 
HETATM    3  C3  MIQ B 502      17.905  -0.914  -9.908  1.00141.71     0.035 A 
HETATM    4  C4  MIQ B 502      17.486  -0.146  -8.712  1.00142.86     0.046 A 
HETATM    5  C5  MIQ B 502      16.131   0.238  -8.545  1.00139.53     0.031 A 
HETATM    6  C12 MIQ B 502      15.148  -0.124  -9.556  1.00139.38     0.030 A 
HETATM    7  C13 MIQ B 502      15.550  -0.860 -10.703  1.00141.18     0.019 A 
HETATM    8  C14 MIQ B 502      16.973  -1.259 -10.874  1.00138.77     0.033 A 
HETATM    9  C15 MIQ B 502      17.772  -2.043 -11.966  1.00142.10     0.195 A 
HETATM   10  N17 MIQ B 502      19.027  -2.074 -11.549  1.00139.42    -0.288 N 
HETATM   11  O16 MIQ B 502      17.259  -2.598 -13.139  1.00148.93    -0.171 OA
ENDROOT
BRANCH  10  12
HETATM   12  C18 MIQ B 502      20.063  -2.743 -12.313  1.00139.82     0.187 C 
HETATM   13  C19 MIQ B 502      19.901  -2.330 -13.782  1.00140.06     0.247 C 
HETATM   14  O25 MIQ B 502      19.824  -1.185 -14.053  1.00143.95    -0.271 OA
HETATM   15  N20 MIQ B 502      19.845  -3.309 -14.848  1.00140.02    -0.296 N 
HETATM   16  H13 MIQ B 502      19.733  -3.027 -15.802  1.00142.77     0.171 HD
HETATM   17  C21 MIQ B 502      19.931  -4.701 -14.491  1.00142.22     0.224 C 
HETATM   18  C22 MIQ B 502      19.315  -5.104 -13.165  1.00139.52     0.106 C 
HETATM   19  O24 MIQ B 502      20.460  -5.488 -15.196  1.00146.13    -0.273 OA
HETATM   20  C23 MIQ B 502      19.988  -4.254 -12.102  1.00139.15     0.045 C 
ENDBRANCH  10  12
BRANCH   5  21
HETATM   21  N6  MIQ B 502      15.732   0.977  -7.362  1.00140.95    -0.377 N 
HETATM   22  C7  MIQ B 502      14.367   0.840  -6.884  1.00142.12     0.149 C 
HETATM   23  C8  MIQ B 502      13.907   2.070  -6.113  1.00144.10     0.187 C 
HETATM   24  O9  MIQ B 502      14.834   2.489  -5.156  1.00148.65    -0.388 OA
HETATM   25  C10 MIQ B 502      16.119   1.940  -5.128  1.00147.44     0.187 C 
HETATM   26  C11 MIQ B 502      16.740   1.469  -6.439  1.00144.08     0.149 C 
ENDBRANCH   5  21
TORSDOF 2
ENDMDL
MODEL 3
REMARK VINA RESULT:      -7.0      1.834      2.243
REMARK  2 active torsions:
REMARK  status: ('A' for Active; 'I' for Inactive)
REMARK    1  A    between atoms: C5_5  and  N6_21 
REMARK    2  A    between atoms: C18_14  and  N17_19 
ROOT
HETATM    1  O1  MIQ B 502      20.828  -1.683 -10.893  1.00142.91    -0.171 OA
HETATM    2  C2  MIQ B 502      19.468  -1.516 -11.166  1.00141.17     0.195 A 
HETATM    3  C3  MIQ B 502      18.455  -0.674 -10.326  1.00141.71     0.035 A 
HETATM    4  C4  MIQ B 502      18.583   0.143  -9.096  1.00142.86     0.046 A 
HETATM    5  C5  MIQ B 502      17.453   0.809  -8.557  1.00139.53     0.031 A 
HETATM    6  C12 MIQ B 502      16.161   0.690  -9.218  1.00139.38     0.030 A 
HETATM    7  C13 MIQ B 502      16.039  -0.093 -10.398  1.00141.18     0.019 A 
HETATM    8  C14 MIQ B 502      17.229  -0.788 -10.960  1.00138.77     0.033 A 
HETATM    9  C15 MIQ B 502      17.482  -1.705 -12.201  1.00142.10     0.195 A 
HETATM   10  N17 MIQ B 502      18.767  -2.016 -12.169  1.00139.42    -0.288 N 
HETATM   11  O16 MIQ B 502      16.538  -2.111 -13.146  1.00148.93    -0.171 OA
ENDROOT
BRANCH  10  12
HETATM   12  C18 MIQ B 502      19.362  -2.879 -13.172  1.00139.82     0.187 C 
HETATM   13  C19 MIQ B 502      20.106  -4.003 -12.441  1.00140.06     0.247 C 
HETATM   14  O25 MIQ B 502      19.543  -4.620 -11.608  1.00143.95    -0.271 OA
HETATM   15  N20 MIQ B 502      21.483  -4.334 -12.748  1.00140.02    -0.296 N 
HETATM   16  H13 MIQ B 502      21.959  -5.066 -12.258  1.00142.77     0.171 HD
HETATM   17  C21 MIQ B 502      22.153  -3.560 -13.761  1.00142.22     0.224 C 
HETATM   18  C22 MIQ B 502      21.762  -2.099 -13.871  1.00139.52     0.106 C 
HETATM   19  O24 MIQ B 502      22.962  -4.043 -14.473  1.00146.13    -0.273 OA
HETATM   20  C23 MIQ B 502      20.263  -2.069 -14.103  1.00139.15     0.045 C 
ENDBRANCH  10  12
BRANCH   5  21
HETATM   21  N6  MIQ B 502      17.590   1.593  -7.344  1.00140.95    -0.377 N 
HETATM   22  C7  MIQ B 502      16.910   1.139  -6.143  1.00142.12     0.149 C 
HETATM   23  C8  MIQ B 502      16.592   2.291  -5.198  1.00144.10     0.187 C 
HETATM   24  O9  MIQ B 502      17.684   3.134  -4.983  1.00148.65    -0.388 OA
HETATM   25  C10 MIQ B 502      18.837   3.013  -5.763  1.00147.44     0.187 C 
HETATM   26  C11 MIQ B 502      18.697   2.523  -7.201  1.00144.08     0.149 C 
ENDBRANCH   5  21
TORSDOF 2
ENDMDL
MODEL 4
REMARK VINA RESULT:      -6.8     17.754     20.966
REMARK  2 active torsions:
REMARK  status: ('A' for Active; 'I' for Inactive)
REMARK    1  A    between atoms: C5_5  and  N6_21 
REMARK    2  A    between atoms: C18_14  and  N17_19 
ROOT
HETATM    1  O1  MIQ B 502       6.100  13.987  -8.371  1.00142.91    -0.171 OA
HETATM    2  C2  MIQ B 502       6.141  15.265  -8.932  1.00141.17     0.195 A 
HETATM    3  C3  MIQ B 502       6.418  16.599  -8.168  1.00141.71     0.035 A 
HETATM    4  C4  MIQ B 502       6.702  16.921  -6.750  1.00142.86     0.046 A 
HETATM    5  C5  MIQ B 502       6.918  18.263  -6.349  1.00139.53     0.031 A 
HETATM    6  C12 MIQ B 502       6.860  19.331  -7.337  1.00139.38     0.030 A 
HETATM    7  C13 MIQ B 502       6.588  19.023  -8.697  1.00141.18     0.019 A 
HETATM    8  C14 MIQ B 502       6.365  17.611  -9.113  1.00138.77     0.033 A 
HETATM    9  C15 MIQ B 502       6.055  16.901 -10.471  1.00142.10     0.195 A 
HETATM   10  N17 MIQ B 502       5.964  15.610 -10.196  1.00139.42    -0.288 N 
HETATM   11  O16 MIQ B 502       5.902  17.511 -11.717  1.00148.93    -0.171 OA
ENDROOT
BRANCH  10  12
HETATM   12  C18 MIQ B 502       5.665  14.635 -11.228  1.00139.82     0.187 C 
HETATM   13  C19 MIQ B 502       4.432  13.842 -10.779  1.00140.06     0.247 C 
HETATM   14  O25 MIQ B 502       3.467  14.425 -10.432  1.00143.95    -0.271 OA
HETATM   15  N20 MIQ B 502       4.415  12.394 -10.775  1.00140.02    -0.296 N 
HETATM   16  H13 MIQ B 502       3.606  11.888 -10.473  1.00142.77     0.171 HD
HETATM   17  C21 MIQ B 502       5.608  11.704 -11.193  1.00142.22     0.224 C 
HETATM   18  C22 MIQ B 502       6.930  12.371 -10.866  1.00139.52     0.106 C 
HETATM   19  O24 MIQ B 502       5.556  10.672 -11.767  1.00146.13    -0.273 OA
HETATM   20  C23 MIQ B 502       6.883  13.752 -11.494  1.00139.15     0.045 C 
ENDBRANCH  10  12
BRANCH   5  21
HETATM   21  N6  MIQ B 502       7.181  18.566  -4.953  1.00140.95    -0.377 N 
HETATM   22  C7  MIQ B 502       7.019  19.935  -4.497  1.00142.12     0.149 C 
HETATM   23  C8  MIQ B 502       7.897  20.240  -3.290  1.00144.10     0.187 C 
HETATM   24  O9  MIQ B 502       7.810  19.265  -2.295  1.00148.65    -0.388 OA
HETATM   25  C10 MIQ B 502       7.157  18.056  -2.544  1.00147.44     0.187 C 
HETATM   26  C11 MIQ B 502       7.164  17.502  -3.965  1.00144.08     0.149 C 
ENDBRANCH   5  21
TORSDOF 2
ENDMDL
MODEL 5
REMARK VINA RESULT:      -6.8      1.999      2.843
REMARK  2 active torsions:
REMARK  status: ('A' for Active; 'I' for Inactive)
REMARK    1  A    between atoms: C5_5  and  N6_21 
REMARK    2  A    between atoms: C18_14  and  N17_19 
ROOT
HETATM    1  O1  MIQ B 502      15.019  -2.578 -10.525  1.00142.91    -0.171 OA
HETATM    2  C2  MIQ B 502      16.246  -2.047 -10.122  1.00141.17     0.195 A 
HETATM    3  C3  MIQ B 502      16.498  -1.161  -8.861  1.00141.71     0.035 A 
HETATM    4  C4  MIQ B 502      15.618  -0.647  -7.784  1.00142.86     0.046 A 
HETATM    5  C5  MIQ B 502      16.152   0.154  -6.743  1.00139.53     0.031 A 
HETATM    6  C12 MIQ B 502      17.573   0.472  -6.732  1.00139.38     0.030 A 
HETATM    7  C13 MIQ B 502      18.417  -0.022  -7.763  1.00141.18     0.019 A 
HETATM    8  C14 MIQ B 502      17.851  -0.864  -8.852  1.00138.77     0.033 A 
HETATM    9  C15 MIQ B 502      18.443  -1.571 -10.116  1.00142.10     0.195 A 
HETATM   10  N17 MIQ B 502      17.426  -2.180 -10.703  1.00139.42    -0.288 N 
HETATM   11  O16 MIQ B 502      19.774  -1.556 -10.535  1.00148.93    -0.171 OA
ENDROOT
BRANCH  10  12
HETATM   12  C18 MIQ B 502      17.602  -2.934 -11.931  1.00139.82     0.187 C 
HETATM   13  C19 MIQ B 502      18.716  -3.960 -11.694  1.00140.06     0.247 C 
HETATM   14  O25 MIQ B 502      18.659  -4.665 -10.749  1.00143.95    -0.271 OA
HETATM   15  N20 MIQ B 502      19.837  -4.095 -12.602  1.00140.02    -0.296 N 
HETATM   16  H13 MIQ B 502      20.561  -4.765 -12.433  1.00142.77     0.171 HD
HETATM   17  C21 MIQ B 502      19.889  -3.217 -13.743  1.00142.22     0.224 C 
HETATM   18  C22 MIQ B 502      19.329  -1.820 -13.554  1.00139.52     0.106 C 
HETATM   19  O24 MIQ B 502      20.342  -3.572 -14.775  1.00146.13    -0.273 OA
HETATM   20  C23 MIQ B 502      17.892  -1.990 -13.097  1.00139.15     0.045 C 
ENDBRANCH  10  12
BRANCH   5  21
HETATM   21  N6  MIQ B 502      15.276   0.664  -5.704  1.00140.95    -0.377 N 
HETATM   22  C7  MIQ B 502      15.874   1.274  -4.529  1.00142.12     0.149 C 
HETATM   23  C8  MIQ B 502      14.968   1.166  -3.309  1.00144.10     0.187 C 
HETATM   24  O9  MIQ B 502      13.652   1.547  -3.575  1.00148.65    -0.388 OA
HETATM   25  C10 MIQ B 502      13.229   1.764  -4.889  1.00147.44     0.187 C 
HETATM   26  C11 MIQ B 502      13.888   0.965  -6.008  1.00144.08     0.149 C 
ENDBRANCH   5  21
TORSDOF 2
ENDMDL
MODEL 6
REMARK VINA RESULT:      -6.8      2.446      3.192
REMARK  2 active torsions:
REMARK  status: ('A' for Active; 'I' for Inactive)
REMARK    1  A    between atoms: C5_5  and  N6_21 
REMARK    2  A    between atoms: C18_14  and  N17_19 
ROOT
HETATM    1  O1  MIQ B 502      19.129  -1.362 -10.229  1.00142.91    -0.171 OA
HETATM    2  C2  MIQ B 502      17.771  -1.127 -10.001  1.00141.17     0.195 A 
HETATM    3  C3  MIQ B 502      17.167  -0.230  -8.873  1.00141.71     0.035 A 
HETATM    4  C4  MIQ B 502      17.765   0.584  -7.789  1.00142.86     0.046 A 
HETATM    5  C5  MIQ B 502      16.936   1.310  -6.897  1.00139.53     0.031 A 
HETATM    6  C12 MIQ B 502      15.489   1.254  -7.048  1.00139.38     0.030 A 
HETATM    7  C13 MIQ B 502      14.915   0.474  -8.088  1.00141.18     0.019 A 
HETATM    8  C14 MIQ B 502      15.791  -0.284  -9.023  1.00138.77     0.033 A 
HETATM    9  C15 MIQ B 502      15.540  -1.218 -10.251  1.00142.10     0.195 A 
HETATM   10  N17 MIQ B 502      16.735  -1.595 -10.674  1.00139.42    -0.288 N 
HETATM   11  O16 MIQ B 502      14.302  -1.580 -10.787  1.00148.93    -0.171 OA
ENDROOT
BRANCH  10  12
HETATM   12  C18 MIQ B 502      16.890  -2.492 -11.805  1.00139.82     0.187 C 
HETATM   13  C19 MIQ B 502      17.822  -3.631 -11.373  1.00140.06     0.247 C 
HETATM   14  O25 MIQ B 502      17.592  -4.216 -10.375  1.00143.95    -0.271 OA
HETATM   15  N20 MIQ B 502      18.976  -4.014 -12.161  1.00140.02    -0.296 N 
HETATM   16  H13 MIQ B 502      19.580  -4.755 -11.865  1.00142.77     0.171 HD
HETATM   17  C21 MIQ B 502      19.242  -3.278 -13.370  1.00142.22     0.224 C 
HETATM   18  C22 MIQ B 502      18.879  -1.805 -13.365  1.00139.52     0.106 C 
HETATM   19  O24 MIQ B 502      19.714  -3.799 -14.320  1.00146.13    -0.273 OA
HETATM   20  C23 MIQ B 502      17.401  -1.727 -13.024  1.00139.15     0.045 C 
ENDBRANCH  10  12
BRANCH   5  21
HETATM   21  N6  MIQ B 502      17.534   2.092  -5.830  1.00140.95    -0.377 N 
HETATM   22  C7  MIQ B 502      18.789   2.777  -6.091  1.00142.12     0.149 C 
HETATM   23  C8  MIQ B 502      19.598   2.987  -4.818  1.00144.10     0.187 C 
HETATM   24  O9  MIQ B 502      18.837   3.512  -3.771  1.00148.65    -0.388 OA
HETATM   25  C10 MIQ B 502      17.446   3.589  -3.877  1.00147.44     0.187 C 
HETATM   26  C11 MIQ B 502      16.719   2.544  -4.717  1.00144.08     0.149 C 
ENDBRANCH   5  21
TORSDOF 2
ENDMDL
MODEL 7
REMARK VINA RESULT:      -6.7      2.857      7.517
REMARK  2 active torsions:
REMARK  status: ('A' for Active; 'I' for Inactive)
REMARK    1  A    between atoms: C5_5  and  N6_21 
REMARK    2  A    between atoms: C18_14  and  N17_19 
ROOT
HETATM    1  O1  MIQ B 502      20.083  -0.150  -8.669  1.00142.91    -0.171 OA
HETATM    2  C2  MIQ B 502      18.853  -0.252  -9.323  1.00141.17     0.195 A 
HETATM    3  C3  MIQ B 502      18.558  -1.091 -10.607  1.00141.71     0.035 A 
HETATM    4  C4  MIQ B 502      19.390  -1.966 -11.466  1.00142.86     0.046 A 
HETATM    5  C5  MIQ B 502      18.824  -2.611 -12.594  1.00139.53     0.031 A 
HETATM    6  C12 MIQ B 502      17.416  -2.413 -12.909  1.00139.38     0.030 A 
HETATM    7  C13 MIQ B 502      16.617  -1.576 -12.084  1.00141.18     0.019 A 
HETATM    8  C14 MIQ B 502      17.217  -0.903 -10.900  1.00138.77     0.033 A 
HETATM    9  C15 MIQ B 502      16.677   0.058  -9.791  1.00142.10     0.195 A 
HETATM   10  N17 MIQ B 502      17.705   0.319  -9.001  1.00139.42    -0.288 N 
HETATM   11  O16 MIQ B 502      15.373   0.542  -9.667  1.00148.93    -0.171 OA
ENDROOT
BRANCH  10  12
HETATM   12  C18 MIQ B 502      17.576   1.201  -7.856  1.00139.82     0.187 C 
HETATM   13  C19 MIQ B 502      18.663   2.278  -7.971  1.00140.06     0.247 C 
HETATM   14  O25 MIQ B 502      18.774   2.878  -8.980  1.00143.95    -0.271 OA
HETATM   15  N20 MIQ B 502      19.555   2.583  -6.871  1.00140.02    -0.296 N 
HETATM   16  H13 MIQ B 502      20.264   3.283  -6.961  1.00142.77     0.171 HD
HETATM   17  C21 MIQ B 502      19.406   1.829  -5.653  1.00142.22     0.224 C 
HETATM   18  C22 MIQ B 502      18.969   0.383  -5.796  1.00139.52     0.106 C 
HETATM   19  O24 MIQ B 502      19.609   2.316  -4.596  1.00146.13    -0.273 OA
HETATM   20  C23 MIQ B 502      17.656   0.402  -6.557  1.00139.15     0.045 C 
ENDBRANCH  10  12
BRANCH   5  21
HETATM   21  N6  MIQ B 502      19.654  -3.454 -13.436  1.00140.95    -0.377 N 
HETATM   22  C7  MIQ B 502      21.082  -3.505 -13.173  1.00142.12     0.149 C 
HETATM   23  C8  MIQ B 502      21.879  -3.852 -14.424  1.00144.10     0.187 C 
HETATM   24  O9  MIQ B 502      21.358  -4.950 -15.112  1.00148.65    -0.388 OA
HETATM   25  C10 MIQ B 502      20.110  -5.475 -14.767  1.00147.44     0.187 C 
HETATM   26  C11 MIQ B 502      19.054  -4.532 -14.201  1.00144.08     0.149 C 
ENDBRANCH   5  21
TORSDOF 2
ENDMDL
MODEL 8
REMARK VINA RESULT:      -6.7      1.964      7.874
REMARK  2 active torsions:
REMARK  status: ('A' for Active; 'I' for Inactive)
REMARK    1  A    between atoms: C5_5  and  N6_21 
REMARK    2  A    between atoms: C18_14  and  N17_19 
ROOT
HETATM    1  O1  MIQ B 502      18.717   0.199  -9.096  1.00142.91    -0.171 OA
HETATM    2  C2  MIQ B 502      18.523  -0.444 -10.320  1.00141.17     0.195 A 
HETATM    3  C3  MIQ B 502      19.600  -0.657 -11.431  1.00141.71     0.035 A 
HETATM    4  C4  MIQ B 502      21.032  -0.293 -11.546  1.00142.86     0.046 A 
HETATM    5  C5  MIQ B 502      21.767  -0.633 -12.709  1.00139.53     0.031 A 
HETATM    6  C12 MIQ B 502      21.111  -1.345 -13.796  1.00139.38     0.030 A 
HETATM    7  C13 MIQ B 502      19.738  -1.695 -13.687  1.00141.18     0.019 A 
HETATM    8  C14 MIQ B 502      18.972  -1.338 -12.462  1.00138.77     0.033 A 
HETATM    9  C15 MIQ B 502      17.497  -1.548 -11.988  1.00142.10     0.195 A 
HETATM   10  N17 MIQ B 502      17.417  -0.999 -10.787  1.00139.42    -0.288 N 
HETATM   11  O16 MIQ B 502      16.475  -2.185 -12.694  1.00148.93    -0.171 OA
ENDROOT
BRANCH  10  12
HETATM   12  C18 MIQ B 502      16.174  -0.992 -10.038  1.00139.82     0.187 C 
HETATM   13  C19 MIQ B 502      15.861   0.462  -9.666  1.00140.06     0.247 C 
HETATM   14  O25 MIQ B 502      15.872   1.288 -10.509  1.00143.95    -0.271 OA
HETATM   15  N20 MIQ B 502      15.545   0.852  -8.307  1.00140.02    -0.296 N 
HETATM   16  H13 MIQ B 502      15.349   1.805  -8.076  1.00142.77     0.171 HD
HETATM   17  C21 MIQ B 502      15.548  -0.172  -7.294  1.00142.22     0.224 C 
HETATM   18  C22 MIQ B 502      16.551  -1.297  -7.465  1.00139.52     0.106 C 
HETATM   19  O24 MIQ B 502      14.801  -0.138  -6.379  1.00146.13    -0.273 OA
HETATM   20  C23 MIQ B 502      16.280  -1.914  -8.824  1.00139.15     0.045 C 
ENDBRANCH  10  12
BRANCH   5  21
HETATM   21  N6  MIQ B 502      23.165  -0.257 -12.814  1.00140.95    -0.377 N 
HETATM   22  C7  MIQ B 502      23.536   1.120 -12.538  1.00142.12     0.149 C 
HETATM   23  C8  MIQ B 502      24.808   1.525 -13.273  1.00144.10     0.187 C 
HETATM   24  O9  MIQ B 502      25.836   0.590 -13.135  1.00148.65    -0.388 OA
HETATM   25  C10 MIQ B 502      25.583  -0.663 -12.571  1.00147.44     0.187 C 
HETATM   26  C11 MIQ B 502      24.198  -1.276 -12.750  1.00144.08     0.149 C 
ENDBRANCH   5  21
TORSDOF 2
ENDMDL
MODEL 9
REMARK VINA RESULT:      -6.7      2.468      8.152
REMARK  2 active torsions:
REMARK  status: ('A' for Active; 'I' for Inactive)
REMARK    1  A    between atoms: C5_5  and  N6_21 
REMARK    2  A    between atoms: C18_14  and  N17_19 
ROOT
HETATM    1  O1  MIQ B 502      16.570  -1.847  -9.229  1.00142.91    -0.171 OA
HETATM    2  C2  MIQ B 502      17.697  -1.078  -9.531  1.00141.17     0.195 A 
HETATM    3  C3  MIQ B 502      18.781  -1.413 -10.604  1.00141.71     0.035 A 
HETATM    4  C4  MIQ B 502      18.957  -2.533 -11.559  1.00142.86     0.046 A 
HETATM    5  C5  MIQ B 502      20.073  -2.560 -12.434  1.00139.53     0.031 A 
HETATM    6  C12 MIQ B 502      21.050  -1.481 -12.393  1.00139.38     0.030 A 
HETATM    7  C13 MIQ B 502      20.880  -0.407 -11.478  1.00141.18     0.019 A 
HETATM    8  C14 MIQ B 502      19.706  -0.383 -10.564  1.00138.77     0.033 A 
HETATM    9  C15 MIQ B 502      19.192   0.598  -9.460  1.00142.10     0.195 A 
HETATM   10  N17 MIQ B 502      18.074   0.068  -8.992  1.00139.42    -0.288 N 
HETATM   11  O16 MIQ B 502      19.797   1.789  -9.053  1.00148.93    -0.171 OA
ENDROOT
BRANCH  10  12
HETATM   12  C18 MIQ B 502      17.320   0.707  -7.930  1.00139.82     0.187 C 
HETATM   13  C19 MIQ B 502      17.105  -0.329  -6.820  1.00140.06     0.247 C 
HETATM   14  O25 MIQ B 502      18.032  -0.928  -6.404  1.00143.95    -0.271 OA
HETATM   15  N20 MIQ B 502      15.793  -0.591  -6.264  1.00140.02    -0.296 N 
HETATM   16  H13 MIQ B 502      15.665  -1.275  -5.544  1.00142.77     0.171 HD
HETATM   17  C21 MIQ B 502      14.675   0.144  -6.796  1.00142.22     0.224 C 
HETATM   18  C22 MIQ B 502      14.732   0.497  -8.270  1.00139.52     0.106 C 
HETATM   19  O24 MIQ B 502      13.763   0.461  -6.115  1.00146.13    -0.273 OA
HETATM   20  C23 MIQ B 502      16.014   1.283  -8.476  1.00139.15     0.045 C 
ENDBRANCH  10  12
BRANCH   5  21
HETATM   21  N6  MIQ B 502      20.241  -3.671 -13.353  1.00140.95    -0.377 N 
HETATM   22  C7  MIQ B 502      19.092  -4.115 -14.123  1.00142.12     0.149 C 
HETATM   23  C8  MIQ B 502      19.202  -5.584 -14.512  1.00144.10     0.187 C 
HETATM   24  O9  MIQ B 502      20.446  -5.911 -15.054  1.00148.65    -0.388 OA
HETATM   25  C10 MIQ B 502      21.504  -5.001 -14.997  1.00147.44     0.187 C 
HETATM   26  C11 MIQ B 502      21.568  -4.028 -13.824  1.00144.08     0.149 C 
ENDBRANCH   5  21
TORSDOF 2
ENDMDL
