MODEL 1
REMARK VINA RESULT:      -8.3      0.000      0.000
REMARK  2 active torsions:
REMARK  status: ('A' for Active; 'I' for Inactive)
REMARK    1  A    between atoms: C5_5  and  N6_21 
REMARK    2  A    between atoms: C18_14  and  N17_19 
ROOT
HETATM    1  O1  MIQ B 502      -0.873   4.036   3.799  1.00142.91    -0.171 OA
HETATM    2  C2  MIQ B 502      -0.116   5.209   3.759  1.00141.17     0.195 A 
HETATM    3  C3  MIQ B 502       1.441   5.299   3.667  1.00141.71     0.035 A 
HETATM    4  C4  MIQ B 502       2.518   4.284   3.596  1.00142.86     0.046 A 
HETATM    5  C5  MIQ B 502       3.876   4.684   3.516  1.00139.53     0.031 A 
HETATM    6  C12 MIQ B 502       4.212   6.100   3.504  1.00139.38     0.030 A 
HETATM    7  C13 MIQ B 502       3.180   7.074   3.570  1.00141.18     0.019 A 
HETATM    8  C14 MIQ B 502       1.756   6.648   3.652  1.00138.77     0.033 A 
HETATM    9  C15 MIQ B 502       0.387   7.399   3.734  1.00142.10     0.195 A 
HETATM   10  N17 MIQ B 502      -0.543   6.460   3.784  1.00139.42    -0.288 N 
HETATM   11  O16 MIQ B 502       0.192   8.782   3.753  1.00148.93    -0.171 OA
ENDROOT
BRANCH  10  12
HETATM   12  C18 MIQ B 502      -1.952   6.793   3.883  1.00139.82     0.187 C 
HETATM   13  C19 MIQ B 502      -2.312   7.665   2.674  1.00140.06     0.247 C 
HETATM   14  O25 MIQ B 502      -2.021   7.298   1.591  1.00143.95    -0.271 OA
HETATM   15  N20 MIQ B 502      -3.006   8.928   2.823  1.00140.02    -0.296 N 
HETATM   16  H13 MIQ B 502      -3.230   9.491   2.026  1.00142.77     0.171 HD
HETATM   17  C21 MIQ B 502      -3.341   9.360   4.155  1.00142.22     0.224 C 
HETATM   18  C22 MIQ B 502      -2.372   8.981   5.258  1.00139.52     0.106 C 
HETATM   19  O24 MIQ B 502      -4.326   9.975   4.376  1.00146.13    -0.273 OA
HETATM   20  C23 MIQ B 502      -2.246   7.469   5.221  1.00139.15     0.045 C 
ENDBRANCH  10  12
BRANCH   5  21
HETATM   21  N6  MIQ B 502       4.922   3.679   3.462  1.00140.95    -0.377 N 
HETATM   22  C7  MIQ B 502       4.739   2.446   4.209  1.00142.12     0.149 C 
HETATM   23  C8  MIQ B 502       6.070   1.813   4.596  1.00144.10     0.187 C 
HETATM   24  O9  MIQ B 502       6.966   1.737   3.528  1.00148.65    -0.388 OA
HETATM   25  C10 MIQ B 502       6.696   2.401   2.329  1.00147.44     0.187 C 
HETATM   26  C11 MIQ B 502       5.885   3.692   2.376  1.00144.08     0.149 C 
ENDBRANCH   5  21
TORSDOF 2
ENDMDL
MODEL 2
REMARK VINA RESULT:      -7.6      2.017      8.398
REMARK  2 active torsions:
REMARK  status: ('A' for Active; 'I' for Inactive)
REMARK    1  A    between atoms: C5_5  and  N6_21 
REMARK    2  A    between atoms: C18_14  and  N17_19 
ROOT
HETATM    1  O1  MIQ B 502       3.867   7.692   2.163  1.00142.91    -0.171 OA
HETATM    2  C2  MIQ B 502       3.245   6.661   2.870  1.00141.17     0.195 A 
HETATM    3  C3  MIQ B 502       1.861   6.740   3.590  1.00141.71     0.035 A 
HETATM    4  C4  MIQ B 502       0.853   7.816   3.744  1.00142.86     0.046 A 
HETATM    5  C5  MIQ B 502      -0.340   7.581   4.473  1.00139.53     0.031 A 
HETATM    6  C12 MIQ B 502      -0.575   6.275   5.072  1.00139.38     0.030 A 
HETATM    7  C13 MIQ B 502       0.390   5.243   4.923  1.00141.18     0.019 A 
HETATM    8  C14 MIQ B 502       1.640   5.495   4.155  1.00138.77     0.033 A 
HETATM    9  C15 MIQ B 502       2.894   4.637   3.783  1.00142.10     0.195 A 
HETATM   10  N17 MIQ B 502       3.680   5.429   3.072  1.00139.42    -0.288 N 
HETATM   11  O16 MIQ B 502       3.131   3.308   4.135  1.00148.93    -0.171 OA
ENDROOT
BRANCH  10  12
HETATM   12  C18 MIQ B 502       4.958   4.968   2.563  1.00139.82     0.187 C 
HETATM   13  C19 MIQ B 502       4.706   3.691   1.751  1.00140.06     0.247 C 
HETATM   14  O25 MIQ B 502       3.874   3.696   0.914  1.00143.95    -0.271 OA
HETATM   15  N20 MIQ B 502       5.464   2.479   1.980  1.00140.02    -0.296 N 
HETATM   16  H13 MIQ B 502       5.285   1.650   1.447  1.00142.77     0.171 HD
HETATM   17  C21 MIQ B 502       6.467   2.495   3.014  1.00142.22     0.224 C 
HETATM   18  C22 MIQ B 502       6.179   3.357   4.228  1.00139.52     0.106 C 
HETATM   19  O24 MIQ B 502       7.465   1.870   2.916  1.00146.13    -0.273 OA
HETATM   20  C23 MIQ B 502       5.945   4.765   3.711  1.00139.15     0.045 C 
ENDBRANCH  10  12
BRANCH   5  21
HETATM   21  N6  MIQ B 502      -1.312   8.648   4.629  1.00140.95    -0.377 N 
HETATM   22  C7  MIQ B 502      -2.575   8.347   5.280  1.00142.12     0.149 C 
HETATM   23  C8  MIQ B 502      -3.687   9.281   4.822  1.00144.10     0.187 C 
HETATM   24  O9  MIQ B 502      -3.311  10.626   4.843  1.00148.65    -0.388 OA
HETATM   25  C10 MIQ B 502      -1.975  10.983   5.043  1.00147.44     0.187 C 
HETATM   26  C11 MIQ B 502      -0.885  10.034   4.557  1.00144.08     0.149 C 
ENDBRANCH   5  21
TORSDOF 2
ENDMDL
MODEL 3
REMARK VINA RESULT:      -7.4      1.671      2.346
REMARK  2 active torsions:
REMARK  status: ('A' for Active; 'I' for Inactive)
REMARK    1  A    between atoms: C5_5  and  N6_21 
REMARK    2  A    between atoms: C18_14  and  N17_19 
ROOT
HETATM    1  O1  MIQ B 502       0.758   6.021   5.235  1.00142.91    -0.171 OA
HETATM    2  C2  MIQ B 502       1.192   5.907   3.913  1.00141.17     0.195 A 
HETATM    3  C3  MIQ B 502       2.404   5.060   3.410  1.00141.71     0.035 A 
HETATM    4  C4  MIQ B 502       3.390   4.187   4.091  1.00142.86     0.046 A 
HETATM    5  C5  MIQ B 502       4.403   3.532   3.345  1.00139.53     0.031 A 
HETATM    6  C12 MIQ B 502       4.473   3.718   1.903  1.00139.38     0.030 A 
HETATM    7  C13 MIQ B 502       3.528   4.554   1.250  1.00141.18     0.019 A 
HETATM    8  C14 MIQ B 502       2.465   5.237   2.037  1.00138.77     0.033 A 
HETATM    9  C15 MIQ B 502       1.283   6.199   1.686  1.00142.10     0.195 A 
HETATM   10  N17 MIQ B 502       0.681   6.470   2.832  1.00139.42    -0.288 N 
HETATM   11  O16 MIQ B 502       0.941   6.673   0.419  1.00148.93    -0.171 OA
ENDROOT
BRANCH  10  12
HETATM   12  C18 MIQ B 502      -0.466   7.357   2.893  1.00139.82     0.187 C 
HETATM   13  C19 MIQ B 502      -0.176   8.425   3.954  1.00140.06     0.247 C 
HETATM   14  O25 MIQ B 502       0.841   9.022   3.908  1.00143.95    -0.271 OA
HETATM   15  N20 MIQ B 502      -1.118   8.727   5.012  1.00140.02    -0.296 N 
HETATM   16  H13 MIQ B 502      -0.914   9.421   5.703  1.00142.77     0.171 HD
HETATM   17  C21 MIQ B 502      -2.348   7.977   5.054  1.00142.22     0.224 C 
HETATM   18  C22 MIQ B 502      -2.282   6.535   4.590  1.00139.52     0.106 C 
HETATM   19  O24 MIQ B 502      -3.357   8.467   5.426  1.00146.13    -0.273 OA
HETATM   20  C23 MIQ B 502      -1.740   6.561   3.173  1.00139.15     0.045 C 
ENDBRANCH  10  12
BRANCH   5  21
HETATM   21  N6  MIQ B 502       5.371   2.693   4.027  1.00140.95    -0.377 N 
HETATM   22  C7  MIQ B 502       4.936   1.930   5.184  1.00142.12     0.149 C 
HETATM   23  C8  MIQ B 502       6.085   1.642   6.141  1.00144.10     0.187 C 
HETATM   24  O9  MIQ B 502       7.221   1.151   5.495  1.00148.65    -0.388 OA
HETATM   25  C10 MIQ B 502       7.305   1.170   4.100  1.00147.44     0.187 C 
HETATM   26  C11 MIQ B 502       6.581   2.276   3.341  1.00144.08     0.149 C 
ENDBRANCH   5  21
TORSDOF 2
ENDMDL
MODEL 4
REMARK VINA RESULT:      -7.1      1.835      2.535
REMARK  2 active torsions:
REMARK  status: ('A' for Active; 'I' for Inactive)
REMARK    1  A    between atoms: C5_5  and  N6_21 
REMARK    2  A    between atoms: C18_14  and  N17_19 
ROOT
HETATM    1  O1  MIQ B 502       0.328   5.392   4.857  1.00142.91    -0.171 OA
HETATM    2  C2  MIQ B 502       1.309   6.250   4.355  1.00141.17     0.195 A 
HETATM    3  C3  MIQ B 502       2.723   5.833   3.839  1.00141.71     0.035 A 
HETATM    4  C4  MIQ B 502       3.420   4.530   3.717  1.00142.86     0.046 A 
HETATM    5  C5  MIQ B 502       4.736   4.468   3.195  1.00139.53     0.031 A 
HETATM    6  C12 MIQ B 502       5.406   5.690   2.775  1.00139.38     0.030 A 
HETATM    7  C13 MIQ B 502       4.738   6.939   2.890  1.00141.18     0.019 A 
HETATM    8  C14 MIQ B 502       3.355   6.998   3.438  1.00138.77     0.033 A 
HETATM    9  C15 MIQ B 502       2.327   8.146   3.706  1.00142.10     0.195 A 
HETATM   10  N17 MIQ B 502       1.252   7.563   4.209  1.00139.42    -0.288 N 
HETATM   11  O16 MIQ B 502       2.513   9.508   3.464  1.00148.93    -0.171 OA
ENDROOT
BRANCH  10  12
HETATM   12  C18 MIQ B 502       0.085   8.333   4.598  1.00139.82     0.187 C 
HETATM   13  C19 MIQ B 502      -0.245   7.979   6.053  1.00140.06     0.247 C 
HETATM   14  O25 MIQ B 502       0.608   8.032   6.867  1.00143.95    -0.271 OA
HETATM   15  N20 MIQ B 502      -1.579   7.587   6.460  1.00140.02    -0.296 N 
HETATM   16  H13 MIQ B 502      -1.780   7.352   7.413  1.00142.77     0.171 HD
HETATM   17  C21 MIQ B 502      -2.601   7.520   5.448  1.00142.22     0.224 C 
HETATM   18  C22 MIQ B 502      -2.159   7.094   4.061  1.00139.52     0.106 C 
HETATM   19  O24 MIQ B 502      -3.726   7.789   5.687  1.00146.13    -0.273 OA
HETATM   20  C23 MIQ B 502      -1.073   8.065   3.637  1.00139.15     0.045 C 
ENDBRANCH  10  12
BRANCH   5  21
HETATM   21  N6  MIQ B 502       5.412   3.187   3.095  1.00140.95    -0.377 N 
HETATM   22  C7  MIQ B 502       6.530   3.061   2.176  1.00142.12     0.149 C 
HETATM   23  C8  MIQ B 502       6.712   1.628   1.694  1.00144.10     0.187 C 
HETATM   24  O9  MIQ B 502       6.687   0.697   2.735  1.00148.65    -0.388 OA
HETATM   25  C10 MIQ B 502       6.299   1.083   4.020  1.00147.44     0.187 C 
HETATM   26  C11 MIQ B 502       5.287   2.215   4.168  1.00144.08     0.149 C 
ENDBRANCH   5  21
TORSDOF 2
ENDMDL
MODEL 5
REMARK VINA RESULT:      -7.0     22.795     26.167
REMARK  2 active torsions:
REMARK  status: ('A' for Active; 'I' for Inactive)
REMARK    1  A    between atoms: C5_5  and  N6_21 
REMARK    2  A    between atoms: C18_14  and  N17_19 
ROOT
HETATM    1  O1  MIQ B 502      16.908 -12.555   3.707  1.00142.91    -0.171 OA
HETATM    2  C2  MIQ B 502      16.956 -13.669   4.547  1.00141.17     0.195 A 
HETATM    3  C3  MIQ B 502      18.054 -13.971   5.617  1.00141.71     0.035 A 
HETATM    4  C4  MIQ B 502      19.275 -13.255   6.053  1.00142.86     0.046 A 
HETATM    5  C5  MIQ B 502      20.094 -13.793   7.078  1.00139.53     0.031 A 
HETATM    6  C12 MIQ B 502      19.732 -15.057   7.704  1.00139.38     0.030 A 
HETATM    7  C13 MIQ B 502      18.560 -15.743   7.286  1.00141.18     0.019 A 
HETATM    8  C14 MIQ B 502      17.702 -15.172   6.212  1.00138.77     0.033 A 
HETATM    9  C15 MIQ B 502      16.379 -15.617   5.509  1.00142.10     0.195 A 
HETATM   10  N17 MIQ B 502      16.103 -14.677   4.620  1.00139.42    -0.288 N 
HETATM   11  O16 MIQ B 502      15.643 -16.775   5.768  1.00148.93    -0.171 OA
ENDROOT
BRANCH  10  12
HETATM   12  C18 MIQ B 502      14.938 -14.766   3.759  1.00139.82     0.187 C 
HETATM   13  C19 MIQ B 502      15.410 -14.576   2.312  1.00140.06     0.247 C 
HETATM   14  O25 MIQ B 502      16.306 -15.228   1.908  1.00143.95    -0.271 OA
HETATM   15  N20 MIQ B 502      14.780 -13.621   1.424  1.00140.02    -0.296 N 
HETATM   16  H13 MIQ B 502      15.102 -13.502   0.483  1.00142.77     0.171 HD
HETATM   17  C21 MIQ B 502      13.695 -12.829   1.943  1.00142.22     0.224 C 
HETATM   18  C22 MIQ B 502      13.770 -12.449   3.409  1.00139.52     0.106 C 
HETATM   19  O24 MIQ B 502      12.789 -12.499   1.260  1.00146.13    -0.273 OA
HETATM   20  C23 MIQ B 502      13.883 -13.747   4.187  1.00139.15     0.045 C 
ENDBRANCH  10  12
BRANCH   5  21
HETATM   21  N6  MIQ B 502      21.296 -13.089   7.485  1.00140.95    -0.377 N 
HETATM   22  C7  MIQ B 502      21.318 -11.639   7.389  1.00142.12     0.149 C 
HETATM   23  C8  MIQ B 502      22.732 -11.102   7.212  1.00144.10     0.187 C 
HETATM   24  O9  MIQ B 502      23.640 -11.653   8.118  1.00148.65    -0.388 OA
HETATM   25  C10 MIQ B 502      23.274 -12.744   8.912  1.00147.44     0.187 C 
HETATM   26  C11 MIQ B 502      22.256 -13.737   8.362  1.00144.08     0.149 C 
ENDBRANCH   5  21
TORSDOF 2
ENDMDL
MODEL 6
REMARK VINA RESULT:      -6.9     23.006     25.609
REMARK  2 active torsions:
REMARK  status: ('A' for Active; 'I' for Inactive)
REMARK    1  A    between atoms: C5_5  and  N6_21 
REMARK    2  A    between atoms: C18_14  and  N17_19 
ROOT
HETATM    1  O1  MIQ B 502      17.255 -11.444   2.487  1.00142.91    -0.171 OA
HETATM    2  C2  MIQ B 502      16.792 -12.646   3.027  1.00141.17     0.195 A 
HETATM    3  C3  MIQ B 502      17.397 -13.398   4.255  1.00141.71     0.035 A 
HETATM    4  C4  MIQ B 502      18.535 -13.118   5.162  1.00142.86     0.046 A 
HETATM    5  C5  MIQ B 502      18.847 -14.012   6.218  1.00139.53     0.031 A 
HETATM    6  C12 MIQ B 502      18.043 -15.210   6.412  1.00139.38     0.030 A 
HETATM    7  C13 MIQ B 502      16.950 -15.478   5.543  1.00141.18     0.019 A 
HETATM    8  C14 MIQ B 502      16.627 -14.535   4.438  1.00138.77     0.033 A 
HETATM    9  C15 MIQ B 502      15.538 -14.489   3.317  1.00142.10     0.195 A 
HETATM   10  N17 MIQ B 502      15.769 -13.383   2.629  1.00139.42    -0.288 N 
HETATM   11  O16 MIQ B 502      14.530 -15.428   3.091  1.00148.93    -0.171 OA
ENDROOT
BRANCH  10  12
HETATM   12  C18 MIQ B 502      14.953 -13.017   1.487  1.00139.82     0.187 C 
HETATM   13  C19 MIQ B 502      13.483 -13.111   1.913  1.00140.06     0.247 C 
HETATM   14  O25 MIQ B 502      13.133 -12.564   2.898  1.00143.95    -0.271 OA
HETATM   15  N20 MIQ B 502      12.508 -13.849   1.137  1.00140.02    -0.296 N 
HETATM   16  H13 MIQ B 502      11.552 -13.908   1.430  1.00142.77     0.171 HD
HETATM   17  C21 MIQ B 502      12.961 -14.516  -0.056  1.00142.22     0.224 C 
HETATM   18  C22 MIQ B 502      14.373 -15.070  -0.032  1.00139.52     0.106 C 
HETATM   19  O24 MIQ B 502      12.267 -14.622  -1.007  1.00146.13    -0.273 OA
HETATM   20  C23 MIQ B 502      15.288 -13.902   0.287  1.00139.15     0.045 C 
ENDBRANCH  10  12
BRANCH   5  21
HETATM   21  N6  MIQ B 502      19.973 -13.733   7.090  1.00140.95    -0.377 N 
HETATM   22  C7  MIQ B 502      21.045 -14.710   7.174  1.00142.12     0.149 C 
HETATM   23  C8  MIQ B 502      21.776 -14.639   8.509  1.00144.10     0.187 C 
HETATM   24  O9  MIQ B 502      22.127 -13.336   8.867  1.00148.65    -0.388 OA
HETATM   25  C10 MIQ B 502      21.624 -12.245   8.152  1.00147.44     0.187 C 
HETATM   26  C11 MIQ B 502      20.248 -12.369   7.506  1.00144.08     0.149 C 
ENDBRANCH   5  21
TORSDOF 2
ENDMDL
MODEL 7
REMARK VINA RESULT:      -6.7     22.499     25.331
REMARK  2 active torsions:
REMARK  status: ('A' for Active; 'I' for Inactive)
REMARK    1  A    between atoms: C5_5  and  N6_21 
REMARK    2  A    between atoms: C18_14  and  N17_19 
ROOT
HETATM    1  O1  MIQ B 502      13.172 -13.733   1.851  1.00142.91    -0.171 OA
HETATM    2  C2  MIQ B 502      13.465 -14.725   0.913  1.00141.17     0.195 A 
HETATM    3  C3  MIQ B 502      12.461 -15.362  -0.101  1.00141.71     0.035 A 
HETATM    4  C4  MIQ B 502      11.021 -15.148  -0.379  1.00142.86     0.046 A 
HETATM    5  C5  MIQ B 502      10.368 -15.897  -1.391  1.00139.53     0.031 A 
HETATM    6  C12 MIQ B 502      11.118 -16.881  -2.159  1.00139.38     0.030 A 
HETATM    7  C13 MIQ B 502      12.499 -17.085  -1.893  1.00141.18     0.019 A 
HETATM    8  C14 MIQ B 502      13.180 -16.294  -0.832  1.00138.77     0.033 A 
HETATM    9  C15 MIQ B 502      14.637 -16.235  -0.270  1.00142.10     0.195 A 
HETATM   10  N17 MIQ B 502      14.624 -15.318   0.684  1.00139.42    -0.288 N 
HETATM   11  O16 MIQ B 502      15.727 -16.999  -0.691  1.00148.93    -0.171 OA
ENDROOT
BRANCH  10  12
HETATM   12  C18 MIQ B 502      15.817 -15.002   1.447  1.00139.82     0.187 C 
HETATM   13  C19 MIQ B 502      15.473 -15.150   2.935  1.00140.06     0.247 C 
HETATM   14  O25 MIQ B 502      14.960 -16.144   3.311  1.00143.95    -0.271 OA
HETATM   15  N20 MIQ B 502      15.767 -14.106   3.894  1.00140.02    -0.296 N 
HETATM   16  H13 MIQ B 502      15.532 -14.212   4.861  1.00142.77     0.171 HD
HETATM   17  C21 MIQ B 502      16.385 -12.899   3.409  1.00142.22     0.224 C 
HETATM   18  C22 MIQ B 502      16.002 -12.452   2.011  1.00139.52     0.106 C 
HETATM   19  O24 MIQ B 502      17.155 -12.291   4.067  1.00146.13    -0.273 OA
HETATM   20  C23 MIQ B 502      16.327 -13.609   1.084  1.00139.15     0.045 C 
ENDBRANCH  10  12
BRANCH   5  21
HETATM   21  N6  MIQ B 502       8.954 -15.688  -1.643  1.00140.95    -0.377 N 
HETATM   22  C7  MIQ B 502       8.563 -14.696  -2.629  1.00142.12     0.149 C 
HETATM   23  C8  MIQ B 502       7.178 -14.129  -2.347  1.00144.10     0.187 C 
HETATM   24  O9  MIQ B 502       6.228 -15.119  -2.088  1.00148.65    -0.388 OA
HETATM   25  C10 MIQ B 502       6.623 -16.444  -1.890  1.00147.44     0.187 C 
HETATM   26  C11 MIQ B 502       7.993 -16.714  -1.276  1.00144.08     0.149 C 
ENDBRANCH   5  21
TORSDOF 2
ENDMDL
MODEL 8
REMARK VINA RESULT:      -6.6     22.128     25.465
REMARK  2 active torsions:
REMARK  status: ('A' for Active; 'I' for Inactive)
REMARK    1  A    between atoms: C5_5  and  N6_21 
REMARK    2  A    between atoms: C18_14  and  N17_19 
ROOT
HETATM    1  O1  MIQ B 502      14.818 -12.831   4.330  1.00142.91    -0.171 OA
HETATM    2  C2  MIQ B 502      15.654 -13.801   3.772  1.00141.17     0.195 A 
HETATM    3  C3  MIQ B 502      17.126 -14.103   4.196  1.00141.71     0.035 A 
HETATM    4  C4  MIQ B 502      18.030 -13.529   5.221  1.00142.86     0.046 A 
HETATM    5  C5  MIQ B 502      19.349 -14.028   5.373  1.00139.53     0.031 A 
HETATM    6  C12 MIQ B 502      19.816 -15.110   4.519  1.00139.38     0.030 A 
HETATM    7  C13 MIQ B 502      18.949 -15.661   3.537  1.00141.18     0.019 A 
HETATM    8  C14 MIQ B 502      17.565 -15.136   3.383  1.00138.77     0.033 A 
HETATM    9  C15 MIQ B 502      16.357 -15.476   2.449  1.00142.10     0.195 A 
HETATM   10  N17 MIQ B 502      15.384 -14.651   2.797  1.00139.42    -0.288 N 
HETATM   11  O16 MIQ B 502      16.321 -16.452   1.452  1.00148.93    -0.171 OA
ENDROOT
BRANCH  10  12
HETATM   12  C18 MIQ B 502      14.099 -14.670   2.123  1.00139.82     0.187 C 
HETATM   13  C19 MIQ B 502      13.813 -13.249   1.620  1.00140.06     0.247 C 
HETATM   14  O25 MIQ B 502      14.634 -12.686   0.987  1.00143.95    -0.271 OA
HETATM   15  N20 MIQ B 502      12.559 -12.579   1.897  1.00140.02    -0.296 N 
HETATM   16  H13 MIQ B 502      12.387 -11.649   1.568  1.00142.77     0.171 HD
HETATM   17  C21 MIQ B 502      11.576 -13.283   2.681  1.00142.22     0.224 C 
HETATM   18  C22 MIQ B 502      12.103 -14.214   3.756  1.00139.52     0.106 C 
HETATM   19  O24 MIQ B 502      10.418 -13.143   2.490  1.00146.13    -0.273 OA
HETATM   20  C23 MIQ B 502      13.016 -15.205   3.058  1.00139.15     0.045 C 
ENDBRANCH  10  12
BRANCH   5  21
HETATM   21  N6  MIQ B 502      20.229 -13.446   6.371  1.00140.95    -0.377 N 
HETATM   22  C7  MIQ B 502      20.008 -12.068   6.772  1.00142.12     0.149 C 
HETATM   23  C8  MIQ B 502      21.288 -11.409   7.272  1.00144.10     0.187 C 
HETATM   24  O9  MIQ B 502      21.979 -12.196   8.195  1.00148.65    -0.388 OA
HETATM   25  C10 MIQ B 502      21.608 -13.526   8.410  1.00147.44     0.187 C 
HETATM   26  C11 MIQ B 502      20.995 -14.308   7.254  1.00144.08     0.149 C 
ENDBRANCH   5  21
TORSDOF 2
ENDMDL
MODEL 9
REMARK VINA RESULT:      -6.6     23.332     26.259
REMARK  2 active torsions:
REMARK  status: ('A' for Active; 'I' for Inactive)
REMARK    1  A    between atoms: C5_5  and  N6_21 
REMARK    2  A    between atoms: C18_14  and  N17_19 
ROOT
HETATM    1  O1  MIQ B 502      14.685 -15.649   2.463  1.00142.91    -0.171 OA
HETATM    2  C2  MIQ B 502      13.764 -15.684   1.414  1.00141.17     0.195 A 
HETATM    3  C3  MIQ B 502      12.774 -16.849   1.094  1.00141.71     0.035 A 
HETATM    4  C4  MIQ B 502      12.506 -18.161   1.728  1.00142.86     0.046 A 
HETATM    5  C5  MIQ B 502      11.517 -19.026   1.195  1.00139.53     0.031 A 
HETATM    6  C12 MIQ B 502      10.760 -18.621   0.019  1.00139.38     0.030 A 
HETATM    7  C13 MIQ B 502      11.016 -17.362  -0.588  1.00141.18     0.019 A 
HETATM    8  C14 MIQ B 502      12.054 -16.457  -0.023  1.00138.77     0.033 A 
HETATM    9  C15 MIQ B 502      12.600 -15.041  -0.399  1.00142.10     0.195 A 
HETATM   10  N17 MIQ B 502      13.535 -14.762   0.494  1.00139.42    -0.288 N 
HETATM   11  O16 MIQ B 502      12.183 -14.240  -1.463  1.00148.93    -0.171 OA
ENDROOT
BRANCH  10  12
HETATM   12  C18 MIQ B 502      14.279 -13.517   0.447  1.00139.82     0.187 C 
HETATM   13  C19 MIQ B 502      15.771 -13.867   0.383  1.00140.06     0.247 C 
HETATM   14  O25 MIQ B 502      16.148 -14.636  -0.427  1.00143.95    -0.271 OA
HETATM   15  N20 MIQ B 502      16.734 -13.273   1.288  1.00140.02    -0.296 N 
HETATM   16  H13 MIQ B 502      17.704 -13.515   1.241  1.00142.77     0.171 HD
HETATM   17  C21 MIQ B 502      16.248 -12.344   2.276  1.00142.22     0.224 C 
HETATM   18  C22 MIQ B 502      14.862 -12.605   2.832  1.00139.52     0.106 C 
HETATM   19  O24 MIQ B 502      16.898 -11.423   2.630  1.00146.13    -0.273 OA
HETATM   20  C23 MIQ B 502      13.919 -12.636   1.642  1.00139.15     0.045 C 
ENDBRANCH  10  12
BRANCH   5  21
HETATM   21  N6  MIQ B 502      11.275 -20.315   1.818  1.00140.95    -0.377 N 
HETATM   22  C7  MIQ B 502      12.070 -20.688   2.975  1.00142.12     0.149 C 
HETATM   23  C8  MIQ B 502      12.195 -22.199   3.117  1.00144.10     0.187 C 
HETATM   24  O9  MIQ B 502      10.970 -22.859   2.997  1.00148.65    -0.388 OA
HETATM   25  C10 MIQ B 502       9.835 -22.170   2.560  1.00147.44     0.187 C 
HETATM   26  C11 MIQ B 502      10.016 -21.004   1.594  1.00144.08     0.149 C 
ENDBRANCH   5  21
TORSDOF 2
ENDMDL
