MODEL 1
REMARK VINA RESULT:      -5.5      0.000      0.000
REMARK  2 active torsions:
REMARK  status: ('A' for Active; 'I' for Inactive)
REMARK    1  A    between atoms: C5_5  and  N6_21 
REMARK    2  A    between atoms: C18_14  and  N17_19 
ROOT
HETATM    1  O1  MIQ B 502       3.913  25.708  11.497  1.00142.91    -0.171 OA
HETATM    2  C2  MIQ B 502       3.202  26.684  10.795  1.00141.17     0.195 A 
HETATM    3  C3  MIQ B 502       1.651  26.869  10.786  1.00141.71     0.035 A 
HETATM    4  C4  MIQ B 502       0.536  26.153  11.450  1.00142.86     0.046 A 
HETATM    5  C5  MIQ B 502      -0.804  26.567  11.244  1.00139.53     0.031 A 
HETATM    6  C12 MIQ B 502      -1.085  27.702  10.377  1.00139.38     0.030 A 
HETATM    7  C13 MIQ B 502      -0.016  28.390   9.742  1.00141.18     0.019 A 
HETATM    8  C14 MIQ B 502       1.389  27.952   9.963  1.00138.77     0.033 A 
HETATM    9  C15 MIQ B 502       2.786  28.443   9.458  1.00142.10     0.195 A 
HETATM   10  N17 MIQ B 502       3.677  27.638  10.012  1.00139.42    -0.288 N 
HETATM   11  O16 MIQ B 502       3.034  29.512   8.596  1.00148.93    -0.171 OA
ENDROOT
BRANCH  10  12
HETATM   12  C18 MIQ B 502       5.097  27.788   9.752  1.00139.82     0.187 C 
HETATM   13  C19 MIQ B 502       5.473  29.247  10.036  1.00140.06     0.247 C 
HETATM   14  O25 MIQ B 502       5.160  29.733  11.064  1.00143.95    -0.271 OA
HETATM   15  N20 MIQ B 502       6.209  30.047   9.077  1.00140.02    -0.296 N 
HETATM   16  H13 MIQ B 502       6.442  31.000   9.272  1.00142.77     0.171 HD
HETATM   17  C21 MIQ B 502       6.570  29.434   7.825  1.00142.22     0.224 C 
HETATM   18  C22 MIQ B 502       5.600  28.415   7.260  1.00139.52     0.106 C 
HETATM   19  O24 MIQ B 502       7.576  29.711   7.270  1.00146.13    -0.273 OA
HETATM   20  C23 MIQ B 502       5.426  27.349   8.326  1.00139.15     0.045 C 
ENDBRANCH  10  12
BRANCH   5  21
HETATM   21  N6  MIQ B 502      -1.888  25.847  11.889  1.00140.95    -0.377 N 
HETATM   22  C7  MIQ B 502      -1.585  24.600  12.569  1.00142.12     0.149 C 
HETATM   23  C8  MIQ B 502      -2.791  23.671  12.618  1.00144.10     0.187 C 
HETATM   24  O9  MIQ B 502      -3.956  24.314  13.040  1.00148.65    -0.388 OA
HETATM   25  C10 MIQ B 502      -3.992  25.706  13.161  1.00147.44     0.187 C 
HETATM   26  C11 MIQ B 502      -3.116  26.541  12.232  1.00144.08     0.149 C 
ENDBRANCH   5  21
TORSDOF 2
ENDMDL
MODEL 2
REMARK VINA RESULT:      -5.4      1.925      8.636
REMARK  2 active torsions:
REMARK  status: ('A' for Active; 'I' for Inactive)
REMARK    1  A    between atoms: C5_5  and  N6_21 
REMARK    2  A    between atoms: C18_14  and  N17_19 
ROOT
HETATM    1  O1  MIQ B 502      -1.921  29.067   9.317  1.00142.91    -0.171 OA
HETATM    2  C2  MIQ B 502      -1.274  28.090  10.077  1.00141.17     0.195 A 
HETATM    3  C3  MIQ B 502       0.265  27.830  10.127  1.00141.71     0.035 A 
HETATM    4  C4  MIQ B 502       1.428  28.465   9.462  1.00142.86     0.046 A 
HETATM    5  C5  MIQ B 502       2.742  27.997   9.715  1.00139.53     0.031 A 
HETATM    6  C12 MIQ B 502       2.949  26.887  10.635  1.00139.38     0.030 A 
HETATM    7  C13 MIQ B 502       1.835  26.279  11.273  1.00141.18     0.019 A 
HETATM    8  C14 MIQ B 502       0.457  26.776  11.005  1.00138.77     0.033 A 
HETATM    9  C15 MIQ B 502      -0.971  26.379  11.503  1.00142.10     0.195 A 
HETATM   10  N17 MIQ B 502      -1.810  27.203  10.898  1.00139.42    -0.288 N 
HETATM   11  O16 MIQ B 502      -1.289  25.360  12.403  1.00148.93    -0.171 OA
ENDROOT
BRANCH  10  12
HETATM   12  C18 MIQ B 502      -3.243  27.116  11.112  1.00139.82     0.187 C 
HETATM   13  C19 MIQ B 502      -3.504  27.308  12.611  1.00140.06     0.247 C 
HETATM   14  O25 MIQ B 502      -3.032  28.237  13.164  1.00143.95    -0.271 OA
HETATM   15  N20 MIQ B 502      -4.321  26.383  13.369  1.00140.02    -0.296 N 
HETATM   16  H13 MIQ B 502      -4.478  26.516  14.348  1.00142.77     0.171 HD
HETATM   17  C21 MIQ B 502      -4.878  25.251  12.675  1.00142.22     0.224 C 
HETATM   18  C22 MIQ B 502      -4.045  24.663  11.552  1.00139.52     0.106 C 
HETATM   19  O24 MIQ B 502      -5.935  24.807  12.964  1.00146.13    -0.273 OA
HETATM   20  C23 MIQ B 502      -3.782  25.792  10.573  1.00139.15     0.045 C 
ENDBRANCH  10  12
BRANCH   5  21
HETATM   21  N6  MIQ B 502       3.870  28.618   9.046  1.00140.95    -0.377 N 
HETATM   22  C7  MIQ B 502       3.608  29.535   7.950  1.00142.12     0.149 C 
HETATM   23  C8  MIQ B 502       4.771  29.595   6.968  1.00144.10     0.187 C 
HETATM   24  O9  MIQ B 502       6.007  29.755   7.598  1.00148.65    -0.388 OA
HETATM   25  C10 MIQ B 502       6.115  29.629   8.986  1.00147.44     0.187 C 
HETATM   26  C11 MIQ B 502       5.160  28.685   9.709  1.00144.08     0.149 C 
ENDBRANCH   5  21
TORSDOF 2
ENDMDL
MODEL 3
REMARK VINA RESULT:      -5.4      1.757      8.304
REMARK  2 active torsions:
REMARK  status: ('A' for Active; 'I' for Inactive)
REMARK    1  A    between atoms: C5_5  and  N6_21 
REMARK    2  A    between atoms: C18_14  and  N17_19 
ROOT
HETATM    1  O1  MIQ B 502       2.115  24.612  12.638  1.00142.91    -0.171 OA
HETATM    2  C2  MIQ B 502       1.421  25.528  11.845  1.00141.17     0.195 A 
HETATM    3  C3  MIQ B 502       2.057  26.649  10.961  1.00141.71     0.035 A 
HETATM    4  C4  MIQ B 502       3.453  27.067  10.694  1.00142.86     0.046 A 
HETATM    5  C5  MIQ B 502       3.723  28.150   9.819  1.00139.53     0.031 A 
HETATM    6  C12 MIQ B 502       2.620  28.853   9.179  1.00139.38     0.030 A 
HETATM    7  C13 MIQ B 502       1.281  28.451   9.433  1.00141.18     0.019 A 
HETATM    8  C14 MIQ B 502       1.005  27.312  10.351  1.00138.77     0.033 A 
HETATM    9  C15 MIQ B 502      -0.291  26.600  10.859  1.00142.10     0.195 A 
HETATM   10  N17 MIQ B 502       0.115  25.638  11.671  1.00139.42    -0.288 N 
HETATM   11  O16 MIQ B 502      -1.608  26.919  10.522  1.00148.93    -0.171 OA
ENDROOT
BRANCH  10  12
HETATM   12  C18 MIQ B 502      -0.829  24.769  12.349  1.00139.82     0.187 C 
HETATM   13  C19 MIQ B 502      -1.750  24.159  11.285  1.00140.06     0.247 C 
HETATM   14  O25 MIQ B 502      -1.272  23.639  10.340  1.00143.95    -0.271 OA
HETATM   15  N20 MIQ B 502      -3.192  24.198  11.410  1.00140.02    -0.296 N 
HETATM   16  H13 MIQ B 502      -3.782  23.802  10.705  1.00142.77     0.171 HD
HETATM   17  C21 MIQ B 502      -3.751  24.848  12.567  1.00142.22     0.224 C 
HETATM   18  C22 MIQ B 502      -2.988  26.037  13.116  1.00139.52     0.106 C 
HETATM   19  O24 MIQ B 502      -4.753  24.468  13.065  1.00146.13    -0.273 OA
HETATM   20  C23 MIQ B 502      -1.586  25.544  13.426  1.00139.15     0.045 C 
ENDBRANCH  10  12
BRANCH   5  21
HETATM   21  N6  MIQ B 502       5.095  28.558   9.579  1.00140.95    -0.377 N 
HETATM   22  C7  MIQ B 502       6.150  27.572   9.731  1.00142.12     0.149 C 
HETATM   23  C8  MIQ B 502       7.483  28.216  10.088  1.00144.10     0.187 C 
HETATM   24  O9  MIQ B 502       7.797  29.304   9.272  1.00148.65    -0.388 OA
HETATM   25  C10 MIQ B 502       6.842  29.835   8.402  1.00147.44     0.187 C 
HETATM   26  C11 MIQ B 502       5.370  29.749   8.794  1.00144.08     0.149 C 
ENDBRANCH   5  21
TORSDOF 2
ENDMDL
MODEL 4
REMARK VINA RESULT:      -5.4      1.386      2.739
REMARK  2 active torsions:
REMARK  status: ('A' for Active; 'I' for Inactive)
REMARK    1  A    between atoms: C5_5  and  N6_21 
REMARK    2  A    between atoms: C18_14  and  N17_19 
ROOT
HETATM    1  O1  MIQ B 502       0.316  29.132   8.906  1.00142.91    -0.171 OA
HETATM    2  C2  MIQ B 502       1.088  28.214   9.622  1.00141.17     0.195 A 
HETATM    3  C3  MIQ B 502       0.551  27.132  10.612  1.00141.71     0.035 A 
HETATM    4  C4  MIQ B 502      -0.807  26.756  11.072  1.00142.86     0.046 A 
HETATM    5  C5  MIQ B 502      -0.982  25.700  12.002  1.00139.53     0.031 A 
HETATM    6  C12 MIQ B 502       0.180  24.982  12.507  1.00139.38     0.030 A 
HETATM    7  C13 MIQ B 502       1.482  25.343  12.066  1.00141.18     0.019 A 
HETATM    8  C14 MIQ B 502       1.659  26.450  11.087  1.00138.77     0.033 A 
HETATM    9  C15 MIQ B 502       2.891  27.112  10.387  1.00142.10     0.195 A 
HETATM   10  N17 MIQ B 502       2.401  28.065   9.611  1.00139.42    -0.288 N 
HETATM   11  O16 MIQ B 502       4.232  26.765  10.554  1.00148.93    -0.171 OA
ENDROOT
BRANCH  10  12
HETATM   12  C18 MIQ B 502       3.268  28.909   8.811  1.00139.82     0.187 C 
HETATM   13  C19 MIQ B 502       4.160  27.994   7.963  1.00140.06     0.247 C 
HETATM   14  O25 MIQ B 502       3.662  27.139   7.320  1.00143.95    -0.271 OA
HETATM   15  N20 MIQ B 502       5.599  28.153   7.925  1.00140.02    -0.296 N 
HETATM   16  H13 MIQ B 502       6.171  27.545   7.372  1.00142.77     0.171 HD
HETATM   17  C21 MIQ B 502       6.184  29.197   8.726  1.00142.22     0.224 C 
HETATM   18  C22 MIQ B 502       5.499  29.510  10.042  1.00139.52     0.106 C 
HETATM   19  O24 MIQ B 502       7.147  29.783   8.371  1.00146.13    -0.273 OA
HETATM   20  C23 MIQ B 502       4.060  29.859   9.708  1.00139.15     0.045 C 
ENDBRANCH  10  12
BRANCH   5  21
HETATM   21  N6  MIQ B 502      -2.316  25.352  12.455  1.00140.95    -0.377 N 
HETATM   22  C7  MIQ B 502      -3.397  26.294  12.223  1.00142.12     0.149 C 
HETATM   23  C8  MIQ B 502      -4.513  26.144  13.248  1.00144.10     0.187 C 
HETATM   24  O9  MIQ B 502      -4.908  24.817  13.430  1.00148.65    -0.388 OA
HETATM   25  C10 MIQ B 502      -4.159  23.774  12.879  1.00147.44     0.187 C 
HETATM   26  C11 MIQ B 502      -2.655  23.963  12.715  1.00144.08     0.149 C 
ENDBRANCH   5  21
TORSDOF 2
ENDMDL
MODEL 5
REMARK VINA RESULT:      -5.3     20.349     21.555
REMARK  2 active torsions:
REMARK  status: ('A' for Active; 'I' for Inactive)
REMARK    1  A    between atoms: C5_5  and  N6_21 
REMARK    2  A    between atoms: C18_14  and  N17_19 
ROOT
HETATM    1  O1  MIQ B 502      -1.945  46.174  14.583  1.00142.91    -0.171 OA
HETATM    2  C2  MIQ B 502      -1.398  47.309  15.184  1.00141.17     0.195 A 
HETATM    3  C3  MIQ B 502      -1.056  47.476  16.699  1.00141.71     0.035 A 
HETATM    4  C4  MIQ B 502      -1.180  46.584  17.876  1.00142.86     0.046 A 
HETATM    5  C5  MIQ B 502      -0.773  47.029  19.159  1.00139.53     0.031 A 
HETATM    6  C12 MIQ B 502      -0.229  48.370  19.320  1.00139.38     0.030 A 
HETATM    7  C13 MIQ B 502      -0.109  49.225  18.192  1.00141.18     0.019 A 
HETATM    8  C14 MIQ B 502      -0.536  48.752  16.847  1.00138.77     0.033 A 
HETATM    9  C15 MIQ B 502      -0.555  49.380  15.415  1.00142.10     0.195 A 
HETATM   10  N17 MIQ B 502      -1.057  48.453  14.616  1.00139.42    -0.288 N 
HETATM   11  O16 MIQ B 502      -0.130  50.661  15.059  1.00148.93    -0.171 OA
ENDROOT
BRANCH  10  12
HETATM   12  C18 MIQ B 502      -1.239  48.694  13.197  1.00139.82     0.187 C 
HETATM   13  C19 MIQ B 502      -2.679  48.307  12.838  1.00140.06     0.247 C 
HETATM   14  O25 MIQ B 502      -3.569  48.744  13.477  1.00143.95    -0.271 OA
HETATM   15  N20 MIQ B 502      -2.979  47.423  11.730  1.00140.02    -0.296 N 
HETATM   16  H13 MIQ B 502      -3.923  47.173  11.510  1.00142.77     0.171 HD
HETATM   17  C21 MIQ B 502      -1.874  46.894  10.972  1.00142.22     0.224 C 
HETATM   18  C22 MIQ B 502      -0.593  46.620  11.735  1.00139.52     0.106 C 
HETATM   19  O24 MIQ B 502      -1.964  46.690   9.811  1.00146.13    -0.273 OA
HETATM   20  C23 MIQ B 502      -0.192  47.930  12.388  1.00139.15     0.045 C 
ENDBRANCH  10  12
BRANCH   5  21
HETATM   21  N6  MIQ B 502      -0.914  46.150  20.306  1.00140.95    -0.377 N 
HETATM   22  C7  MIQ B 502      -1.210  44.747  20.073  1.00142.12     0.149 C 
HETATM   23  C8  MIQ B 502      -1.944  44.117  21.250  1.00144.10     0.187 C 
HETATM   24  O9  MIQ B 502      -1.346  44.405  22.479  1.00148.65    -0.388 OA
HETATM   25  C10 MIQ B 502      -0.333  45.363  22.566  1.00147.44     0.187 C 
HETATM   26  C11 MIQ B 502      -0.348  46.532  21.588  1.00144.08     0.149 C 
ENDBRANCH   5  21
TORSDOF 2
ENDMDL
MODEL 6
REMARK VINA RESULT:      -5.3      1.969      8.444
REMARK  2 active torsions:
REMARK  status: ('A' for Active; 'I' for Inactive)
REMARK    1  A    between atoms: C5_5  and  N6_21 
REMARK    2  A    between atoms: C18_14  and  N17_19 
ROOT
HETATM    1  O1  MIQ B 502      -1.172  27.298  10.480  1.00142.91    -0.171 OA
HETATM    2  C2  MIQ B 502      -0.219  26.499  11.115  1.00141.17     0.195 A 
HETATM    3  C3  MIQ B 502       1.331  26.620  10.970  1.00141.71     0.035 A 
HETATM    4  C4  MIQ B 502       2.214  27.526  10.197  1.00142.86     0.046 A 
HETATM    5  C5  MIQ B 502       3.623  27.388  10.271  1.00139.53     0.031 A 
HETATM    6  C12 MIQ B 502       4.205  26.352  11.112  1.00139.38     0.030 A 
HETATM    7  C13 MIQ B 502       3.359  25.484  11.854  1.00141.18     0.019 A 
HETATM    8  C14 MIQ B 502       1.880  25.635  11.774  1.00138.77     0.033 A 
HETATM    9  C15 MIQ B 502       0.663  24.898  12.423  1.00142.10     0.195 A 
HETATM   10  N17 MIQ B 502      -0.419  25.499  11.957  1.00139.42    -0.288 N 
HETATM   11  O16 MIQ B 502       0.715  23.822  13.312  1.00148.93    -0.171 OA
ENDROOT
BRANCH  10  12
HETATM   12  C18 MIQ B 502      -1.750  25.065  12.338  1.00139.82     0.187 C 
HETATM   13  C19 MIQ B 502      -2.560  24.856  11.053  1.00140.06     0.247 C 
HETATM   14  O25 MIQ B 502      -2.109  24.189  10.190  1.00143.95    -0.271 OA
HETATM   15  N20 MIQ B 502      -3.868  25.450  10.869  1.00140.02    -0.296 N 
HETATM   16  H13 MIQ B 502      -4.383  25.312  10.022  1.00142.77     0.171 HD
HETATM   17  C21 MIQ B 502      -4.392  26.269  11.931  1.00142.22     0.224 C 
HETATM   18  C22 MIQ B 502      -3.386  27.071  12.733  1.00139.52     0.106 C 
HETATM   19  O24 MIQ B 502      -5.549  26.307  12.168  1.00146.13    -0.273 OA
HETATM   20  C23 MIQ B 502      -2.386  26.075  13.292  1.00139.15     0.045 C 
ENDBRANCH  10  12
BRANCH   5  21
HETATM   21  N6  MIQ B 502       4.476  28.272   9.497  1.00140.95    -0.377 N 
HETATM   22  C7  MIQ B 502       3.852  29.301   8.682  1.00142.12     0.149 C 
HETATM   23  C8  MIQ B 502       4.723  29.692   7.495  1.00144.10     0.187 C 
HETATM   24  O9  MIQ B 502       6.051  29.937   7.853  1.00148.65    -0.388 OA
HETATM   25  C10 MIQ B 502       6.511  29.610   9.131  1.00147.44     0.187 C 
HETATM   26  C11 MIQ B 502       5.874  28.429   9.856  1.00144.08     0.149 C 
ENDBRANCH   5  21
TORSDOF 2
ENDMDL
MODEL 7
REMARK VINA RESULT:      -5.3      1.189      2.321
REMARK  2 active torsions:
REMARK  status: ('A' for Active; 'I' for Inactive)
REMARK    1  A    between atoms: C5_5  and  N6_21 
REMARK    2  A    between atoms: C18_14  and  N17_19 
ROOT
HETATM    1  O1  MIQ B 502       2.694  28.547   9.263  1.00142.91    -0.171 OA
HETATM    2  C2  MIQ B 502       2.899  27.485  10.145  1.00141.17     0.195 A 
HETATM    3  C3  MIQ B 502       1.791  26.698  10.915  1.00141.71     0.035 A 
HETATM    4  C4  MIQ B 502       0.313  26.800  10.960  1.00142.86     0.046 A 
HETATM    5  C5  MIQ B 502      -0.442  25.920  11.776  1.00139.53     0.031 A 
HETATM    6  C12 MIQ B 502       0.240  24.910  12.572  1.00139.38     0.030 A 
HETATM    7  C13 MIQ B 502       1.657  24.810  12.528  1.00141.18     0.019 A 
HETATM    8  C14 MIQ B 502       2.444  25.736  11.668  1.00138.77     0.033 A 
HETATM    9  C15 MIQ B 502       3.966  25.926  11.364  1.00142.10     0.195 A 
HETATM   10  N17 MIQ B 502       4.044  26.929  10.505  1.00139.42    -0.288 N 
HETATM   11  O16 MIQ B 502       5.023  25.187  11.897  1.00148.93    -0.171 OA
ENDROOT
BRANCH  10  12
HETATM   12  C18 MIQ B 502       5.322  27.400  10.005  1.00139.82     0.187 C 
HETATM   13  C19 MIQ B 502       5.390  28.913  10.248  1.00140.06     0.247 C 
HETATM   14  O25 MIQ B 502       5.155  29.334  11.325  1.00143.95    -0.271 OA
HETATM   15  N20 MIQ B 502       5.740  29.841   9.193  1.00140.02    -0.296 N 
HETATM   16  H13 MIQ B 502       5.774  30.827   9.363  1.00142.77     0.171 HD
HETATM   17  C21 MIQ B 502       6.012  29.304   7.885  1.00142.22     0.224 C 
HETATM   18  C22 MIQ B 502       5.224  28.074   7.476  1.00139.52     0.106 C 
HETATM   19  O24 MIQ B 502       6.813  29.796   7.169  1.00146.13    -0.273 OA
HETATM   20  C23 MIQ B 502       5.491  27.020   8.535  1.00139.15     0.045 C 
ENDBRANCH  10  12
BRANCH   5  21
HETATM   21  N6  MIQ B 502      -1.887  26.041  11.822  1.00140.95    -0.377 N 
HETATM   22  C7  MIQ B 502      -2.537  26.117  13.119  1.00142.12     0.149 C 
HETATM   23  C8  MIQ B 502      -3.970  25.603  13.068  1.00144.10     0.187 C 
HETATM   24  O9  MIQ B 502      -4.700  26.133  12.003  1.00148.65    -0.388 OA
HETATM   25  C10 MIQ B 502      -4.059  26.862  10.998  1.00147.44     0.187 C 
HETATM   26  C11 MIQ B 502      -2.613  26.517  10.657  1.00144.08     0.149 C 
ENDBRANCH   5  21
TORSDOF 2
ENDMDL
MODEL 8
REMARK VINA RESULT:      -5.1     18.680     21.593
REMARK  2 active torsions:
REMARK  status: ('A' for Active; 'I' for Inactive)
REMARK    1  A    between atoms: C5_5  and  N6_21 
REMARK    2  A    between atoms: C18_14  and  N17_19 
ROOT
HETATM    1  O1  MIQ B 502      11.445  42.466  23.940  1.00142.91    -0.171 OA
HETATM    2  C2  MIQ B 502      11.353  42.931  22.627  1.00141.17     0.195 A 
HETATM    3  C3  MIQ B 502      11.205  42.050  21.345  1.00141.71     0.035 A 
HETATM    4  C4  MIQ B 502      11.118  40.588  21.118  1.00142.86     0.046 A 
HETATM    5  C5  MIQ B 502      10.982  40.073  19.804  1.00139.53     0.031 A 
HETATM    6  C12 MIQ B 502      10.927  40.987  18.672  1.00139.38     0.030 A 
HETATM    7  C13 MIQ B 502      11.009  42.389  18.890  1.00141.18     0.019 A 
HETATM    8  C14 MIQ B 502      11.149  42.924  20.272  1.00138.77     0.033 A 
HETATM    9  C15 MIQ B 502      11.263  44.355  20.890  1.00142.10     0.195 A 
HETATM   10  N17 MIQ B 502      11.366  44.181  22.198  1.00139.42    -0.288 N 
HETATM   11  O16 MIQ B 502      11.259  45.567  20.198  1.00148.93    -0.171 OA
ENDROOT
BRANCH  10  12
HETATM   12  C18 MIQ B 502      11.507  45.306  23.103  1.00139.82     0.187 C 
HETATM   13  C19 MIQ B 502      12.736  45.047  23.983  1.00140.06     0.247 C 
HETATM   14  O25 MIQ B 502      13.760  44.762  23.473  1.00143.95    -0.271 OA
HETATM   15  N20 MIQ B 502      12.676  45.149  25.427  1.00140.02    -0.296 N 
HETATM   16  H13 MIQ B 502      13.484  44.971  25.991  1.00142.77     0.171 HD
HETATM   17  C21 MIQ B 502      11.412  45.489  26.027  1.00142.22     0.224 C 
HETATM   18  C22 MIQ B 502      10.167  44.978  25.328  1.00139.52     0.106 C 
HETATM   19  O24 MIQ B 502      11.350  46.138  27.013  1.00146.13    -0.273 OA
HETATM   20  C23 MIQ B 502      10.223  45.506  23.906  1.00139.15     0.045 C 
ENDBRANCH  10  12
BRANCH   5  21
HETATM   21  N6  MIQ B 502      10.913  38.638  19.595  1.00140.95    -0.377 N 
HETATM   22  C7  MIQ B 502      11.895  38.015  18.725  1.00142.12     0.149 C 
HETATM   23  C8  MIQ B 502      11.364  36.734  18.094  1.00144.10     0.187 C 
HETATM   24  O9  MIQ B 502      10.762  35.881  19.021  1.00148.65    -0.388 OA
HETATM   25  C10 MIQ B 502      10.499  36.321  20.321  1.00147.44     0.187 C 
HETATM   26  C11 MIQ B 502      10.200  37.800  20.544  1.00144.08     0.149 C 
ENDBRANCH   5  21
TORSDOF 2
ENDMDL
MODEL 9
REMARK VINA RESULT:      -5.1      1.635      2.833
REMARK  2 active torsions:
REMARK  status: ('A' for Active; 'I' for Inactive)
REMARK    1  A    between atoms: C5_5  and  N6_21 
REMARK    2  A    between atoms: C18_14  and  N17_19 
ROOT
HETATM    1  O1  MIQ B 502       2.985  29.444   8.667  1.00142.91    -0.171 OA
HETATM    2  C2  MIQ B 502       2.800  28.353   9.519  1.00141.17     0.195 A 
HETATM    3  C3  MIQ B 502       1.432  27.826  10.059  1.00141.71     0.035 A 
HETATM    4  C4  MIQ B 502       0.027  28.257   9.867  1.00142.86     0.046 A 
HETATM    5  C5  MIQ B 502      -1.030  27.560  10.506  1.00139.53     0.031 A 
HETATM    6  C12 MIQ B 502      -0.731  26.414  11.353  1.00139.38     0.030 A 
HETATM    7  C13 MIQ B 502       0.616  26.000  11.536  1.00141.18     0.019 A 
HETATM    8  C14 MIQ B 502       1.721  26.735  10.862  1.00138.77     0.033 A 
HETATM    9  C15 MIQ B 502       3.276  26.583  10.820  1.00142.10     0.195 A 
HETATM   10  N17 MIQ B 502       3.717  27.551  10.033  1.00139.42    -0.288 N 
HETATM   11  O16 MIQ B 502       4.040  25.620  11.481  1.00148.93    -0.171 OA
ENDROOT
BRANCH  10  12
HETATM   12  C18 MIQ B 502       5.133  27.730   9.772  1.00139.82     0.187 C 
HETATM   13  C19 MIQ B 502       5.492  29.181  10.114  1.00140.06     0.247 C 
HETATM   14  O25 MIQ B 502       5.179  29.620  11.163  1.00143.95    -0.271 OA
HETATM   15  N20 MIQ B 502       6.212  30.028   9.185  1.00140.02    -0.296 N 
HETATM   16  H13 MIQ B 502       6.435  30.976   9.417  1.00142.77     0.171 HD
HETATM   17  C21 MIQ B 502       6.574  29.473   7.906  1.00142.22     0.224 C 
HETATM   18  C22 MIQ B 502       5.613  28.465   7.305  1.00139.52     0.106 C 
HETATM   19  O24 MIQ B 502       7.573  29.785   7.358  1.00146.13    -0.273 OA
HETATM   20  C23 MIQ B 502       5.459  27.354   8.327  1.00139.15     0.045 C 
ENDBRANCH  10  12
BRANCH   5  21
HETATM   21  N6  MIQ B 502      -2.400  28.001  10.321  1.00140.95    -0.377 N 
HETATM   22  C7  MIQ B 502      -3.336  27.840  11.420  1.00142.12     0.149 C 
HETATM   23  C8  MIQ B 502      -4.773  27.719  10.930  1.00144.10     0.187 C 
HETATM   24  O9  MIQ B 502      -5.113  28.700   9.996  1.00148.65    -0.388 OA
HETATM   25  C10 MIQ B 502      -4.128  29.520   9.441  1.00147.44     0.187 C 
HETATM   26  C11 MIQ B 502      -2.719  28.960   9.277  1.00144.08     0.149 C 
ENDBRANCH   5  21
TORSDOF 2
ENDMDL
