MODEL 1
REMARK VINA RESULT:      -5.7      0.000      0.000
REMARK  2 active torsions:
REMARK  status: ('A' for Active; 'I' for Inactive)
REMARK    1  A    between atoms: C5_5  and  N6_21 
REMARK    2  A    between atoms: C18_14  and  N17_19 
ROOT
HETATM    1  O1  MIQ B 502      -3.758  -4.818  45.826  1.00142.91    -0.171 OA
HETATM    2  C2  MIQ B 502      -4.302  -5.278  44.625  1.00141.17     0.195 A 
HETATM    3  C3  MIQ B 502      -5.619  -4.773  43.955  1.00141.71     0.035 A 
HETATM    4  C4  MIQ B 502      -6.622  -3.746  44.326  1.00142.86     0.046 A 
HETATM    5  C5  MIQ B 502      -7.743  -3.506  43.492  1.00139.53     0.031 A 
HETATM    6  C12 MIQ B 502      -7.909  -4.271  42.265  1.00139.38     0.030 A 
HETATM    7  C13 MIQ B 502      -6.947  -5.254  41.909  1.00141.18     0.019 A 
HETATM    8  C14 MIQ B 502      -5.771  -5.501  42.787  1.00138.77     0.033 A 
HETATM    9  C15 MIQ B 502      -4.540  -6.464  42.730  1.00142.10     0.195 A 
HETATM   10  N17 MIQ B 502      -3.828  -6.211  43.817  1.00139.42    -0.288 N 
HETATM   11  O16 MIQ B 502      -4.256  -7.400  41.735  1.00148.93    -0.171 OA
ENDROOT
BRANCH  10  12
HETATM   12  C18 MIQ B 502      -2.607  -6.938  44.108  1.00139.82     0.187 C 
HETATM   13  C19 MIQ B 502      -1.655  -6.748  42.921  1.00140.06     0.247 C 
HETATM   14  O25 MIQ B 502      -1.435  -5.658  42.528  1.00143.95    -0.271 OA
HETATM   15  N20 MIQ B 502      -1.011  -7.872  42.271  1.00140.02    -0.296 N 
HETATM   16  H13 MIQ B 502      -0.397  -7.735  41.493  1.00142.77     0.171 HD
HETATM   17  C21 MIQ B 502      -1.304  -9.193  42.763  1.00142.22     0.224 C 
HETATM   18  C22 MIQ B 502      -2.703  -9.427  43.300  1.00139.52     0.106 C 
HETATM   19  O24 MIQ B 502      -0.490 -10.050  42.753  1.00146.13    -0.273 OA
HETATM   20  C23 MIQ B 502      -2.918  -8.405  44.401  1.00139.15     0.045 C 
ENDBRANCH  10  12
BRANCH   5  21
HETATM   21  N6  MIQ B 502      -8.726  -2.508  43.875  1.00140.95    -0.377 N 
HETATM   22  C7  MIQ B 502      -9.043  -1.448  42.934  1.00142.12     0.149 C 
HETATM   23  C8  MIQ B 502      -9.533  -0.189  43.638  1.00144.10     0.187 C 
HETATM   24  O9  MIQ B 502     -10.514  -0.450  44.596  1.00148.65    -0.388 OA
HETATM   25  C10 MIQ B 502     -10.796  -1.763  44.981  1.00147.44     0.187 C 
HETATM   26  C11 MIQ B 502      -9.673  -2.793  44.939  1.00144.08     0.149 C 
ENDBRANCH   5  21
TORSDOF 2
ENDMDL
MODEL 2
REMARK VINA RESULT:      -5.5      2.462      8.322
REMARK  2 active torsions:
REMARK  status: ('A' for Active; 'I' for Inactive)
REMARK    1  A    between atoms: C5_5  and  N6_21 
REMARK    2  A    between atoms: C18_14  and  N17_19 
ROOT
HETATM    1  O1  MIQ B 502      -6.478  -5.813  41.950  1.00142.91    -0.171 OA
HETATM    2  C2  MIQ B 502      -5.373  -5.731  42.800  1.00141.17     0.195 A 
HETATM    3  C3  MIQ B 502      -3.938  -6.271  42.502  1.00141.71     0.035 A 
HETATM    4  C4  MIQ B 502      -3.333  -6.971  41.343  1.00142.86     0.046 A 
HETATM    5  C5  MIQ B 502      -1.965  -7.343  41.366  1.00139.53     0.031 A 
HETATM    6  C12 MIQ B 502      -1.151  -7.036  42.533  1.00139.38     0.030 A 
HETATM    7  C13 MIQ B 502      -1.730  -6.364  43.643  1.00141.18     0.019 A 
HETATM    8  C14 MIQ B 502      -3.166  -5.973  43.613  1.00138.77     0.033 A 
HETATM    9  C15 MIQ B 502      -4.128  -5.243  44.607  1.00142.10     0.195 A 
HETATM   10  N17 MIQ B 502      -5.304  -5.189  44.004  1.00139.42    -0.288 N 
HETATM   11  O16 MIQ B 502      -3.805  -4.752  45.873  1.00148.93    -0.171 OA
ENDROOT
BRANCH  10  12
HETATM   12  C18 MIQ B 502      -6.457  -4.586  44.646  1.00139.82     0.187 C 
HETATM   13  C19 MIQ B 502      -7.586  -5.624  44.651  1.00140.06     0.247 C 
HETATM   14  O25 MIQ B 502      -7.370  -6.708  45.064  1.00143.95    -0.271 OA
HETATM   15  N20 MIQ B 502      -8.915  -5.309  44.169  1.00140.02    -0.296 N 
HETATM   16  H13 MIQ B 502      -9.642  -5.998  44.172  1.00142.77     0.171 HD
HETATM   17  C21 MIQ B 502      -9.152  -3.983  43.661  1.00142.22     0.224 C 
HETATM   18  C22 MIQ B 502      -7.993  -3.307  42.954  1.00139.52     0.106 C 
HETATM   19  O24 MIQ B 502     -10.197  -3.447  43.795  1.00146.13    -0.273 OA
HETATM   20  C23 MIQ B 502      -6.839  -3.286  43.940  1.00139.15     0.045 C 
ENDBRANCH  10  12
BRANCH   5  21
HETATM   21  N6  MIQ B 502      -1.390  -8.042  40.231  1.00140.95    -0.377 N 
HETATM   22  C7  MIQ B 502      -0.141  -8.761  40.418  1.00142.12     0.149 C 
HETATM   23  C8  MIQ B 502       0.649  -8.875  39.121  1.00144.10     0.187 C 
HETATM   24  O9  MIQ B 502      -0.131  -9.303  38.044  1.00148.65    -0.388 OA
HETATM   25  C10 MIQ B 502      -1.521  -9.371  38.161  1.00147.44     0.187 C 
HETATM   26  C11 MIQ B 502      -2.224  -8.391  39.094  1.00144.08     0.149 C 
ENDBRANCH   5  21
TORSDOF 2
ENDMDL
MODEL 3
REMARK VINA RESULT:      -5.4      3.236      4.336
REMARK  2 active torsions:
REMARK  status: ('A' for Active; 'I' for Inactive)
REMARK    1  A    between atoms: C5_5  and  N6_21 
REMARK    2  A    between atoms: C18_14  and  N17_19 
ROOT
HETATM    1  O1  MIQ B 502      -6.607  -4.002  44.621  1.00142.91    -0.171 OA
HETATM    2  C2  MIQ B 502      -6.631  -4.831  43.498  1.00141.17     0.195 A 
HETATM    3  C3  MIQ B 502      -7.416  -4.566  42.173  1.00141.71     0.035 A 
HETATM    4  C4  MIQ B 502      -8.297  -3.467  41.713  1.00142.86     0.046 A 
HETATM    5  C5  MIQ B 502      -8.879  -3.508  40.421  1.00139.53     0.031 A 
HETATM    6  C12 MIQ B 502      -8.608  -4.637  39.542  1.00139.38     0.030 A 
HETATM    7  C13 MIQ B 502      -7.762  -5.690  39.982  1.00141.18     0.019 A 
HETATM    8  C14 MIQ B 502      -7.152  -5.641  41.339  1.00138.77     0.033 A 
HETATM    9  C15 MIQ B 502      -6.199  -6.577  42.150  1.00142.10     0.195 A 
HETATM   10  N17 MIQ B 502      -6.009  -5.984  43.317  1.00139.42    -0.288 N 
HETATM   11  O16 MIQ B 502      -5.662  -7.794  41.725  1.00148.93    -0.171 OA
ENDROOT
BRANCH  10  12
HETATM   12  C18 MIQ B 502      -5.179  -6.582  44.345  1.00139.82     0.187 C 
HETATM   13  C19 MIQ B 502      -5.997  -6.622  45.642  1.00140.06     0.247 C 
HETATM   14  O25 MIQ B 502      -7.081  -7.087  45.626  1.00143.95    -0.271 OA
HETATM   15  N20 MIQ B 502      -5.473  -6.109  46.892  1.00140.02    -0.296 N 
HETATM   16  H13 MIQ B 502      -6.019  -6.135  47.730  1.00142.77     0.171 HD
HETATM   17  C21 MIQ B 502      -4.151  -5.537  46.885  1.00142.22     0.224 C 
HETATM   18  C22 MIQ B 502      -3.729  -4.813  45.621  1.00139.52     0.106 C 
HETATM   19  O24 MIQ B 502      -3.431  -5.633  47.817  1.00146.13    -0.273 OA
HETATM   20  C23 MIQ B 502      -3.867  -5.811  44.485  1.00139.15     0.045 C 
ENDBRANCH  10  12
BRANCH   5  21
HETATM   21  N6  MIQ B 502      -9.752  -2.432  39.989  1.00140.95    -0.377 N 
HETATM   22  C7  MIQ B 502     -11.188  -2.651  40.009  1.00142.12     0.149 C 
HETATM   23  C8  MIQ B 502     -11.910  -1.783  38.987  1.00144.10     0.187 C 
HETATM   24  O9  MIQ B 502     -11.510  -0.446  39.030  1.00148.65    -0.388 OA
HETATM   25  C10 MIQ B 502     -10.399  -0.064  39.786  1.00147.44     0.187 C 
HETATM   26  C11 MIQ B 502      -9.262  -1.064  39.969  1.00144.08     0.149 C 
ENDBRANCH   5  21
TORSDOF 2
ENDMDL
MODEL 4
REMARK VINA RESULT:      -5.4      2.422      3.640
REMARK  2 active torsions:
REMARK  status: ('A' for Active; 'I' for Inactive)
REMARK    1  A    between atoms: C5_5  and  N6_21 
REMARK    2  A    between atoms: C18_14  and  N17_19 
ROOT
HETATM    1  O1  MIQ B 502      -6.035  -3.939  44.413  1.00142.91    -0.171 OA
HETATM    2  C2  MIQ B 502      -6.784  -4.155  43.253  1.00141.17     0.195 A 
HETATM    3  C3  MIQ B 502      -7.878  -3.205  42.671  1.00141.71     0.035 A 
HETATM    4  C4  MIQ B 502      -8.426  -1.897  43.103  1.00142.86     0.046 A 
HETATM    5  C5  MIQ B 502      -9.441  -1.260  42.346  1.00139.53     0.031 A 
HETATM    6  C12 MIQ B 502      -9.947  -1.895  41.137  1.00139.38     0.030 A 
HETATM    7  C13 MIQ B 502      -9.421  -3.148  40.722  1.00141.18     0.019 A 
HETATM    8  C14 MIQ B 502      -8.353  -3.811  41.520  1.00138.77     0.033 A 
HETATM    9  C15 MIQ B 502      -7.549  -5.145  41.386  1.00142.10     0.195 A 
HETATM   10  N17 MIQ B 502      -6.725  -5.180  42.420  1.00139.42    -0.288 N 
HETATM   11  O16 MIQ B 502      -7.681  -6.103  40.379  1.00148.93    -0.171 OA
ENDROOT
BRANCH  10  12
HETATM   12  C18 MIQ B 502      -5.824  -6.297  42.633  1.00139.82     0.187 C 
HETATM   13  C19 MIQ B 502      -5.978  -6.752  44.089  1.00140.06     0.247 C 
HETATM   14  O25 MIQ B 502      -7.057  -6.971  44.513  1.00143.95    -0.271 OA
HETATM   15  N20 MIQ B 502      -4.834  -6.928  44.960  1.00140.02    -0.296 N 
HETATM   16  H13 MIQ B 502      -4.949  -7.219  45.911  1.00142.77     0.171 HD
HETATM   17  C21 MIQ B 502      -3.528  -6.646  44.423  1.00142.22     0.224 C 
HETATM   18  C22 MIQ B 502      -3.439  -5.531  43.398  1.00139.52     0.106 C 
HETATM   19  O24 MIQ B 502      -2.575  -7.257  44.762  1.00146.13    -0.273 OA
HETATM   20  C23 MIQ B 502      -4.392  -5.901  42.276  1.00139.15     0.045 C 
ENDBRANCH  10  12
BRANCH   5  21
HETATM   21  N6  MIQ B 502      -9.980   0.013  42.788  1.00140.95    -0.377 N 
HETATM   22  C7  MIQ B 502     -11.085   0.595  42.047  1.00142.12     0.149 C 
HETATM   23  C8  MIQ B 502     -11.118   2.113  42.174  1.00144.10     0.187 C 
HETATM   24  O9  MIQ B 502     -10.989   2.551  43.494  1.00148.65    -0.388 OA
HETATM   25  C10 MIQ B 502     -10.633   1.654  44.505  1.00147.44     0.187 C 
HETATM   26  C11 MIQ B 502      -9.745   0.467  44.148  1.00144.08     0.149 C 
ENDBRANCH   5  21
TORSDOF 2
ENDMDL
MODEL 5
REMARK VINA RESULT:      -5.4     15.514     17.180
REMARK  2 active torsions:
REMARK  status: ('A' for Active; 'I' for Inactive)
REMARK    1  A    between atoms: C5_5  and  N6_21 
REMARK    2  A    between atoms: C18_14  and  N17_19 
ROOT
HETATM    1  O1  MIQ B 502       5.195   6.651  41.813  1.00142.91    -0.171 OA
HETATM    2  C2  MIQ B 502       4.331   7.442  41.051  1.00141.17     0.195 A 
HETATM    3  C3  MIQ B 502       3.796   7.110  39.622  1.00141.71     0.035 A 
HETATM    4  C4  MIQ B 502       3.999   5.969  38.697  1.00142.86     0.046 A 
HETATM    5  C5  MIQ B 502       3.360   5.950  37.432  1.00139.53     0.031 A 
HETATM    6  C12 MIQ B 502       2.499   7.057  37.040  1.00139.38     0.030 A 
HETATM    7  C13 MIQ B 502       2.303   8.150  37.927  1.00141.18     0.019 A 
HETATM    8  C14 MIQ B 502       2.975   8.163  39.255  1.00138.77     0.033 A 
HETATM    9  C15 MIQ B 502       3.000   9.155  40.464  1.00142.10     0.195 A 
HETATM   10  N17 MIQ B 502       3.792   8.606  41.370  1.00139.42    -0.288 N 
HETATM   11  O16 MIQ B 502       2.324  10.372  40.560  1.00148.93    -0.171 OA
ENDROOT
BRANCH  10  12
HETATM   12  C18 MIQ B 502       4.065   9.263  42.634  1.00139.82     0.187 C 
HETATM   13  C19 MIQ B 502       5.588   9.334  42.805  1.00140.06     0.247 C 
HETATM   14  O25 MIQ B 502       6.245   9.773  41.929  1.00143.95    -0.271 OA
HETATM   15  N20 MIQ B 502       6.243   8.883  44.015  1.00140.02    -0.296 N 
HETATM   16  H13 MIQ B 502       7.238   8.928  44.111  1.00142.77     0.171 HD
HETATM   17  C21 MIQ B 502       5.420   8.341  45.066  1.00142.22     0.224 C 
HETATM   18  C22 MIQ B 502       4.181   7.579  44.636  1.00139.52     0.106 C 
HETATM   19  O24 MIQ B 502       5.696   8.490  46.205  1.00146.13    -0.273 OA
HETATM   20  C23 MIQ B 502       3.366   8.529  43.778  1.00139.15     0.045 C 
ENDBRANCH  10  12
BRANCH   5  21
HETATM   21  N6  MIQ B 502       3.580   4.834  36.530  1.00140.95    -0.377 N 
HETATM   22  C7  MIQ B 502       4.578   3.840  36.885  1.00142.12     0.149 C 
HETATM   23  C8  MIQ B 502       5.155   3.149  35.656  1.00144.10     0.187 C 
HETATM   24  O9  MIQ B 502       4.171   2.714  34.766  1.00148.65    -0.388 OA
HETATM   25  C10 MIQ B 502       2.842   3.113  34.930  1.00147.44     0.187 C 
HETATM   26  C11 MIQ B 502       2.561   4.473  35.560  1.00144.08     0.149 C 
ENDBRANCH   5  21
TORSDOF 2
ENDMDL
MODEL 6
REMARK VINA RESULT:      -5.3      1.928      3.039
REMARK  2 active torsions:
REMARK  status: ('A' for Active; 'I' for Inactive)
REMARK    1  A    between atoms: C5_5  and  N6_21 
REMARK    2  A    between atoms: C18_14  and  N17_19 
ROOT
HETATM    1  O1  MIQ B 502      -4.753  -5.164  43.146  1.00142.91    -0.171 OA
HETATM    2  C2  MIQ B 502      -5.765  -5.242  44.105  1.00141.17     0.195 A 
HETATM    3  C3  MIQ B 502      -7.044  -4.348  44.171  1.00141.71     0.035 A 
HETATM    4  C4  MIQ B 502      -7.557  -3.240  43.330  1.00142.86     0.046 A 
HETATM    5  C5  MIQ B 502      -8.784  -2.606  43.651  1.00139.53     0.031 A 
HETATM    6  C12 MIQ B 502      -9.543  -3.046  44.813  1.00139.38     0.030 A 
HETATM    7  C13 MIQ B 502      -9.052  -4.109  45.618  1.00141.18     0.019 A 
HETATM    8  C14 MIQ B 502      -7.765  -4.773  45.275  1.00138.77     0.033 A 
HETATM    9  C15 MIQ B 502      -6.929  -5.939  45.897  1.00142.10     0.195 A 
HETATM   10  N17 MIQ B 502      -5.859  -6.071  45.130  1.00139.42    -0.288 N 
HETATM   11  O16 MIQ B 502      -7.250  -6.683  47.034  1.00148.93    -0.171 OA
ENDROOT
BRANCH  10  12
HETATM   12  C18 MIQ B 502      -4.839  -7.061  45.419  1.00139.82     0.187 C 
HETATM   13  C19 MIQ B 502      -3.488  -6.337  45.480  1.00140.06     0.247 C 
HETATM   14  O25 MIQ B 502      -3.379  -5.380  46.161  1.00143.95    -0.271 OA
HETATM   15  N20 MIQ B 502      -2.339  -6.798  44.728  1.00140.02    -0.296 N 
HETATM   16  H13 MIQ B 502      -1.465  -6.312  44.772  1.00142.77     0.171 HD
HETATM   17  C21 MIQ B 502      -2.501  -7.962  43.896  1.00142.22     0.224 C 
HETATM   18  C22 MIQ B 502      -3.859  -8.154  43.250  1.00139.52     0.106 C 
HETATM   19  O24 MIQ B 502      -1.618  -8.731  43.730  1.00146.13    -0.273 OA
HETATM   20  C23 MIQ B 502      -4.874  -8.180  44.378  1.00139.15     0.045 C 
ENDBRANCH  10  12
BRANCH   5  21
HETATM   21  N6  MIQ B 502      -9.267  -1.512  42.828  1.00140.95    -0.377 N 
HETATM   22  C7  MIQ B 502      -9.546  -0.236  43.463  1.00142.12     0.149 C 
HETATM   23  C8  MIQ B 502     -10.597   0.561  42.700  1.00144.10     0.187 C 
HETATM   24  O9  MIQ B 502     -10.345   0.619  41.328  1.00148.65    -0.388 OA
HETATM   25  C10 MIQ B 502      -9.355  -0.184  40.756  1.00147.44     0.187 C 
HETATM   26  C11 MIQ B 502      -9.056  -1.537  41.391  1.00144.08     0.149 C 
ENDBRANCH   5  21
TORSDOF 2
ENDMDL
MODEL 7
REMARK VINA RESULT:      -5.3      4.355      6.759
REMARK  2 active torsions:
REMARK  status: ('A' for Active; 'I' for Inactive)
REMARK    1  A    between atoms: C5_5  and  N6_21 
REMARK    2  A    between atoms: C18_14  and  N17_19 
ROOT
HETATM    1  O1  MIQ B 502      -3.132  -8.223  44.689  1.00142.91    -0.171 OA
HETATM    2  C2  MIQ B 502      -3.948  -7.189  45.153  1.00141.17     0.195 A 
HETATM    3  C3  MIQ B 502      -4.580  -7.080  46.577  1.00141.71     0.035 A 
HETATM    4  C4  MIQ B 502      -4.529  -7.941  47.782  1.00142.86     0.046 A 
HETATM    5  C5  MIQ B 502      -5.225  -7.566  48.960  1.00139.53     0.031 A 
HETATM    6  C12 MIQ B 502      -5.992  -6.329  48.984  1.00139.38     0.030 A 
HETATM    7  C13 MIQ B 502      -6.039  -5.503  47.828  1.00141.18     0.019 A 
HETATM    8  C14 MIQ B 502      -5.305  -5.900  46.596  1.00138.77     0.033 A 
HETATM    9  C15 MIQ B 502      -5.122  -5.272  45.175  1.00142.10     0.195 A 
HETATM   10  N17 MIQ B 502      -4.345  -6.107  44.505  1.00139.42    -0.288 N 
HETATM   11  O16 MIQ B 502      -5.672  -4.075  44.713  1.00148.93    -0.171 OA
ENDROOT
BRANCH  10  12
HETATM   12  C18 MIQ B 502      -3.970  -5.851  43.127  1.00139.82     0.187 C 
HETATM   13  C19 MIQ B 502      -4.344  -7.090  42.303  1.00140.06     0.247 C 
HETATM   14  O25 MIQ B 502      -5.435  -7.530  42.389  1.00143.95    -0.271 OA
HETATM   15  N20 MIQ B 502      -3.396  -7.732  41.417  1.00140.02    -0.296 N 
HETATM   16  H13 MIQ B 502      -3.650  -8.544  40.889  1.00142.77     0.171 HD
HETATM   17  C21 MIQ B 502      -2.067  -7.182  41.337  1.00142.22     0.224 C 
HETATM   18  C22 MIQ B 502      -1.506  -6.569  42.606  1.00139.52     0.106 C 
HETATM   19  O24 MIQ B 502      -1.449  -7.203  40.330  1.00146.13    -0.273 OA
HETATM   20  C23 MIQ B 502      -2.488  -5.494  43.036  1.00139.15     0.045 C 
ENDBRANCH  10  12
BRANCH   5  21
HETATM   21  N6  MIQ B 502      -5.179  -8.426  50.128  1.00140.95    -0.377 N 
HETATM   22  C7  MIQ B 502      -4.360  -8.020  51.258  1.00142.12     0.149 C 
HETATM   23  C8  MIQ B 502      -3.889  -9.215  52.077  1.00144.10     0.187 C 
HETATM   24  O9  MIQ B 502      -4.920 -10.108  52.378  1.00148.65    -0.388 OA
HETATM   25  C10 MIQ B 502      -6.168  -9.980  51.763  1.00147.44     0.187 C 
HETATM   26  C11 MIQ B 502      -6.232  -9.401  50.354  1.00144.08     0.149 C 
ENDBRANCH   5  21
TORSDOF 2
ENDMDL
MODEL 8
REMARK VINA RESULT:      -5.3     15.775     18.400
REMARK  2 active torsions:
REMARK  status: ('A' for Active; 'I' for Inactive)
REMARK    1  A    between atoms: C5_5  and  N6_21 
REMARK    2  A    between atoms: C18_14  and  N17_19 
ROOT
HETATM    1  O1  MIQ B 502       9.167   2.367  48.355  1.00142.91    -0.171 OA
HETATM    2  C2  MIQ B 502       9.417   1.219  49.110  1.00141.17     0.195 A 
HETATM    3  C3  MIQ B 502       9.805  -0.187  48.550  1.00141.71     0.035 A 
HETATM    4  C4  MIQ B 502      10.018  -0.716  47.182  1.00142.86     0.046 A 
HETATM    5  C5  MIQ B 502      10.374  -2.074  46.986  1.00139.53     0.031 A 
HETATM    6  C12 MIQ B 502      10.533  -2.952  48.136  1.00139.38     0.030 A 
HETATM    7  C13 MIQ B 502      10.330  -2.446  49.448  1.00141.18     0.019 A 
HETATM    8  C14 MIQ B 502       9.958  -1.018  49.648  1.00138.77     0.033 A 
HETATM    9  C15 MIQ B 502       9.664  -0.124  50.896  1.00142.10     0.195 A 
HETATM   10  N17 MIQ B 502       9.385   1.081  50.424  1.00139.42    -0.288 N 
HETATM   11  O16 MIQ B 502       9.689  -0.521  52.234  1.00148.93    -0.171 OA
ENDROOT
BRANCH  10  12
HETATM   12  C18 MIQ B 502       9.043   2.179  51.308  1.00139.82     0.187 C 
HETATM   13  C19 MIQ B 502       7.714   2.772  50.824  1.00140.06     0.247 C 
HETATM   14  O25 MIQ B 502       6.797   2.055  50.639  1.00143.95    -0.271 OA
HETATM   15  N20 MIQ B 502       7.551   4.193  50.593  1.00140.02    -0.296 N 
HETATM   16  H13 MIQ B 502       6.680   4.567  50.271  1.00142.77     0.171 HD
HETATM   17  C21 MIQ B 502       8.689   5.048  50.817  1.00142.22     0.224 C 
HETATM   18  C22 MIQ B 502      10.053   4.460  50.511  1.00139.52     0.106 C 
HETATM   19  O24 MIQ B 502       8.563   6.150  51.224  1.00146.13    -0.273 OA
HETATM   20  C23 MIQ B 502      10.178   3.201  51.350  1.00139.15     0.045 C 
ENDBRANCH  10  12
BRANCH   5  21
HETATM   21  N6  MIQ B 502      10.565  -2.582  45.640  1.00140.95    -0.377 N 
HETATM   22  C7  MIQ B 502       9.601  -3.532  45.113  1.00142.12     0.149 C 
HETATM   23  C8  MIQ B 502      10.214  -4.434  44.050  1.00144.10     0.187 C 
HETATM   24  O9  MIQ B 502      10.940  -3.727  43.090  1.00148.65    -0.388 OA
HETATM   25  C10 MIQ B 502      11.230  -2.373  43.277  1.00147.44     0.187 C 
HETATM   26  C11 MIQ B 502      11.401  -1.854  44.701  1.00144.08     0.149 C 
ENDBRANCH   5  21
TORSDOF 2
ENDMDL
MODEL 9
REMARK VINA RESULT:      -5.3      2.770      8.488
REMARK  2 active torsions:
REMARK  status: ('A' for Active; 'I' for Inactive)
REMARK    1  A    between atoms: C5_5  and  N6_21 
REMARK    2  A    between atoms: C18_14  and  N17_19 
ROOT
HETATM    1  O1  MIQ B 502      -6.659  -6.669  40.933  1.00142.91    -0.171 OA
HETATM    2  C2  MIQ B 502      -5.875  -6.116  41.947  1.00141.17     0.195 A 
HETATM    3  C3  MIQ B 502      -4.347  -6.357  42.166  1.00141.71     0.035 A 
HETATM    4  C4  MIQ B 502      -3.328  -7.160  41.449  1.00142.86     0.046 A 
HETATM    5  C5  MIQ B 502      -1.984  -7.179  41.898  1.00139.53     0.031 A 
HETATM    6  C12 MIQ B 502      -1.602  -6.403  43.070  1.00139.38     0.030 A 
HETATM    7  C13 MIQ B 502      -2.578  -5.632  43.757  1.00141.18     0.019 A 
HETATM    8  C14 MIQ B 502      -3.988  -5.614  43.280  1.00138.77     0.033 A 
HETATM    9  C15 MIQ B 502      -5.300  -4.908  43.754  1.00142.10     0.195 A 
HETATM   10  N17 MIQ B 502      -6.245  -5.289  42.910  1.00139.42    -0.288 N 
HETATM   11  O16 MIQ B 502      -5.441  -4.053  44.848  1.00148.93    -0.171 OA
ENDROOT
BRANCH  10  12
HETATM   12  C18 MIQ B 502      -7.616  -4.836  43.053  1.00139.82     0.187 C 
HETATM   13  C19 MIQ B 502      -8.519  -6.076  43.073  1.00140.06     0.247 C 
HETATM   14  O25 MIQ B 502      -8.267  -6.960  43.812  1.00143.95    -0.271 OA
HETATM   15  N20 MIQ B 502      -9.677  -6.191  42.211  1.00140.02    -0.296 N 
HETATM   16  H13 MIQ B 502     -10.255  -7.008  42.228  1.00142.77     0.171 HD
HETATM   17  C21 MIQ B 502      -9.957  -5.103  41.309  1.00142.22     0.224 C 
HETATM   18  C22 MIQ B 502      -8.762  -4.359  40.748  1.00139.52     0.106 C 
HETATM   19  O24 MIQ B 502     -11.066  -4.805  41.027  1.00146.13    -0.273 OA
HETATM   20  C23 MIQ B 502      -7.970  -3.852  41.940  1.00139.15     0.045 C 
ENDBRANCH  10  12
BRANCH   5  21
HETATM   21  N6  MIQ B 502      -1.000  -7.982  41.195  1.00140.95    -0.377 N 
HETATM   22  C7  MIQ B 502      -0.161  -8.883  41.965  1.00142.12     0.149 C 
HETATM   23  C8  MIQ B 502       1.173  -9.146  41.277  1.00144.10     0.187 C 
HETATM   24  O9  MIQ B 502       1.032  -9.470  39.926  1.00148.65    -0.388 OA
HETATM   25  C10 MIQ B 502      -0.201  -9.318  39.286  1.00147.44     0.187 C 
HETATM   26  C11 MIQ B 502      -1.143  -8.220  39.769  1.00144.08     0.149 C 
ENDBRANCH   5  21
TORSDOF 2
ENDMDL
