MODEL 1
REMARK VINA RESULT:      -7.8      0.000      0.000
REMARK  2 active torsions:
REMARK  status: ('A' for Active; 'I' for Inactive)
REMARK    1  A    between atoms: C5_5  and  N6_21 
REMARK    2  A    between atoms: C18_14  and  N17_19 
ROOT
HETATM    1  O1  MIQ B 502      10.131  11.389  10.329  1.00142.91    -0.171 OA
HETATM    2  C2  MIQ B 502      10.688  11.919  11.495  1.00141.17     0.195 A 
HETATM    3  C3  MIQ B 502      10.509  11.356  12.941  1.00141.71     0.035 A 
HETATM    4  C4  MIQ B 502       9.772  10.197  13.499  1.00142.86     0.046 A 
HETATM    5  C5  MIQ B 502       9.799   9.934  14.892  1.00139.53     0.031 A 
HETATM    6  C12 MIQ B 502      10.556  10.808  15.778  1.00139.38     0.030 A 
HETATM    7  C13 MIQ B 502      11.263  11.918  15.242  1.00141.18     0.019 A 
HETATM    8  C14 MIQ B 502      11.233  12.188  13.779  1.00138.77     0.033 A 
HETATM    9  C15 MIQ B 502      11.866  13.273  12.848  1.00142.10     0.195 A 
HETATM   10  N17 MIQ B 502      11.469  12.978  11.621  1.00139.42    -0.288 N 
HETATM   11  O16 MIQ B 502      12.682  14.336  13.238  1.00148.93    -0.171 OA
ENDROOT
BRANCH  10  12
HETATM   12  C18 MIQ B 502      11.857  13.791  10.484  1.00139.82     0.187 C 
HETATM   13  C19 MIQ B 502      10.583  14.402   9.889  1.00140.06     0.247 C 
HETATM   14  O25 MIQ B 502       9.830  14.969  10.599  1.00143.95    -0.271 OA
HETATM   15  N20 MIQ B 502      10.278  14.309   8.476  1.00140.02    -0.296 N 
HETATM   16  H13 MIQ B 502       9.439  14.706   8.102  1.00142.77     0.171 HD
HETATM   17  C21 MIQ B 502      11.206  13.603   7.631  1.00142.22     0.224 C 
HETATM   18  C22 MIQ B 502      11.931  12.424   8.251  1.00139.52     0.106 C 
HETATM   19  O24 MIQ B 502      11.396  13.932   6.512  1.00146.13    -0.273 OA
HETATM   20  C23 MIQ B 502      12.649  12.956   9.478  1.00139.15     0.045 C 
ENDBRANCH  10  12
BRANCH   5  21
HETATM   21  N6  MIQ B 502       9.061   8.805  15.427  1.00140.95    -0.377 N 
HETATM   22  C7  MIQ B 502       9.479   7.464  15.057  1.00142.12     0.149 C 
HETATM   23  C8  MIQ B 502       8.325   6.471  15.120  1.00144.10     0.187 C 
HETATM   24  O9  MIQ B 502       7.594   6.562  16.305  1.00148.65    -0.388 OA
HETATM   25  C10 MIQ B 502       7.804   7.626  17.187  1.00147.44     0.187 C 
HETATM   26  C11 MIQ B 502       8.243   8.970  16.616  1.00144.08     0.149 C 
ENDBRANCH   5  21
TORSDOF 2
ENDMDL
MODEL 2
REMARK VINA RESULT:      -7.6      2.061      3.170
REMARK  2 active torsions:
REMARK  status: ('A' for Active; 'I' for Inactive)
REMARK    1  A    between atoms: C5_5  and  N6_21 
REMARK    2  A    between atoms: C18_14  and  N17_19 
ROOT
HETATM    1  O1  MIQ B 502      10.657  12.897  11.334  1.00142.91    -0.171 OA
HETATM    2  C2  MIQ B 502      11.015  11.649  10.818  1.00141.17     0.195 A 
HETATM    3  C3  MIQ B 502      10.714  10.261  11.468  1.00141.71     0.035 A 
HETATM    4  C4  MIQ B 502      10.021   9.847  12.711  1.00142.86     0.046 A 
HETATM    5  C5  MIQ B 502       9.901   8.474  13.041  1.00139.53     0.031 A 
HETATM    6  C12 MIQ B 502      10.462   7.465  12.153  1.00139.38     0.030 A 
HETATM    7  C13 MIQ B 502      11.125   7.862  10.961  1.00141.18     0.019 A 
HETATM    8  C14 MIQ B 502      11.246   9.305  10.618  1.00138.77     0.033 A 
HETATM    9  C15 MIQ B 502      11.881  10.104   9.434  1.00142.10     0.195 A 
HETATM   10  N17 MIQ B 502      11.664  11.382   9.697  1.00139.42    -0.288 N 
HETATM   11  O16 MIQ B 502      12.544   9.572   8.327  1.00148.93    -0.171 OA
ENDROOT
BRANCH  10  12
HETATM   12  C18 MIQ B 502      12.134  12.429   8.809  1.00139.82     0.187 C 
HETATM   13  C19 MIQ B 502      12.816  13.500   9.669  1.00140.06     0.247 C 
HETATM   14  O25 MIQ B 502      13.644  13.175  10.444  1.00143.95    -0.271 OA
HETATM   15  N20 MIQ B 502      12.477  14.904   9.553  1.00140.02    -0.296 N 
HETATM   16  H13 MIQ B 502      12.925  15.592  10.125  1.00142.77     0.171 HD
HETATM   17  C21 MIQ B 502      11.456  15.274   8.607  1.00142.22     0.224 C 
HETATM   18  C22 MIQ B 502      10.329  14.281   8.397  1.00139.52     0.106 C 
HETATM   19  O24 MIQ B 502      11.499  16.300   8.022  1.00146.13    -0.273 OA
HETATM   20  C23 MIQ B 502      10.978  12.976   7.973  1.00139.15     0.045 C 
ENDBRANCH  10  12
BRANCH   5  21
HETATM   21  N6  MIQ B 502       9.232   8.083  14.269  1.00140.95    -0.377 N 
HETATM   22  C7  MIQ B 502       8.326   9.029  14.898  1.00142.12     0.149 C 
HETATM   23  C8  MIQ B 502       8.217   8.800  16.400  1.00144.10     0.187 C 
HETATM   24  O9  MIQ B 502       8.005   7.460  16.731  1.00148.65    -0.388 OA
HETATM   25  C10 MIQ B 502       8.128   6.463  15.760  1.00147.44     0.187 C 
HETATM   26  C11 MIQ B 502       9.112   6.678  14.615  1.00144.08     0.149 C 
ENDBRANCH   5  21
TORSDOF 2
ENDMDL
MODEL 3
REMARK VINA RESULT:      -7.2      2.055      3.144
REMARK  2 active torsions:
REMARK  status: ('A' for Active; 'I' for Inactive)
REMARK    1  A    between atoms: C5_5  and  N6_21 
REMARK    2  A    between atoms: C18_14  and  N17_19 
ROOT
HETATM    1  O1  MIQ B 502      10.564  13.624  11.028  1.00142.91    -0.171 OA
HETATM    2  C2  MIQ B 502      10.955  12.416  10.446  1.00141.17     0.195 A 
HETATM    3  C3  MIQ B 502      10.757  10.991  11.056  1.00141.71     0.035 A 
HETATM    4  C4  MIQ B 502      10.152  10.498  12.316  1.00142.86     0.046 A 
HETATM    5  C5  MIQ B 502      10.118   9.109  12.598  1.00139.53     0.031 A 
HETATM    6  C12 MIQ B 502      10.680   8.163  11.644  1.00139.38     0.030 A 
HETATM    7  C13 MIQ B 502      11.259   8.636  10.436  1.00141.18     0.019 A 
HETATM    8  C14 MIQ B 502      11.290  10.096  10.144  1.00138.77     0.033 A 
HETATM    9  C15 MIQ B 502      11.821  10.968   8.960  1.00142.10     0.195 A 
HETATM   10  N17 MIQ B 502      11.556  12.223   9.284  1.00139.42    -0.288 N 
HETATM   11  O16 MIQ B 502      12.450  10.511   7.801  1.00148.93    -0.171 OA
ENDROOT
BRANCH  10  12
HETATM   12  C18 MIQ B 502      11.926  13.324   8.415  1.00139.82     0.187 C 
HETATM   13  C19 MIQ B 502      12.634  14.380   9.273  1.00140.06     0.247 C 
HETATM   14  O25 MIQ B 502      13.526  14.050   9.972  1.00143.95    -0.271 OA
HETATM   15  N20 MIQ B 502      12.242  15.774   9.247  1.00140.02    -0.296 N 
HETATM   16  H13 MIQ B 502      12.709  16.452   9.817  1.00142.77     0.171 HD
HETATM   17  C21 MIQ B 502      11.144  16.150   8.395  1.00142.22     0.224 C 
HETATM   18  C22 MIQ B 502      10.038  15.128   8.219  1.00139.52     0.106 C 
HETATM   19  O24 MIQ B 502      11.111  17.201   7.856  1.00146.13    -0.273 OA
HETATM   20  C23 MIQ B 502      10.696  13.867   7.690  1.00139.15     0.045 C 
ENDBRANCH  10  12
BRANCH   5  21
HETATM   21  N6  MIQ B 502       9.535   8.640  13.842  1.00140.95    -0.377 N 
HETATM   22  C7  MIQ B 502       9.933   7.337  14.348  1.00142.12     0.149 C 
HETATM   23  C8  MIQ B 502       8.851   6.711  15.219  1.00144.10     0.187 C 
HETATM   24  O9  MIQ B 502       8.344   7.593  16.175  1.00148.65    -0.388 OA
HETATM   25  C10 MIQ B 502       8.668   8.952  16.127  1.00147.44     0.187 C 
HETATM   26  C11 MIQ B 502       8.942   9.589  14.768  1.00144.08     0.149 C 
ENDBRANCH   5  21
TORSDOF 2
ENDMDL
MODEL 4
REMARK VINA RESULT:      -7.1      1.683      2.320
REMARK  2 active torsions:
REMARK  status: ('A' for Active; 'I' for Inactive)
REMARK    1  A    between atoms: C5_5  and  N6_21 
REMARK    2  A    between atoms: C18_14  and  N17_19 
ROOT
HETATM    1  O1  MIQ B 502      11.355  10.529   9.319  1.00142.91    -0.171 OA
HETATM    2  C2  MIQ B 502      11.042  11.550  10.220  1.00141.17     0.195 A 
HETATM    3  C3  MIQ B 502      10.473  11.365  11.662  1.00141.71     0.035 A 
HETATM    4  C4  MIQ B 502      10.117  10.176  12.473  1.00142.86     0.046 A 
HETATM    5  C5  MIQ B 502       9.611  10.330  13.788  1.00139.53     0.031 A 
HETATM    6  C12 MIQ B 502       9.441  11.664  14.345  1.00139.38     0.030 A 
HETATM    7  C13 MIQ B 502       9.783  12.804  13.569  1.00141.18     0.019 A 
HETATM    8  C14 MIQ B 502      10.316  12.636  12.189  1.00138.77     0.033 A 
HETATM    9  C15 MIQ B 502      10.791  13.617  11.068  1.00142.10     0.195 A 
HETATM   10  N17 MIQ B 502      11.161  12.856  10.050  1.00139.42    -0.288 N 
HETATM   11  O16 MIQ B 502      10.815  15.011  11.131  1.00148.93    -0.171 OA
ENDROOT
BRANCH  10  12
HETATM   12  C18 MIQ B 502      11.650  13.432   8.812  1.00139.82     0.187 C 
HETATM   13  C19 MIQ B 502      12.719  14.471   9.170  1.00140.06     0.247 C 
HETATM   14  O25 MIQ B 502      13.601  14.165   9.891  1.00143.95    -0.271 OA
HETATM   15  N20 MIQ B 502      12.681  15.820   8.642  1.00140.02    -0.296 N 
HETATM   16  H13 MIQ B 502      13.382  16.491   8.888  1.00142.77     0.171 HD
HETATM   17  C21 MIQ B 502      11.589  16.173   7.772  1.00142.22     0.224 C 
HETATM   18  C22 MIQ B 502      10.253  15.514   8.054  1.00139.52     0.106 C 
HETATM   19  O24 MIQ B 502      11.731  16.935   6.879  1.00146.13    -0.273 OA
HETATM   20  C23 MIQ B 502      10.491  14.016   8.004  1.00139.15     0.045 C 
ENDBRANCH  10  12
BRANCH   5  21
HETATM   21  N6  MIQ B 502       9.253   9.157  14.565  1.00140.95    -0.377 N 
HETATM   22  C7  MIQ B 502       7.926   9.092  15.152  1.00142.12     0.149 C 
HETATM   23  C8  MIQ B 502       7.897   8.214  16.396  1.00144.10     0.187 C 
HETATM   24  O9  MIQ B 502       8.527   6.982  16.207  1.00148.65    -0.388 OA
HETATM   25  C10 MIQ B 502       9.284   6.744  15.057  1.00147.44     0.187 C 
HETATM   26  C11 MIQ B 502       9.995   7.920  14.395  1.00144.08     0.149 C 
ENDBRANCH   5  21
TORSDOF 2
ENDMDL
MODEL 5
REMARK VINA RESULT:      -7.0      1.628      2.166
REMARK  2 active torsions:
REMARK  status: ('A' for Active; 'I' for Inactive)
REMARK    1  A    between atoms: C5_5  and  N6_21 
REMARK    2  A    between atoms: C18_14  and  N17_19 
ROOT
HETATM    1  O1  MIQ B 502      10.030  11.332  10.276  1.00142.91    -0.171 OA
HETATM    2  C2  MIQ B 502      10.570  11.898  11.433  1.00141.17     0.195 A 
HETATM    3  C3  MIQ B 502      10.413  11.350  12.887  1.00141.71     0.035 A 
HETATM    4  C4  MIQ B 502       9.719  10.174  13.464  1.00142.86     0.046 A 
HETATM    5  C5  MIQ B 502       9.757   9.932  14.860  1.00139.53     0.031 A 
HETATM    6  C12 MIQ B 502      10.484  10.845  15.732  1.00139.38     0.030 A 
HETATM    7  C13 MIQ B 502      11.150  11.972  15.179  1.00141.18     0.019 A 
HETATM    8  C14 MIQ B 502      11.108  12.219  13.712  1.00138.77     0.033 A 
HETATM    9  C15 MIQ B 502      11.700  13.313  12.765  1.00142.10     0.195 A 
HETATM   10  N17 MIQ B 502      11.312  12.986  11.543  1.00139.42    -0.288 N 
HETATM   11  O16 MIQ B 502      12.478  14.410  13.138  1.00148.93    -0.171 OA
ENDROOT
BRANCH  10  12
HETATM   12  C18 MIQ B 502      11.669  13.797  10.393  1.00139.82     0.187 C 
HETATM   13  C19 MIQ B 502      13.188  14.006  10.422  1.00140.06     0.247 C 
HETATM   14  O25 MIQ B 502      13.897  13.069  10.537  1.00143.95    -0.271 OA
HETATM   15  N20 MIQ B 502      13.781  15.322  10.305  1.00140.02    -0.296 N 
HETATM   16  H13 MIQ B 502      14.773  15.446  10.331  1.00142.77     0.171 HD
HETATM   17  C21 MIQ B 502      12.895  16.451  10.175  1.00142.22     0.224 C 
HETATM   18  C22 MIQ B 502      11.568  16.363  10.904  1.00139.52     0.106 C 
HETATM   19  O24 MIQ B 502      13.188  17.395   9.527  1.00146.13    -0.273 OA
HETATM   20  C23 MIQ B 502      10.882  15.106  10.400  1.00139.15     0.045 C 
ENDBRANCH  10  12
BRANCH   5  21
HETATM   21  N6  MIQ B 502       9.061   8.785  15.412  1.00140.95    -0.377 N 
HETATM   22  C7  MIQ B 502       9.510   7.454  15.039  1.00142.12     0.149 C 
HETATM   23  C8  MIQ B 502       8.386   6.430  15.127  1.00144.10     0.187 C 
HETATM   24  O9  MIQ B 502       7.673   6.505  16.326  1.00148.65    -0.388 OA
HETATM   25  C10 MIQ B 502       7.870   7.578  17.199  1.00147.44     0.187 C 
HETATM   26  C11 MIQ B 502       8.261   8.932  16.616  1.00144.08     0.149 C 
ENDBRANCH   5  21
TORSDOF 2
ENDMDL
MODEL 6
REMARK VINA RESULT:      -6.8     11.407     14.527
REMARK  2 active torsions:
REMARK  status: ('A' for Active; 'I' for Inactive)
REMARK    1  A    between atoms: C5_5  and  N6_21 
REMARK    2  A    between atoms: C18_14  and  N17_19 
ROOT
HETATM    1  O1  MIQ B 502      21.599   9.105   7.589  1.00142.91    -0.171 OA
HETATM    2  C2  MIQ B 502      22.010  10.106   6.706  1.00141.17     0.195 A 
HETATM    3  C3  MIQ B 502      21.998  11.643   6.985  1.00141.71     0.035 A 
HETATM    4  C4  MIQ B 502      21.596  12.464   8.152  1.00142.86     0.046 A 
HETATM    5  C5  MIQ B 502      21.705  13.877   8.106  1.00139.53     0.031 A 
HETATM    6  C12 MIQ B 502      22.216  14.524   6.906  1.00139.38     0.030 A 
HETATM    7  C13 MIQ B 502      22.603  13.737   5.788  1.00141.18     0.019 A 
HETATM    8  C14 MIQ B 502      22.488  12.254   5.842  1.00138.77     0.033 A 
HETATM    9  C15 MIQ B 502      22.806  11.090   4.848  1.00142.10     0.195 A 
HETATM   10  N17 MIQ B 502      22.488   9.972   5.481  1.00139.42    -0.288 N 
HETATM   11  O16 MIQ B 502      23.320  11.211   3.556  1.00148.93    -0.171 OA
ENDROOT
BRANCH  10  12
HETATM   12  C18 MIQ B 502      22.638   8.675   4.849  1.00139.82     0.187 C 
HETATM   13  C19 MIQ B 502      24.095   8.547   4.385  1.00140.06     0.247 C 
HETATM   14  O25 MIQ B 502      24.964   8.767   5.150  1.00143.95    -0.271 OA
HETATM   15  N20 MIQ B 502      24.434   8.156   3.031  1.00140.02    -0.296 N 
HETATM   16  H13 MIQ B 502      25.388   8.083   2.739  1.00142.77     0.171 HD
HETATM   17  C21 MIQ B 502      23.354   7.903   2.112  1.00142.22     0.224 C 
HETATM   18  C22 MIQ B 502      22.101   8.739   2.286  1.00139.52     0.106 C 
HETATM   19  O24 MIQ B 502      23.442   7.081   1.268  1.00146.13    -0.273 OA
HETATM   20  C23 MIQ B 502      21.629   8.517   3.712  1.00139.15     0.045 C 
ENDBRANCH  10  12
BRANCH   5  21
HETATM   21  N6  MIQ B 502      21.293  14.669   9.251  1.00140.95    -0.377 N 
HETATM   22  C7  MIQ B 502      21.486  16.108   9.205  1.00142.12     0.149 C 
HETATM   23  C8  MIQ B 502      21.636  16.706  10.598  1.00144.10     0.187 C 
HETATM   24  O9  MIQ B 502      20.654  16.264  11.487  1.00148.65    -0.388 OA
HETATM   25  C10 MIQ B 502      19.806  15.210  11.138  1.00147.44     0.187 C 
HETATM   26  C11 MIQ B 502      20.332  14.131  10.198  1.00144.08     0.149 C 
ENDBRANCH   5  21
TORSDOF 2
ENDMDL
MODEL 7
REMARK VINA RESULT:      -6.7      3.195      9.541
REMARK  2 active torsions:
REMARK  status: ('A' for Active; 'I' for Inactive)
REMARK    1  A    between atoms: C5_5  and  N6_21 
REMARK    2  A    between atoms: C18_14  and  N17_19 
ROOT
HETATM    1  O1  MIQ B 502      12.008  15.904  11.217  1.00142.91    -0.171 OA
HETATM    2  C2  MIQ B 502      11.715  14.857  10.340  1.00141.17     0.195 A 
HETATM    3  C3  MIQ B 502      11.799  14.908   8.781  1.00141.71     0.035 A 
HETATM    4  C4  MIQ B 502      12.179  15.967   7.816  1.00142.86     0.046 A 
HETATM    5  C5  MIQ B 502      12.158  15.707   6.422  1.00139.53     0.031 A 
HETATM    6  C12 MIQ B 502      11.762  14.392   5.938  1.00139.38     0.030 A 
HETATM    7  C13 MIQ B 502      11.399  13.377   6.864  1.00141.18     0.019 A 
HETATM    8  C14 MIQ B 502      11.425  13.655   8.326  1.00138.77     0.033 A 
HETATM    9  C15 MIQ B 502      11.108  12.820   9.610  1.00142.10     0.195 A 
HETATM   10  N17 MIQ B 502      11.321  13.630  10.634  1.00139.42    -0.288 N 
HETATM   11  O16 MIQ B 502      10.684  11.491   9.659  1.00148.93    -0.171 OA
ENDROOT
BRANCH  10  12
HETATM   12  C18 MIQ B 502      11.109  13.193  12.001  1.00139.82     0.187 C 
HETATM   13  C19 MIQ B 502      11.859  11.869  12.191  1.00140.06     0.247 C 
HETATM   14  O25 MIQ B 502      12.994  11.801  11.878  1.00143.95    -0.271 OA
HETATM   15  N20 MIQ B 502      11.214  10.699  12.751  1.00140.02    -0.296 N 
HETATM   16  H13 MIQ B 502      11.713   9.839  12.863  1.00142.77     0.171 HD
HETATM   17  C21 MIQ B 502       9.825  10.805  13.116  1.00142.22     0.224 C 
HETATM   18  C22 MIQ B 502       8.963  11.715  12.262  1.00139.52     0.106 C 
HETATM   19  O24 MIQ B 502       9.382  10.215  14.039  1.00146.13    -0.273 OA
HETATM   20  C23 MIQ B 502       9.614  13.085  12.299  1.00139.15     0.045 C 
ENDBRANCH  10  12
BRANCH   5  21
HETATM   21  N6  MIQ B 502      12.517  16.757   5.487  1.00140.95    -0.377 N 
HETATM   22  C7  MIQ B 502      13.845  16.738   4.898  1.00142.12     0.149 C 
HETATM   23  C8  MIQ B 502      14.310  18.133   4.497  1.00144.10     0.187 C 
HETATM   24  O9  MIQ B 502      13.346  18.839   3.774  1.00148.65    -0.388 OA
HETATM   25  C10 MIQ B 502      12.040  18.352   3.672  1.00147.44     0.187 C 
HETATM   26  C11 MIQ B 502      11.478  17.524   4.823  1.00144.08     0.149 C 
ENDBRANCH   5  21
TORSDOF 2
ENDMDL
MODEL 8
REMARK VINA RESULT:      -6.7      1.905      3.154
REMARK  2 active torsions:
REMARK  status: ('A' for Active; 'I' for Inactive)
REMARK    1  A    between atoms: C5_5  and  N6_21 
REMARK    2  A    between atoms: C18_14  and  N17_19 
ROOT
HETATM    1  O1  MIQ B 502      10.343  14.740  12.119  1.00142.91    -0.171 OA
HETATM    2  C2  MIQ B 502      10.610  13.756  11.164  1.00141.17     0.195 A 
HETATM    3  C3  MIQ B 502      10.508  12.212  11.377  1.00141.71     0.035 A 
HETATM    4  C4  MIQ B 502      10.133  11.366  12.534  1.00142.86     0.046 A 
HETATM    5  C5  MIQ B 502      10.134   9.953  12.419  1.00139.53     0.031 A 
HETATM    6  C12 MIQ B 502      10.504   9.331  11.155  1.00139.38     0.030 A 
HETATM    7  C13 MIQ B 502      10.862  10.143  10.045  1.00141.18     0.019 A 
HETATM    8  C14 MIQ B 502      10.858  11.626  10.172  1.00138.77     0.033 A 
HETATM    9  C15 MIQ B 502      11.177  12.812   9.205  1.00142.10     0.195 A 
HETATM   10  N17 MIQ B 502      10.989  13.917   9.908  1.00139.42    -0.288 N 
HETATM   11  O16 MIQ B 502      11.582  12.719   7.872  1.00148.93    -0.171 OA
ENDROOT
BRANCH  10  12
HETATM   12  C18 MIQ B 502      11.210  15.229   9.330  1.00139.82     0.187 C 
HETATM   13  C19 MIQ B 502      10.399  15.311   8.031  1.00140.06     0.247 C 
HETATM   14  O25 MIQ B 502       9.255  15.025   8.048  1.00143.95    -0.271 OA
HETATM   15  N20 MIQ B 502      10.997  15.737   6.782  1.00140.02    -0.296 N 
HETATM   16  H13 MIQ B 502      10.459  15.780   5.940  1.00142.77     0.171 HD
HETATM   17  C21 MIQ B 502      12.398  16.072   6.785  1.00142.22     0.224 C 
HETATM   18  C22 MIQ B 502      13.284  15.286   7.732  1.00139.52     0.106 C 
HETATM   19  O24 MIQ B 502      12.832  16.921   6.087  1.00146.13    -0.273 OA
HETATM   20  C23 MIQ B 502      12.704  15.474   9.122  1.00139.15     0.045 C 
ENDBRANCH  10  12
BRANCH   5  21
HETATM   21  N6  MIQ B 502       9.779   9.135  13.565  1.00140.95    -0.377 N 
HETATM   22  C7  MIQ B 502       8.763   9.626  14.480  1.00142.12     0.149 C 
HETATM   23  C8  MIQ B 502       8.942   9.061  15.883  1.00144.10     0.187 C 
HETATM   24  O9  MIQ B 502       9.135   7.679  15.892  1.00148.65    -0.388 OA
HETATM   25  C10 MIQ B 502       9.366   6.989  14.699  1.00147.44     0.187 C 
HETATM   26  C11 MIQ B 502      10.079   7.714  13.563  1.00144.08     0.149 C 
ENDBRANCH   5  21
TORSDOF 2
ENDMDL
MODEL 9
REMARK VINA RESULT:      -6.6      4.576      6.814
REMARK  2 active torsions:
REMARK  status: ('A' for Active; 'I' for Inactive)
REMARK    1  A    between atoms: C5_5  and  N6_21 
REMARK    2  A    between atoms: C18_14  and  N17_19 
ROOT
HETATM    1  O1  MIQ B 502       9.573  15.797  10.993  1.00142.91    -0.171 OA
HETATM    2  C2  MIQ B 502      10.009  15.736   9.667  1.00141.17     0.195 A 
HETATM    3  C3  MIQ B 502      10.616  14.487   8.953  1.00141.71     0.035 A 
HETATM    4  C4  MIQ B 502      10.899  13.099   9.391  1.00142.86     0.046 A 
HETATM    5  C5  MIQ B 502      11.468  12.165   8.490  1.00139.53     0.031 A 
HETATM    6  C12 MIQ B 502      11.775  12.571   7.126  1.00139.38     0.030 A 
HETATM    7  C13 MIQ B 502      11.503  13.901   6.705  1.00141.18     0.019 A 
HETATM    8  C14 MIQ B 502      10.903  14.877   7.655  1.00138.77     0.033 A 
HETATM    9  C15 MIQ B 502      10.471  16.377   7.563  1.00142.10     0.195 A 
HETATM   10  N17 MIQ B 502       9.997  16.694   8.757  1.00139.42    -0.288 N 
HETATM   11  O16 MIQ B 502      10.571  17.208   6.446  1.00148.93    -0.171 OA
ENDROOT
BRANCH  10  12
HETATM   12  C18 MIQ B 502       9.512  18.030   9.048  1.00139.82     0.187 C 
HETATM   13  C19 MIQ B 502      10.251  18.535  10.293  1.00140.06     0.247 C 
HETATM   14  O25 MIQ B 502      11.429  18.478  10.326  1.00143.95    -0.271 OA
HETATM   15  N20 MIQ B 502       9.544  19.088  11.430  1.00140.02    -0.296 N 
HETATM   16  H13 MIQ B 502      10.039  19.408  12.239  1.00142.77     0.171 HD
HETATM   17  C21 MIQ B 502       8.106  19.138  11.371  1.00142.22     0.224 C 
HETATM   18  C22 MIQ B 502       7.416  18.016  10.619  1.00139.52     0.106 C 
HETATM   19  O24 MIQ B 502       7.497  20.013  11.879  1.00146.13    -0.273 OA
HETATM   20  C23 MIQ B 502       7.993  18.019   9.215  1.00139.15     0.045 C 
ENDBRANCH  10  12
BRANCH   5  21
HETATM   21  N6  MIQ B 502      11.754  10.814   8.937  1.00140.95    -0.377 N 
HETATM   22  C7  MIQ B 502      13.128  10.345   8.896  1.00142.12     0.149 C 
HETATM   23  C8  MIQ B 502      13.209   8.830   8.756  1.00144.10     0.187 C 
HETATM   24  O9  MIQ B 502      12.374   8.156   9.651  1.00148.65    -0.388 OA
HETATM   25  C10 MIQ B 502      11.425   8.858  10.398  1.00147.44     0.187 C 
HETATM   26  C11 MIQ B 502      10.813  10.120   9.799  1.00144.08     0.149 C 
ENDBRANCH   5  21
TORSDOF 2
ENDMDL
