MODEL 1
REMARK VINA RESULT:      -6.9      0.000      0.000
REMARK  2 active torsions:
REMARK  status: ('A' for Active; 'I' for Inactive)
REMARK    1  A    between atoms: C5_5  and  N6_21 
REMARK    2  A    between atoms: C18_14  and  N17_19 
ROOT
HETATM    1  O1  MIQ B 502      -3.645  -0.532 -18.052  1.00142.91    -0.171 OA
HETATM    2  C2  MIQ B 502      -4.885  -1.087 -17.727  1.00141.17     0.195 A 
HETATM    3  C3  MIQ B 502      -5.555  -2.317 -18.420  1.00141.71     0.035 A 
HETATM    4  C4  MIQ B 502      -5.144  -3.210 -19.529  1.00142.86     0.046 A 
HETATM    5  C5  MIQ B 502      -5.988  -4.270 -19.945  1.00139.53     0.031 A 
HETATM    6  C12 MIQ B 502      -7.264  -4.483 -19.278  1.00139.38     0.030 A 
HETATM    7  C13 MIQ B 502      -7.658  -3.627 -18.213  1.00141.18     0.019 A 
HETATM    8  C14 MIQ B 502      -6.767  -2.517 -17.779  1.00138.77     0.033 A 
HETATM    9  C15 MIQ B 502      -6.849  -1.406 -16.682  1.00142.10     0.195 A 
HETATM   10  N17 MIQ B 502      -5.732  -0.706 -16.786  1.00139.42    -0.288 N 
HETATM   11  O16 MIQ B 502      -7.894  -1.198 -15.780  1.00148.93    -0.171 OA
ENDROOT
BRANCH  10  12
HETATM   12  C18 MIQ B 502      -5.467   0.431 -15.925  1.00139.82     0.187 C 
HETATM   13  C19 MIQ B 502      -5.210   1.648 -16.822  1.00140.06     0.247 C 
HETATM   14  O25 MIQ B 502      -5.985   1.911 -17.672  1.00143.95    -0.271 OA
HETATM   15  N20 MIQ B 502      -4.044   2.490 -16.652  1.00140.02    -0.296 N 
HETATM   16  H13 MIQ B 502      -3.885   3.278 -17.248  1.00142.77     0.171 HD
HETATM   17  C21 MIQ B 502      -3.108   2.144 -15.614  1.00142.22     0.224 C 
HETATM   18  C22 MIQ B 502      -2.930   0.666 -15.323  1.00139.52     0.106 C 
HETATM   19  O24 MIQ B 502      -2.513   2.972 -15.016  1.00146.13    -0.273 OA
HETATM   20  C23 MIQ B 502      -4.306   0.125 -14.981  1.00139.15     0.045 C 
ENDBRANCH  10  12
BRANCH   5  21
HETATM   21  N6  MIQ B 502      -5.580  -5.128 -21.043  1.00140.95    -0.377 N 
HETATM   22  C7  MIQ B 502      -4.163  -5.385 -21.234  1.00142.12     0.149 C 
HETATM   23  C8  MIQ B 502      -3.835  -5.711 -22.685  1.00144.10     0.187 C 
HETATM   24  O9  MIQ B 502      -4.694  -6.665 -23.236  1.00148.65    -0.388 OA
HETATM   25  C10 MIQ B 502      -5.847  -7.057 -22.551  1.00147.44     0.187 C 
HETATM   26  C11 MIQ B 502      -6.535  -6.045 -21.641  1.00144.08     0.149 C 
ENDBRANCH   5  21
TORSDOF 2
ENDMDL
MODEL 2
REMARK VINA RESULT:      -6.8      3.005      3.844
REMARK  2 active torsions:
REMARK  status: ('A' for Active; 'I' for Inactive)
REMARK    1  A    between atoms: C5_5  and  N6_21 
REMARK    2  A    between atoms: C18_14  and  N17_19 
ROOT
HETATM    1  O1  MIQ B 502      -4.382  -0.143 -19.720  1.00142.91    -0.171 OA
HETATM    2  C2  MIQ B 502      -5.048  -0.037 -18.497  1.00141.17     0.195 A 
HETATM    3  C3  MIQ B 502      -6.225  -0.938 -18.007  1.00141.71     0.035 A 
HETATM    4  C4  MIQ B 502      -6.949  -2.085 -18.606  1.00142.86     0.046 A 
HETATM    5  C5  MIQ B 502      -8.002  -2.717 -17.898  1.00139.53     0.031 A 
HETATM    6  C12 MIQ B 502      -8.373  -2.237 -16.575  1.00139.38     0.030 A 
HETATM    7  C13 MIQ B 502      -7.679  -1.138 -16.000  1.00141.18     0.019 A 
HETATM    8  C14 MIQ B 502      -6.573  -0.480 -16.747  1.00138.77     0.033 A 
HETATM    9  C15 MIQ B 502      -5.605   0.713 -16.453  1.00142.10     0.195 A 
HETATM   10  N17 MIQ B 502      -4.828   0.823 -17.517  1.00139.42    -0.288 N 
HETATM   11  O16 MIQ B 502      -5.575   1.500 -15.300  1.00148.93    -0.171 OA
ENDROOT
BRANCH  10  12
HETATM   12  C18 MIQ B 502      -3.805   1.848 -17.605  1.00139.82     0.187 C 
HETATM   13  C19 MIQ B 502      -4.029   2.621 -18.911  1.00140.06     0.247 C 
HETATM   14  O25 MIQ B 502      -5.102   3.048 -19.151  1.00143.95    -0.271 OA
HETATM   15  N20 MIQ B 502      -2.956   2.848 -19.858  1.00140.02    -0.296 N 
HETATM   16  H13 MIQ B 502      -3.117   3.349 -20.709  1.00142.77     0.171 HD
HETATM   17  C21 MIQ B 502      -1.657   2.309 -19.547  1.00142.22     0.224 C 
HETATM   18  C22 MIQ B 502      -1.629   0.997 -18.787  1.00139.52     0.106 C 
HETATM   19  O24 MIQ B 502      -0.665   2.865 -19.866  1.00146.13    -0.273 OA
HETATM   20  C23 MIQ B 502      -2.415   1.223 -17.508  1.00139.15     0.045 C 
ENDBRANCH  10  12
BRANCH   5  21
HETATM   21  N6  MIQ B 502      -8.712  -3.829 -18.503  1.00140.95    -0.377 N 
HETATM   22  C7  MIQ B 502      -9.814  -3.542 -19.404  1.00142.12     0.149 C 
HETATM   23  C8  MIQ B 502     -10.828  -4.678 -19.442  1.00144.10     0.187 C 
HETATM   24  O9  MIQ B 502     -10.234  -5.931 -19.607  1.00148.65    -0.388 OA
HETATM   25  C10 MIQ B 502      -8.849  -6.077 -19.502  1.00147.44     0.187 C 
HETATM   26  C11 MIQ B 502      -8.085  -5.138 -18.574  1.00144.08     0.149 C 
ENDBRANCH   5  21
TORSDOF 2
ENDMDL
MODEL 3
REMARK VINA RESULT:      -6.7      3.388      8.212
REMARK  2 active torsions:
REMARK  status: ('A' for Active; 'I' for Inactive)
REMARK    1  A    between atoms: C5_5  and  N6_21 
REMARK    2  A    between atoms: C18_14  and  N17_19 
ROOT
HETATM    1  O1  MIQ B 502      -6.788  -2.972 -21.404  1.00142.91    -0.171 OA
HETATM    2  C2  MIQ B 502      -7.562  -3.059 -20.245  1.00141.17     0.195 A 
HETATM    3  C3  MIQ B 502      -7.311  -2.291 -18.909  1.00141.71     0.035 A 
HETATM    4  C4  MIQ B 502      -6.284  -1.316 -18.471  1.00142.86     0.046 A 
HETATM    5  C5  MIQ B 502      -6.321  -0.776 -17.160  1.00139.53     0.031 A 
HETATM    6  C12 MIQ B 502      -7.374  -1.182 -16.241  1.00139.38     0.030 A 
HETATM    7  C13 MIQ B 502      -8.360  -2.115 -16.661  1.00141.18     0.019 A 
HETATM    8  C14 MIQ B 502      -8.317  -2.677 -18.038  1.00138.77     0.033 A 
HETATM    9  C15 MIQ B 502      -9.198  -3.691 -18.839  1.00142.10     0.195 A 
HETATM   10  N17 MIQ B 502      -8.645  -3.787 -20.038  1.00139.42    -0.288 N 
HETATM   11  O16 MIQ B 502     -10.334  -4.358 -18.378  1.00148.93    -0.171 OA
ENDROOT
BRANCH  10  12
HETATM   12  C18 MIQ B 502      -9.194  -4.663 -21.056  1.00139.82     0.187 C 
HETATM   13  C19 MIQ B 502     -10.676  -4.311 -21.228  1.00140.06     0.247 C 
HETATM   14  O25 MIQ B 502     -10.984  -3.186 -21.402  1.00143.95    -0.271 OA
HETATM   15  N20 MIQ B 502     -11.712  -5.323 -21.187  1.00140.02    -0.296 N 
HETATM   16  H13 MIQ B 502     -12.677  -5.079 -21.293  1.00142.77     0.171 HD
HETATM   17  C21 MIQ B 502     -11.312  -6.688 -20.962  1.00142.22     0.224 C 
HETATM   18  C22 MIQ B 502     -10.109  -6.907 -20.063  1.00139.52     0.106 C 
HETATM   19  O24 MIQ B 502     -11.890  -7.592 -21.458  1.00146.13    -0.273 OA
HETATM   20  C23 MIQ B 502      -8.963  -6.126 -20.680  1.00139.15     0.045 C 
ENDBRANCH  10  12
BRANCH   5  21
HETATM   21  N6  MIQ B 502      -5.300   0.167 -16.740  1.00140.95    -0.377 N 
HETATM   22  C7  MIQ B 502      -4.030   0.175 -17.446  1.00142.12     0.149 C 
HETATM   23  C8  MIQ B 502      -2.894   0.682 -16.566  1.00144.10     0.187 C 
HETATM   24  O9  MIQ B 502      -3.212   1.865 -15.895  1.00148.65    -0.388 OA
HETATM   25  C10 MIQ B 502      -4.524   2.345 -15.891  1.00147.44     0.187 C 
HETATM   26  C11 MIQ B 502      -5.669   1.340 -15.969  1.00144.08     0.149 C 
ENDBRANCH   5  21
TORSDOF 2
ENDMDL
MODEL 4
REMARK VINA RESULT:      -6.6     19.745     21.861
REMARK  2 active torsions:
REMARK  status: ('A' for Active; 'I' for Inactive)
REMARK    1  A    between atoms: C5_5  and  N6_21 
REMARK    2  A    between atoms: C18_14  and  N17_19 
ROOT
HETATM    1  O1  MIQ B 502      -6.592  15.372 -10.053  1.00142.91    -0.171 OA
HETATM    2  C2  MIQ B 502      -6.983  16.553  -9.419  1.00141.17     0.195 A 
HETATM    3  C3  MIQ B 502      -8.159  16.709  -8.403  1.00141.71     0.035 A 
HETATM    4  C4  MIQ B 502      -9.143  15.760  -7.830  1.00142.86     0.046 A 
HETATM    5  C5  MIQ B 502     -10.117  16.210  -6.904  1.00139.53     0.031 A 
HETATM    6  C12 MIQ B 502     -10.149  17.612  -6.512  1.00139.38     0.030 A 
HETATM    7  C13 MIQ B 502      -9.204  18.522  -7.060  1.00141.18     0.019 A 
HETATM    8  C14 MIQ B 502      -8.183  18.043  -8.031  1.00138.77     0.033 A 
HETATM    9  C15 MIQ B 502      -7.015  18.720  -8.820  1.00142.10     0.195 A 
HETATM   10  N17 MIQ B 502      -6.453  17.759  -9.536  1.00139.42    -0.288 N 
HETATM   11  O16 MIQ B 502      -6.646  20.065  -8.777  1.00148.93    -0.171 OA
ENDROOT
BRANCH  10  12
HETATM   12  C18 MIQ B 502      -5.331  18.027 -10.415  1.00139.82     0.187 C 
HETATM   13  C19 MIQ B 502      -5.705  17.531 -11.817  1.00140.06     0.247 C 
HETATM   14  O25 MIQ B 502      -6.729  17.871 -12.294  1.00143.95    -0.271 OA
HETATM   15  N20 MIQ B 502      -4.833  16.658 -12.576  1.00140.02    -0.296 N 
HETATM   16  H13 MIQ B 502      -5.093  16.336 -13.488  1.00142.77     0.171 HD
HETATM   17  C21 MIQ B 502      -3.594  16.248 -11.969  1.00142.22     0.224 C 
HETATM   18  C22 MIQ B 502      -3.602  16.061 -10.464  1.00139.52     0.106 C 
HETATM   19  O24 MIQ B 502      -2.618  16.073 -12.613  1.00146.13    -0.273 OA
HETATM   20  C23 MIQ B 502      -4.060  17.380  -9.868  1.00139.15     0.045 C 
ENDBRANCH  10  12
BRANCH   5  21
HETATM   21  N6  MIQ B 502     -11.085  15.273  -6.362  1.00140.95    -0.377 N 
HETATM   22  C7  MIQ B 502     -10.770  14.590  -5.120  1.00142.12     0.149 C 
HETATM   23  C8  MIQ B 502     -11.484  13.249  -5.011  1.00144.10     0.187 C 
HETATM   24  O9  MIQ B 502     -12.844  13.331  -5.319  1.00148.65    -0.388 OA
HETATM   25  C10 MIQ B 502     -13.372  14.494  -5.885  1.00147.44     0.187 C 
HETATM   26  C11 MIQ B 502     -12.474  15.343  -6.779  1.00144.08     0.149 C 
ENDBRANCH   5  21
TORSDOF 2
ENDMDL
MODEL 5
REMARK VINA RESULT:      -6.6      2.184      3.674
REMARK  2 active torsions:
REMARK  status: ('A' for Active; 'I' for Inactive)
REMARK    1  A    between atoms: C5_5  and  N6_21 
REMARK    2  A    between atoms: C18_14  and  N17_19 
ROOT
HETATM    1  O1  MIQ B 502      -6.262   0.951 -17.439  1.00142.91    -0.171 OA
HETATM    2  C2  MIQ B 502      -5.154   0.345 -18.035  1.00141.17     0.195 A 
HETATM    3  C3  MIQ B 502      -5.120  -1.069 -18.698  1.00141.71     0.035 A 
HETATM    4  C4  MIQ B 502      -6.141  -2.125 -18.898  1.00142.86     0.046 A 
HETATM    5  C5  MIQ B 502      -5.802  -3.335 -19.555  1.00139.53     0.031 A 
HETATM    6  C12 MIQ B 502      -4.443  -3.539 -20.035  1.00139.38     0.030 A 
HETATM    7  C13 MIQ B 502      -3.465  -2.527 -19.845  1.00141.18     0.019 A 
HETATM    8  C14 MIQ B 502      -3.827  -1.258 -19.157  1.00138.77     0.033 A 
HETATM    9  C15 MIQ B 502      -3.053   0.047 -18.777  1.00142.10     0.195 A 
HETATM   10  N17 MIQ B 502      -3.930   0.827 -18.168  1.00139.42    -0.288 N 
HETATM   11  O16 MIQ B 502      -1.709   0.324 -19.030  1.00148.93    -0.171 OA
ENDROOT
BRANCH  10  12
HETATM   12  C18 MIQ B 502      -3.555   2.132 -17.656  1.00139.82     0.187 C 
HETATM   13  C19 MIQ B 502      -4.041   2.223 -16.204  1.00140.06     0.247 C 
HETATM   14  O25 MIQ B 502      -3.766   1.358 -15.450  1.00143.95    -0.271 OA
HETATM   15  N20 MIQ B 502      -4.825   3.345 -15.730  1.00140.02    -0.296 N 
HETATM   16  H13 MIQ B 502      -5.141   3.389 -14.781  1.00142.77     0.171 HD
HETATM   17  C21 MIQ B 502      -5.156   4.382 -16.672  1.00142.22     0.224 C 
HETATM   18  C22 MIQ B 502      -5.384   3.951 -18.108  1.00139.52     0.106 C 
HETATM   19  O24 MIQ B 502      -5.241   5.514 -16.341  1.00146.13    -0.273 OA
HETATM   20  C23 MIQ B 502      -4.119   3.236 -18.549  1.00139.15     0.045 C 
ENDBRANCH  10  12
BRANCH   5  21
HETATM   21  N6  MIQ B 502      -6.808  -4.366 -19.730  1.00140.95    -0.377 N 
HETATM   22  C7  MIQ B 502      -7.882  -4.461 -18.757  1.00142.12     0.149 C 
HETATM   23  C8  MIQ B 502      -8.444  -5.875 -18.667  1.00144.10     0.187 C 
HETATM   24  O9  MIQ B 502      -8.720  -6.431 -19.917  1.00148.65    -0.388 OA
HETATM   25  C10 MIQ B 502      -8.285  -5.799 -21.085  1.00147.44     0.187 C 
HETATM   26  C11 MIQ B 502      -7.001  -4.977 -21.034  1.00144.08     0.149 C 
ENDBRANCH   5  21
TORSDOF 2
ENDMDL
MODEL 6
REMARK VINA RESULT:      -6.5      2.114      7.908
REMARK  2 active torsions:
REMARK  status: ('A' for Active; 'I' for Inactive)
REMARK    1  A    between atoms: C5_5  and  N6_21 
REMARK    2  A    between atoms: C18_14  and  N17_19 
ROOT
HETATM    1  O1  MIQ B 502      -5.696  -3.265 -20.913  1.00142.91    -0.171 OA
HETATM    2  C2  MIQ B 502      -6.647  -3.168 -19.895  1.00141.17     0.195 A 
HETATM    3  C3  MIQ B 502      -6.585  -2.209 -18.664  1.00141.71     0.035 A 
HETATM    4  C4  MIQ B 502      -5.607  -1.190 -18.214  1.00142.86     0.046 A 
HETATM    5  C5  MIQ B 502      -5.833  -0.457 -17.021  1.00139.53     0.031 A 
HETATM    6  C12 MIQ B 502      -7.032  -0.708 -16.235  1.00139.38     0.030 A 
HETATM    7  C13 MIQ B 502      -7.971  -1.684 -16.667  1.00141.18     0.019 A 
HETATM    8  C14 MIQ B 502      -7.730  -2.448 -17.921  1.00138.77     0.033 A 
HETATM    9  C15 MIQ B 502      -8.507  -3.562 -18.696  1.00142.10     0.195 A 
HETATM   10  N17 MIQ B 502      -7.775  -3.844 -19.761  1.00139.42    -0.288 N 
HETATM   11  O16 MIQ B 502      -9.724  -4.140 -18.331  1.00148.93    -0.171 OA
ENDROOT
BRANCH  10  12
HETATM   12  C18 MIQ B 502      -8.184  -4.859 -20.714  1.00139.82     0.187 C 
HETATM   13  C19 MIQ B 502      -7.017  -5.839 -20.885  1.00140.06     0.247 C 
HETATM   14  O25 MIQ B 502      -6.517  -6.311 -19.927  1.00143.95    -0.271 OA
HETATM   15  N20 MIQ B 502      -6.514  -6.206 -22.193  1.00140.02    -0.296 N 
HETATM   16  H13 MIQ B 502      -5.747  -6.842 -22.291  1.00142.77     0.171 HD
HETATM   17  C21 MIQ B 502      -7.134  -5.607 -23.347  1.00142.22     0.224 C 
HETATM   18  C22 MIQ B 502      -7.644  -4.188 -23.187  1.00139.52     0.106 C 
HETATM   19  O24 MIQ B 502      -7.243  -6.197 -24.365  1.00146.13    -0.273 OA
HETATM   20  C23 MIQ B 502      -8.621  -4.209 -22.027  1.00139.15     0.045 C 
ENDBRANCH  10  12
BRANCH   5  21
HETATM   21  N6  MIQ B 502      -4.859   0.527 -16.584  1.00140.95    -0.377 N 
HETATM   22  C7  MIQ B 502      -3.472   0.354 -16.979  1.00142.12     0.149 C 
HETATM   23  C8  MIQ B 502      -2.514   1.007 -15.990  1.00144.10     0.187 C 
HETATM   24  O9  MIQ B 502      -2.882   2.312 -15.659  1.00148.65    -0.388 OA
HETATM   25  C10 MIQ B 502      -4.128   2.815 -16.042  1.00147.44     0.187 C 
HETATM   26  C11 MIQ B 502      -5.299   1.846 -16.166  1.00144.08     0.149 C 
ENDBRANCH   5  21
TORSDOF 2
ENDMDL
MODEL 7
REMARK VINA RESULT:      -6.4      2.607      4.132
REMARK  2 active torsions:
REMARK  status: ('A' for Active; 'I' for Inactive)
REMARK    1  A    between atoms: C5_5  and  N6_21 
REMARK    2  A    between atoms: C18_14  and  N17_19 
ROOT
HETATM    1  O1  MIQ B 502      -4.903   0.559 -18.246  1.00142.91    -0.171 OA
HETATM    2  C2  MIQ B 502      -3.681   0.358 -18.891  1.00141.17     0.195 A 
HETATM    3  C3  MIQ B 502      -3.259  -0.914 -19.693  1.00141.71     0.035 A 
HETATM    4  C4  MIQ B 502      -3.939  -2.193 -20.007  1.00142.86     0.046 A 
HETATM    5  C5  MIQ B 502      -3.282  -3.184 -20.779  1.00139.53     0.031 A 
HETATM    6  C12 MIQ B 502      -1.932  -2.942 -21.267  1.00139.38     0.030 A 
HETATM    7  C13 MIQ B 502      -1.279  -1.716 -20.967  1.00141.18     0.019 A 
HETATM    8  C14 MIQ B 502      -1.975  -0.678 -20.157  1.00138.77     0.033 A 
HETATM    9  C15 MIQ B 502      -1.598   0.749 -19.642  1.00142.10     0.195 A 
HETATM   10  N17 MIQ B 502      -2.649   1.181 -18.964  1.00139.42    -0.288 N 
HETATM   11  O16 MIQ B 502      -0.395   1.423 -19.854  1.00148.93    -0.171 OA
ENDROOT
BRANCH  10  12
HETATM   12  C18 MIQ B 502      -2.651   2.482 -18.320  1.00139.82     0.187 C 
HETATM   13  C19 MIQ B 502      -2.952   2.266 -16.832  1.00140.06     0.247 C 
HETATM   14  O25 MIQ B 502      -2.320   1.476 -16.225  1.00143.95    -0.271 OA
HETATM   15  N20 MIQ B 502      -3.988   3.011 -16.146  1.00140.02    -0.296 N 
HETATM   16  H13 MIQ B 502      -4.179   2.856 -15.176  1.00142.77     0.171 HD
HETATM   17  C21 MIQ B 502      -4.753   3.963 -16.911  1.00142.22     0.224 C 
HETATM   18  C22 MIQ B 502      -5.010   3.619 -18.365  1.00139.52     0.106 C 
HETATM   19  O24 MIQ B 502      -5.154   4.964 -16.427  1.00146.13    -0.273 OA
HETATM   20  C23 MIQ B 502      -3.650   3.413 -19.006  1.00139.15     0.045 C 
ENDBRANCH  10  12
BRANCH   5  21
HETATM   21  N6  MIQ B 502      -3.955  -4.437 -21.067  1.00140.95    -0.377 N 
HETATM   22  C7  MIQ B 502      -5.399  -4.500 -20.921  1.00142.12     0.149 C 
HETATM   23  C8  MIQ B 502      -5.880  -5.913 -20.615  1.00144.10     0.187 C 
HETATM   24  O9  MIQ B 502      -5.323  -6.871 -21.465  1.00148.65    -0.388 OA
HETATM   25  C10 MIQ B 502      -4.271  -6.534 -22.320  1.00147.44     0.187 C 
HETATM   26  C11 MIQ B 502      -3.300  -5.442 -21.886  1.00144.08     0.149 C 
ENDBRANCH   5  21
TORSDOF 2
ENDMDL
MODEL 8
REMARK VINA RESULT:      -6.4     19.844     21.554
REMARK  2 active torsions:
REMARK  status: ('A' for Active; 'I' for Inactive)
REMARK    1  A    between atoms: C5_5  and  N6_21 
REMARK    2  A    between atoms: C18_14  and  N17_19 
ROOT
HETATM    1  O1  MIQ B 502      -7.870  19.074 -11.367  1.00142.91    -0.171 OA
HETATM    2  C2  MIQ B 502      -7.183  17.969 -10.861  1.00141.17     0.195 A 
HETATM    3  C3  MIQ B 502      -7.683  17.008  -9.735  1.00141.71     0.035 A 
HETATM    4  C4  MIQ B 502      -8.920  16.952  -8.919  1.00142.86     0.046 A 
HETATM    5  C5  MIQ B 502      -9.092  15.932  -7.949  1.00139.53     0.031 A 
HETATM    6  C12 MIQ B 502      -8.048  14.936  -7.755  1.00139.38     0.030 A 
HETATM    7  C13 MIQ B 502      -6.864  14.989  -8.538  1.00141.18     0.019 A 
HETATM    8  C14 MIQ B 502      -6.689  16.060  -9.556  1.00138.77     0.033 A 
HETATM    9  C15 MIQ B 502      -5.565  16.434 -10.577  1.00142.10     0.195 A 
HETATM   10  N17 MIQ B 502      -5.997  17.507 -11.219  1.00139.42    -0.288 N 
HETATM   11  O16 MIQ B 502      -4.354  15.767 -10.767  1.00148.93    -0.171 OA
ENDROOT
BRANCH  10  12
HETATM   12  C18 MIQ B 502      -5.196  18.150 -12.243  1.00139.82     0.187 C 
HETATM   13  C19 MIQ B 502      -4.796  17.079 -13.266  1.00140.06     0.247 C 
HETATM   14  O25 MIQ B 502      -5.631  16.386 -13.729  1.00143.95    -0.271 OA
HETATM   15  N20 MIQ B 502      -3.422  16.897 -13.684  1.00140.02    -0.296 N 
HETATM   16  H13 MIQ B 502      -3.173  16.190 -14.347  1.00142.77     0.171 HD
HETATM   17  C21 MIQ B 502      -2.419  17.748 -13.096  1.00142.22     0.224 C 
HETATM   18  C22 MIQ B 502      -2.644  18.170 -11.656  1.00139.52     0.106 C 
HETATM   19  O24 MIQ B 502      -1.473  18.102 -13.708  1.00146.13    -0.273 OA
HETATM   20  C23 MIQ B 502      -3.996  18.858 -11.615  1.00139.15     0.045 C 
ENDBRANCH  10  12
BRANCH   5  21
HETATM   21  N6  MIQ B 502     -10.301  15.897  -7.147  1.00140.95    -0.377 N 
HETATM   22  C7  MIQ B 502     -11.564  16.241  -7.778  1.00142.12     0.149 C 
HETATM   23  C8  MIQ B 502     -12.573  16.783  -6.774  1.00144.10     0.187 C 
HETATM   24  O9  MIQ B 502     -12.674  15.995  -5.626  1.00148.65    -0.388 OA
HETATM   25  C10 MIQ B 502     -11.754  14.971  -5.387  1.00147.44     0.187 C 
HETATM   26  C11 MIQ B 502     -10.332  15.131  -5.913  1.00144.08     0.149 C 
ENDBRANCH   5  21
TORSDOF 2
ENDMDL
MODEL 9
REMARK VINA RESULT:      -6.3      3.740      7.675
REMARK  2 active torsions:
REMARK  status: ('A' for Active; 'I' for Inactive)
REMARK    1  A    between atoms: C5_5  and  N6_21 
REMARK    2  A    between atoms: C18_14  and  N17_19 
ROOT
HETATM    1  O1  MIQ B 502      -6.305  -0.936 -20.000  1.00142.91    -0.171 OA
HETATM    2  C2  MIQ B 502      -6.064  -0.123 -18.890  1.00141.17     0.195 A 
HETATM    3  C3  MIQ B 502      -5.642   1.380 -18.921  1.00141.71     0.035 A 
HETATM    4  C4  MIQ B 502      -5.386   2.344 -20.018  1.00142.86     0.046 A 
HETATM    5  C5  MIQ B 502      -5.008   3.678 -19.725  1.00139.53     0.031 A 
HETATM    6  C12 MIQ B 502      -4.871   4.104 -18.340  1.00139.38     0.030 A 
HETATM    7  C13 MIQ B 502      -5.118   3.180 -17.288  1.00141.18     0.019 A 
HETATM    8  C14 MIQ B 502      -5.517   1.781 -17.601  1.00138.77     0.033 A 
HETATM    9  C15 MIQ B 502      -5.864   0.519 -16.745  1.00142.10     0.195 A 
HETATM   10  N17 MIQ B 502      -6.146  -0.442 -17.609  1.00139.42    -0.288 N 
HETATM   11  O16 MIQ B 502      -5.872   0.431 -15.352  1.00148.93    -0.171 OA
ENDROOT
BRANCH  10  12
HETATM   12  C18 MIQ B 502      -6.502  -1.777 -17.167  1.00139.82     0.187 C 
HETATM   13  C19 MIQ B 502      -5.709  -2.778 -18.016  1.00140.06     0.247 C 
HETATM   14  O25 MIQ B 502      -4.542  -2.647 -18.121  1.00143.95    -0.271 OA
HETATM   15  N20 MIQ B 502      -6.353  -3.888 -18.689  1.00140.02    -0.296 N 
HETATM   16  H13 MIQ B 502      -5.825  -4.530 -19.246  1.00142.77     0.171 HD
HETATM   17  C21 MIQ B 502      -7.781  -4.021 -18.554  1.00142.22     0.224 C 
HETATM   18  C22 MIQ B 502      -8.578  -2.736 -18.443  1.00139.52     0.106 C 
HETATM   19  O24 MIQ B 502      -8.302  -5.082 -18.526  1.00146.13    -0.273 OA
HETATM   20  C23 MIQ B 502      -8.014  -1.980 -17.254  1.00139.15     0.045 C 
ENDBRANCH  10  12
BRANCH   5  21
HETATM   21  N6  MIQ B 502      -4.746   4.607 -20.809  1.00140.95    -0.377 N 
HETATM   22  C7  MIQ B 502      -5.506   4.472 -22.040  1.00142.12     0.149 C 
HETATM   23  C8  MIQ B 502      -4.744   5.014 -23.242  1.00144.10     0.187 C 
HETATM   24  O9  MIQ B 502      -4.198   6.278 -23.015  1.00148.65    -0.388 OA
HETATM   25  C10 MIQ B 502      -4.187   6.823 -21.728  1.00147.44     0.187 C 
HETATM   26  C11 MIQ B 502      -4.096   5.877 -20.536  1.00144.08     0.149 C 
ENDBRANCH   5  21
TORSDOF 2
ENDMDL
