MODEL 1
REMARK VINA RESULT:      -6.4      0.000      0.000
REMARK  2 active torsions:
REMARK  status: ('A' for Active; 'I' for Inactive)
REMARK    1  A    between atoms: C5_5  and  N6_21 
REMARK    2  A    between atoms: C18_14  and  N17_19 
ROOT
HETATM    1  O1  MIQ B 502      -9.758   7.842 -15.118  1.00142.91    -0.171 OA
HETATM    2  C2  MIQ B 502      -8.550   7.769 -15.816  1.00141.17     0.195 A 
HETATM    3  C3  MIQ B 502      -8.225   8.473 -17.172  1.00141.71     0.035 A 
HETATM    4  C4  MIQ B 502      -9.002   9.358 -18.072  1.00142.86     0.046 A 
HETATM    5  C5  MIQ B 502      -8.419   9.855 -19.266  1.00139.53     0.031 A 
HETATM    6  C12 MIQ B 502      -7.051   9.492 -19.608  1.00139.38     0.030 A 
HETATM    7  C13 MIQ B 502      -6.306   8.645 -18.744  1.00141.18     0.019 A 
HETATM    8  C14 MIQ B 502      -6.922   8.128 -17.491  1.00138.77     0.033 A 
HETATM    9  C15 MIQ B 502      -6.435   7.206 -16.326  1.00142.10     0.195 A 
HETATM   10  N17 MIQ B 502      -7.452   7.112 -15.485  1.00139.42    -0.288 N 
HETATM   11  O16 MIQ B 502      -5.181   6.605 -16.205  1.00148.93    -0.171 OA
ENDROOT
BRANCH  10  12
HETATM   12  C18 MIQ B 502      -7.365   6.312 -14.278  1.00139.82     0.187 C 
HETATM   13  C19 MIQ B 502      -8.536   5.322 -14.288  1.00140.06     0.247 C 
HETATM   14  O25 MIQ B 502      -8.721   4.657 -15.245  1.00143.95    -0.271 OA
HETATM   15  N20 MIQ B 502      -9.422   5.175 -13.151  1.00140.02    -0.296 N 
HETATM   16  H13 MIQ B 502     -10.187   4.530 -13.172  1.00142.77     0.171 HD
HETATM   17  C21 MIQ B 502      -9.183   6.005 -11.998  1.00142.22     0.224 C 
HETATM   18  C22 MIQ B 502      -8.636   7.395 -12.262  1.00139.52     0.106 C 
HETATM   19  O24 MIQ B 502      -9.398   5.618 -10.903  1.00146.13    -0.273 OA
HETATM   20  C23 MIQ B 502      -7.348   7.212 -13.043  1.00139.15     0.045 C 
ENDBRANCH  10  12
BRANCH   5  21
HETATM   21  N6  MIQ B 502      -9.196  10.709 -20.146  1.00140.95    -0.377 N 
HETATM   22  C7  MIQ B 502     -10.405  11.324 -19.627  1.00142.12     0.149 C 
HETATM   23  C8  MIQ B 502     -11.412  11.620 -20.731  1.00144.10     0.187 C 
HETATM   24  O9  MIQ B 502     -10.839  12.264 -21.830  1.00148.65    -0.388 OA
HETATM   25  C10 MIQ B 502      -9.451  12.378 -21.939  1.00147.44     0.187 C 
HETATM   26  C11 MIQ B 502      -8.579  11.287 -21.327  1.00144.08     0.149 C 
ENDBRANCH   5  21
TORSDOF 2
ENDMDL
MODEL 2
REMARK VINA RESULT:      -6.3      1.737      2.988
REMARK  2 active torsions:
REMARK  status: ('A' for Active; 'I' for Inactive)
REMARK    1  A    between atoms: C5_5  and  N6_21 
REMARK    2  A    between atoms: C18_14  and  N17_19 
ROOT
HETATM    1  O1  MIQ B 502      -5.204   6.782 -16.442  1.00142.91    -0.171 OA
HETATM    2  C2  MIQ B 502      -6.495   7.304 -16.547  1.00141.17     0.195 A 
HETATM    3  C3  MIQ B 502      -7.030   8.215 -17.697  1.00141.71     0.035 A 
HETATM    4  C4  MIQ B 502      -6.417   8.767 -18.929  1.00142.86     0.046 A 
HETATM    5  C5  MIQ B 502      -7.178   9.584 -19.804  1.00139.53     0.031 A 
HETATM    6  C12 MIQ B 502      -8.568   9.880 -19.490  1.00139.38     0.030 A 
HETATM    7  C13 MIQ B 502      -9.156   9.350 -18.310  1.00141.18     0.019 A 
HETATM    8  C14 MIQ B 502      -8.354   8.491 -17.396  1.00138.77     0.033 A 
HETATM    9  C15 MIQ B 502      -8.642   7.747 -16.052  1.00142.10     0.195 A 
HETATM   10  N17 MIQ B 502      -7.514   7.140 -15.721  1.00139.42    -0.288 N 
HETATM   11  O16 MIQ B 502      -9.846   7.732 -15.346  1.00148.93    -0.171 OA
ENDROOT
BRANCH  10  12
HETATM   12  C18 MIQ B 502      -7.404   6.355 -14.506  1.00139.82     0.187 C 
HETATM   13  C19 MIQ B 502      -8.540   5.325 -14.509  1.00140.06     0.247 C 
HETATM   14  O25 MIQ B 502      -8.698   4.645 -15.460  1.00143.95    -0.271 OA
HETATM   15  N20 MIQ B 502      -9.425   5.160 -13.374  1.00140.02    -0.296 N 
HETATM   16  H13 MIQ B 502     -10.167   4.489 -13.391  1.00142.77     0.171 HD
HETATM   17  C21 MIQ B 502      -9.219   6.010 -12.229  1.00142.22     0.224 C 
HETATM   18  C22 MIQ B 502      -8.720   7.415 -12.505  1.00139.52     0.106 C 
HETATM   19  O24 MIQ B 502      -9.425   5.627 -11.130  1.00146.13    -0.273 OA
HETATM   20  C23 MIQ B 502      -7.423   7.268 -13.281  1.00139.15     0.045 C 
ENDBRANCH  10  12
BRANCH   5  21
HETATM   21  N6  MIQ B 502      -6.560  10.130 -20.998  1.00140.95    -0.377 N 
HETATM   22  C7  MIQ B 502      -5.168   9.815 -21.267  1.00142.12     0.149 C 
HETATM   23  C8  MIQ B 502      -4.492  10.893 -22.105  1.00144.10     0.187 C 
HETATM   24  O9  MIQ B 502      -5.245  11.268 -23.219  1.00148.65    -0.388 OA
HETATM   25  C10 MIQ B 502      -6.566  10.834 -23.359  1.00147.44     0.187 C 
HETATM   26  C11 MIQ B 502      -7.390  10.588 -22.099  1.00144.08     0.149 C 
ENDBRANCH   5  21
TORSDOF 2
ENDMDL
MODEL 3
REMARK VINA RESULT:      -6.2      4.419      6.757
REMARK  2 active torsions:
REMARK  status: ('A' for Active; 'I' for Inactive)
REMARK    1  A    between atoms: C5_5  and  N6_21 
REMARK    2  A    between atoms: C18_14  and  N17_19 
ROOT
HETATM    1  O1  MIQ B 502     -10.488   5.243 -13.040  1.00142.91    -0.171 OA
HETATM    2  C2  MIQ B 502     -10.340   6.346 -13.884  1.00141.17     0.195 A 
HETATM    3  C3  MIQ B 502     -11.319   7.558 -13.999  1.00141.71     0.035 A 
HETATM    4  C4  MIQ B 502     -12.591   7.907 -13.324  1.00142.86     0.046 A 
HETATM    5  C5  MIQ B 502     -13.267   9.111 -13.648  1.00139.53     0.031 A 
HETATM    6  C12 MIQ B 502     -12.707  10.007 -14.650  1.00139.38     0.030 A 
HETATM    7  C13 MIQ B 502     -11.487   9.672 -15.296  1.00141.18     0.019 A 
HETATM    8  C14 MIQ B 502     -10.780   8.409 -14.950  1.00138.77     0.033 A 
HETATM    9  C15 MIQ B 502      -9.459   7.722 -15.428  1.00142.10     0.195 A 
HETATM   10  N17 MIQ B 502      -9.363   6.597 -14.740  1.00139.42    -0.288 N 
HETATM   11  O16 MIQ B 502      -8.567   8.203 -16.388  1.00148.93    -0.171 OA
ENDROOT
BRANCH  10  12
HETATM   12  C18 MIQ B 502      -8.254   5.681 -14.935  1.00139.82     0.187 C 
HETATM   13  C19 MIQ B 502      -6.957   6.456 -14.673  1.00140.06     0.247 C 
HETATM   14  O25 MIQ B 502      -6.847   7.074 -13.675  1.00143.95    -0.271 OA
HETATM   15  N20 MIQ B 502      -5.858   6.446 -15.616  1.00140.02    -0.296 N 
HETATM   16  H13 MIQ B 502      -5.019   6.961 -15.437  1.00142.77     0.171 HD
HETATM   17  C21 MIQ B 502      -6.020   5.692 -16.833  1.00142.22     0.224 C 
HETATM   18  C22 MIQ B 502      -7.419   5.633 -17.416  1.00139.52     0.106 C 
HETATM   19  O24 MIQ B 502      -5.108   5.144 -17.346  1.00146.13    -0.273 OA
HETATM   20  C23 MIQ B 502      -8.314   5.064 -16.331  1.00139.15     0.045 C 
ENDBRANCH  10  12
BRANCH   5  21
HETATM   21  N6  MIQ B 502     -14.520   9.433 -12.990  1.00140.95    -0.377 N 
HETATM   22  C7  MIQ B 502     -15.426  10.365 -13.640  1.00142.12     0.149 C 
HETATM   23  C8  MIQ B 502     -16.314  11.089 -12.635  1.00144.10     0.187 C 
HETATM   24  O9  MIQ B 502     -16.906  10.225 -11.712  1.00148.65    -0.388 OA
HETATM   25  C10 MIQ B 502     -16.500   8.891 -11.629  1.00147.44     0.187 C 
HETATM   26  C11 MIQ B 502     -15.055   8.546 -11.972  1.00144.08     0.149 C 
ENDBRANCH   5  21
TORSDOF 2
ENDMDL
MODEL 4
REMARK VINA RESULT:      -5.8      4.632      6.878
REMARK  2 active torsions:
REMARK  status: ('A' for Active; 'I' for Inactive)
REMARK    1  A    between atoms: C5_5  and  N6_21 
REMARK    2  A    between atoms: C18_14  and  N17_19 
ROOT
HETATM    1  O1  MIQ B 502      -9.455   7.872 -14.672  1.00142.91    -0.171 OA
HETATM    2  C2  MIQ B 502     -10.441   6.905 -14.467  1.00141.17     0.195 A 
HETATM    3  C3  MIQ B 502     -11.938   7.175 -14.111  1.00141.71     0.035 A 
HETATM    4  C4  MIQ B 502     -12.727   8.411 -13.897  1.00142.86     0.046 A 
HETATM    5  C5  MIQ B 502     -14.107   8.334 -13.577  1.00139.53     0.031 A 
HETATM    6  C12 MIQ B 502     -14.750   7.033 -13.460  1.00139.38     0.030 A 
HETATM    7  C13 MIQ B 502     -13.993   5.848 -13.666  1.00141.18     0.019 A 
HETATM    8  C14 MIQ B 502     -12.546   5.935 -14.003  1.00138.77     0.033 A 
HETATM    9  C15 MIQ B 502     -11.421   4.889 -14.296  1.00142.10     0.195 A 
HETATM   10  N17 MIQ B 502     -10.325   5.590 -14.535  1.00139.42    -0.288 N 
HETATM   11  O16 MIQ B 502     -11.552   3.499 -14.300  1.00148.93    -0.171 OA
ENDROOT
BRANCH  10  12
HETATM   12  C18 MIQ B 502      -9.062   4.941 -14.833  1.00139.82     0.187 C 
HETATM   13  C19 MIQ B 502      -8.000   5.533 -13.898  1.00140.06     0.247 C 
HETATM   14  O25 MIQ B 502      -8.212   5.572 -12.738  1.00143.95    -0.271 OA
HETATM   15  N20 MIQ B 502      -6.739   6.040 -14.398  1.00140.02    -0.296 N 
HETATM   16  H13 MIQ B 502      -6.057   6.430 -13.778  1.00142.77     0.171 HD
HETATM   17  C21 MIQ B 502      -6.508   5.990 -15.819  1.00142.22     0.224 C 
HETATM   18  C22 MIQ B 502      -7.719   6.174 -16.713  1.00139.52     0.106 C 
HETATM   19  O24 MIQ B 502      -5.428   5.810 -16.263  1.00146.13    -0.273 OA
HETATM   20  C23 MIQ B 502      -8.717   5.102 -16.312  1.00139.15     0.045 C 
ENDBRANCH  10  12
BRANCH   5  21
HETATM   21  N6  MIQ B 502     -14.864   9.552 -13.356  1.00140.95    -0.377 N 
HETATM   22  C7  MIQ B 502     -15.134  10.419 -14.491  1.00142.12     0.149 C 
HETATM   23  C8  MIQ B 502     -15.326  11.869 -14.066  1.00144.10     0.187 C 
HETATM   24  O9  MIQ B 502     -16.203  12.007 -12.988  1.00148.65    -0.388 OA
HETATM   25  C10 MIQ B 502     -16.633  10.884 -12.276  1.00147.44     0.187 C 
HETATM   26  C11 MIQ B 502     -15.697   9.684 -12.173  1.00144.08     0.149 C 
ENDBRANCH   5  21
TORSDOF 2
ENDMDL
MODEL 5
REMARK VINA RESULT:      -5.8      3.980      5.706
REMARK  2 active torsions:
REMARK  status: ('A' for Active; 'I' for Inactive)
REMARK    1  A    between atoms: C5_5  and  N6_21 
REMARK    2  A    between atoms: C18_14  and  N17_19 
ROOT
HETATM    1  O1  MIQ B 502      -8.891   8.218 -16.291  1.00142.91    -0.171 OA
HETATM    2  C2  MIQ B 502      -9.735   7.661 -15.327  1.00141.17     0.195 A 
HETATM    3  C3  MIQ B 502     -11.154   8.182 -14.933  1.00141.71     0.035 A 
HETATM    4  C4  MIQ B 502     -11.991   9.313 -15.399  1.00142.86     0.046 A 
HETATM    5  C5  MIQ B 502     -13.273   9.536 -14.836  1.00139.53     0.031 A 
HETATM    6  C12 MIQ B 502     -13.769   8.648 -13.795  1.00139.38     0.030 A 
HETATM    7  C13 MIQ B 502     -12.968   7.562 -13.348  1.00141.18     0.019 A 
HETATM    8  C14 MIQ B 502     -11.624   7.332 -13.945  1.00138.77     0.033 A 
HETATM    9  C15 MIQ B 502     -10.490   6.277 -13.725  1.00142.10     0.195 A 
HETATM   10  N17 MIQ B 502      -9.523   6.601 -14.567  1.00139.42    -0.288 N 
HETATM   11  O16 MIQ B 502     -10.502   5.214 -12.821  1.00148.93    -0.171 OA
ENDROOT
BRANCH  10  12
HETATM   12  C18 MIQ B 502      -8.289   5.840 -14.631  1.00139.82     0.187 C 
HETATM   13  C19 MIQ B 502      -7.129   6.807 -14.359  1.00140.06     0.247 C 
HETATM   14  O25 MIQ B 502      -7.169   7.502 -13.407  1.00143.95    -0.271 OA
HETATM   15  N20 MIQ B 502      -5.980   6.887 -15.238  1.00140.02    -0.296 N 
HETATM   16  H13 MIQ B 502      -5.233   7.527 -15.053  1.00142.77     0.171 HD
HETATM   17  C21 MIQ B 502      -5.959   6.036 -16.400  1.00142.22     0.224 C 
HETATM   18  C22 MIQ B 502      -7.296   5.740 -17.052  1.00139.52     0.106 C 
HETATM   19  O24 MIQ B 502      -4.949   5.588 -16.819  1.00146.13    -0.273 OA
HETATM   20  C23 MIQ B 502      -8.173   5.126 -15.976  1.00139.15     0.045 C 
ENDBRANCH  10  12
BRANCH   5  21
HETATM   21  N6  MIQ B 502     -14.075  10.657 -15.291  1.00140.95    -0.377 N 
HETATM   22  C7  MIQ B 502     -13.822  11.969 -14.722  1.00142.12     0.149 C 
HETATM   23  C8  MIQ B 502     -15.059  12.856 -14.765  1.00144.10     0.187 C 
HETATM   24  O9  MIQ B 502     -15.684  12.858 -16.014  1.00148.65    -0.388 OA
HETATM   25  C10 MIQ B 502     -15.301  11.942 -16.998  1.00147.44     0.187 C 
HETATM   26  C11 MIQ B 502     -14.778  10.578 -16.560  1.00144.08     0.149 C 
ENDBRANCH   5  21
TORSDOF 2
ENDMDL
MODEL 6
REMARK VINA RESULT:      -5.7      9.784     11.715
REMARK  2 active torsions:
REMARK  status: ('A' for Active; 'I' for Inactive)
REMARK    1  A    between atoms: C5_5  and  N6_21 
REMARK    2  A    between atoms: C18_14  and  N17_19 
ROOT
HETATM    1  O1  MIQ B 502     -19.329  11.523 -11.955  1.00142.91    -0.171 OA
HETATM    2  C2  MIQ B 502     -18.747  10.360 -11.446  1.00141.17     0.195 A 
HETATM    3  C3  MIQ B 502     -17.324   9.814 -11.790  1.00141.71     0.035 A 
HETATM    4  C4  MIQ B 502     -16.233  10.295 -12.670  1.00142.86     0.046 A 
HETATM    5  C5  MIQ B 502     -15.023   9.564 -12.777  1.00139.53     0.031 A 
HETATM    6  C12 MIQ B 502     -14.852   8.335 -12.016  1.00139.38     0.030 A 
HETATM    7  C13 MIQ B 502     -15.897   7.874 -11.171  1.00141.18     0.019 A 
HETATM    8  C14 MIQ B 502     -17.165   8.646 -11.061  1.00138.77     0.033 A 
HETATM    9  C15 MIQ B 502     -18.496   8.467 -10.261  1.00142.10     0.195 A 
HETATM   10  N17 MIQ B 502     -19.259   9.498 -10.585  1.00139.42    -0.288 N 
HETATM   11  O16 MIQ B 502     -18.811   7.426  -9.385  1.00148.93    -0.171 OA
ENDROOT
BRANCH  10  12
HETATM   12  C18 MIQ B 502     -20.593   9.654 -10.036  1.00139.82     0.187 C 
HETATM   13  C19 MIQ B 502     -20.485   9.557  -8.509  1.00140.06     0.247 C 
HETATM   14  O25 MIQ B 502     -19.695  10.226  -7.944  1.00143.95    -0.271 OA
HETATM   15  N20 MIQ B 502     -21.332   8.669  -7.739  1.00140.02    -0.296 N 
HETATM   16  H13 MIQ B 502     -21.247   8.609  -6.744  1.00142.77     0.171 HD
HETATM   17  C21 MIQ B 502     -22.282   7.855  -8.453  1.00142.22     0.224 C 
HETATM   18  C22 MIQ B 502     -21.868   7.376  -9.832  1.00139.52     0.106 C 
HETATM   19  O24 MIQ B 502     -23.332   7.579  -7.988  1.00146.13    -0.273 OA
HETATM   20  C23 MIQ B 502     -21.541   8.619 -10.639  1.00139.15     0.045 C 
ENDBRANCH  10  12
BRANCH   5  21
HETATM   21  N6  MIQ B 502     -13.969  10.039 -13.655  1.00140.95    -0.377 N 
HETATM   22  C7  MIQ B 502     -12.822   9.180 -13.890  1.00142.12     0.149 C 
HETATM   23  C8  MIQ B 502     -11.575   9.980 -14.247  1.00144.10     0.187 C 
HETATM   24  O9  MIQ B 502     -11.811  10.944 -15.229  1.00148.65    -0.388 OA
HETATM   25  C10 MIQ B 502     -13.117  11.246 -15.625  1.00147.44     0.187 C 
HETATM   26  C11 MIQ B 502     -14.240  11.105 -14.603  1.00144.08     0.149 C 
ENDBRANCH   5  21
TORSDOF 2
ENDMDL
MODEL 7
REMARK VINA RESULT:      -5.7      5.368      7.537
REMARK  2 active torsions:
REMARK  status: ('A' for Active; 'I' for Inactive)
REMARK    1  A    between atoms: C5_5  and  N6_21 
REMARK    2  A    between atoms: C18_14  and  N17_19 
ROOT
HETATM    1  O1  MIQ B 502     -10.440   8.480 -13.669  1.00142.91    -0.171 OA
HETATM    2  C2  MIQ B 502     -11.333   7.407 -13.646  1.00141.17     0.195 A 
HETATM    3  C3  MIQ B 502     -12.879   7.498 -13.441  1.00141.71     0.035 A 
HETATM    4  C4  MIQ B 502     -13.814   8.629 -13.228  1.00142.86     0.046 A 
HETATM    5  C5  MIQ B 502     -15.203   8.392 -13.072  1.00139.53     0.031 A 
HETATM    6  C12 MIQ B 502     -15.712   7.029 -13.121  1.00139.38     0.030 A 
HETATM    7  C13 MIQ B 502     -14.817   5.945 -13.326  1.00141.18     0.019 A 
HETATM    8  C14 MIQ B 502     -13.360   6.200 -13.492  1.00138.77     0.033 A 
HETATM    9  C15 MIQ B 502     -12.106   5.298 -13.731  1.00142.10     0.195 A 
HETATM   10  N17 MIQ B 502     -11.071   6.119 -13.794  1.00139.42    -0.288 N 
HETATM   11  O16 MIQ B 502     -12.088   3.907 -13.850  1.00148.93    -0.171 OA
ENDROOT
BRANCH  10  12
HETATM   12  C18 MIQ B 502      -9.722   5.624 -13.995  1.00139.82     0.187 C 
HETATM   13  C19 MIQ B 502      -8.828   6.255 -12.920  1.00140.06     0.247 C 
HETATM   14  O25 MIQ B 502      -9.157   6.192 -11.788  1.00143.95    -0.271 OA
HETATM   15  N20 MIQ B 502      -7.586   6.921 -13.253  1.00140.02    -0.296 N 
HETATM   16  H13 MIQ B 502      -7.015   7.334 -12.543  1.00142.77     0.171 HD
HETATM   17  C21 MIQ B 502      -7.212   6.994 -14.642  1.00142.22     0.224 C 
HETATM   18  C22 MIQ B 502      -8.341   7.115 -15.647  1.00139.52     0.106 C 
HETATM   19  O24 MIQ B 502      -6.080   6.955 -14.980  1.00146.13    -0.273 OA
HETATM   20  C23 MIQ B 502      -9.252   5.923 -15.418  1.00139.15     0.045 C 
ENDBRANCH  10  12
BRANCH   5  21
HETATM   21  N6  MIQ B 502     -16.104   9.507 -12.850  1.00140.95    -0.377 N 
HETATM   22  C7  MIQ B 502     -16.926   9.508 -11.652  1.00142.12     0.149 C 
HETATM   23  C8  MIQ B 502     -18.208  10.308 -11.842  1.00144.10     0.187 C 
HETATM   24  O9  MIQ B 502     -17.986  11.562 -12.414  1.00148.65    -0.388 OA
HETATM   25  C10 MIQ B 502     -16.735  11.886 -12.946  1.00147.44     0.187 C 
HETATM   26  C11 MIQ B 502     -15.882  10.768 -13.536  1.00144.08     0.149 C 
ENDBRANCH   5  21
TORSDOF 2
ENDMDL
MODEL 8
REMARK VINA RESULT:      -5.7      5.063      8.111
REMARK  2 active torsions:
REMARK  status: ('A' for Active; 'I' for Inactive)
REMARK    1  A    between atoms: C5_5  and  N6_21 
REMARK    2  A    between atoms: C18_14  and  N17_19 
ROOT
HETATM    1  O1  MIQ B 502     -11.305   9.760 -13.838  1.00142.91    -0.171 OA
HETATM    2  C2  MIQ B 502     -11.463   8.373 -13.853  1.00141.17     0.195 A 
HETATM    3  C3  MIQ B 502     -12.721   7.582 -13.373  1.00141.71     0.035 A 
HETATM    4  C4  MIQ B 502     -14.028   7.993 -12.807  1.00142.86     0.046 A 
HETATM    5  C5  MIQ B 502     -14.997   7.018 -12.460  1.00139.53     0.031 A 
HETATM    6  C12 MIQ B 502     -14.706   5.606 -12.661  1.00139.38     0.030 A 
HETATM    7  C13 MIQ B 502     -13.454   5.212 -13.205  1.00141.18     0.019 A 
HETATM    8  C14 MIQ B 502     -12.441   6.240 -13.570  1.00138.77     0.033 A 
HETATM    9  C15 MIQ B 502     -11.000   6.197 -14.176  1.00142.10     0.195 A 
HETATM   10  N17 MIQ B 502     -10.606   7.456 -14.269  1.00139.42    -0.288 N 
HETATM   11  O16 MIQ B 502     -10.280   5.058 -14.540  1.00148.93    -0.171 OA
ENDROOT
BRANCH  10  12
HETATM   12  C18 MIQ B 502      -9.293   7.802 -14.782  1.00139.82     0.187 C 
HETATM   13  C19 MIQ B 502      -9.138   7.140 -16.156  1.00140.06     0.247 C 
HETATM   14  O25 MIQ B 502      -9.982   7.292 -16.967  1.00143.95    -0.271 OA
HETATM   15  N20 MIQ B 502      -7.980   6.336 -16.491  1.00140.02    -0.296 N 
HETATM   16  H13 MIQ B 502      -7.894   5.904 -17.389  1.00142.77     0.171 HD
HETATM   17  C21 MIQ B 502      -6.969   6.157 -15.481  1.00142.22     0.224 C 
HETATM   18  C22 MIQ B 502      -7.446   6.100 -14.042  1.00139.52     0.106 C 
HETATM   19  O24 MIQ B 502      -5.825   6.065 -15.762  1.00146.13    -0.273 OA
HETATM   20  C23 MIQ B 502      -8.208   7.388 -13.789  1.00139.15     0.045 C 
ENDBRANCH  10  12
BRANCH   5  21
HETATM   21  N6  MIQ B 502     -16.267   7.434 -11.892  1.00140.95    -0.377 N 
HETATM   22  C7  MIQ B 502     -17.124   6.425 -11.294  1.00142.12     0.149 C 
HETATM   23  C8  MIQ B 502     -18.593   6.827 -11.338  1.00144.10     0.187 C 
HETATM   24  O9  MIQ B 502     -18.812   8.134 -10.898  1.00148.65    -0.388 OA
HETATM   25  C10 MIQ B 502     -17.735   8.998 -10.682  1.00147.44     0.187 C 
HETATM   26  C11 MIQ B 502     -16.479   8.824 -11.529  1.00144.08     0.149 C 
ENDBRANCH   5  21
TORSDOF 2
ENDMDL
MODEL 9
REMARK VINA RESULT:      -5.6      2.258      2.704
REMARK  2 active torsions:
REMARK  status: ('A' for Active; 'I' for Inactive)
REMARK    1  A    between atoms: C5_5  and  N6_21 
REMARK    2  A    between atoms: C18_14  and  N17_19 
ROOT
HETATM    1  O1  MIQ B 502     -10.901   6.987 -16.382  1.00142.91    -0.171 OA
HETATM    2  C2  MIQ B 502      -9.581   7.191 -15.972  1.00141.17     0.195 A 
HETATM    3  C3  MIQ B 502      -8.451   7.873 -16.807  1.00141.71     0.035 A 
HETATM    4  C4  MIQ B 502      -8.405   8.470 -18.163  1.00142.86     0.046 A 
HETATM    5  C5  MIQ B 502      -7.200   9.029 -18.659  1.00139.53     0.031 A 
HETATM    6  C12 MIQ B 502      -6.003   9.017 -17.831  1.00139.38     0.030 A 
HETATM    7  C13 MIQ B 502      -6.047   8.446 -16.530  1.00141.18     0.019 A 
HETATM    8  C14 MIQ B 502      -7.315   7.862 -16.014  1.00138.77     0.033 A 
HETATM    9  C15 MIQ B 502      -7.743   7.170 -14.679  1.00142.10     0.195 A 
HETATM   10  N17 MIQ B 502      -9.022   6.864 -14.819  1.00139.42    -0.288 N 
HETATM   11  O16 MIQ B 502      -6.934   6.925 -13.568  1.00148.93    -0.171 OA
ENDROOT
BRANCH  10  12
HETATM   12  C18 MIQ B 502      -9.759   6.187 -13.769  1.00139.82     0.187 C 
HETATM   13  C19 MIQ B 502     -10.357   4.907 -14.366  1.00140.06     0.247 C 
HETATM   14  O25 MIQ B 502      -9.656   4.167 -14.960  1.00143.95    -0.271 OA
HETATM   15  N20 MIQ B 502     -11.759   4.577 -14.218  1.00140.02    -0.296 N 
HETATM   16  H13 MIQ B 502     -12.139   3.742 -14.618  1.00142.77     0.171 HD
HETATM   17  C21 MIQ B 502     -12.597   5.502 -13.498  1.00142.22     0.224 C 
HETATM   18  C22 MIQ B 502     -12.252   6.973 -13.624  1.00139.52     0.106 C 
HETATM   19  O24 MIQ B 502     -13.503   5.129 -12.838  1.00146.13    -0.273 OA
HETATM   20  C23 MIQ B 502     -10.811   7.120 -13.171  1.00139.15     0.045 C 
ENDBRANCH  10  12
BRANCH   5  21
HETATM   21  N6  MIQ B 502      -7.166   9.597 -19.994  1.00140.95    -0.377 N 
HETATM   22  C7  MIQ B 502      -8.231  10.502 -20.392  1.00142.12     0.149 C 
HETATM   23  C8  MIQ B 502      -8.443  10.501 -21.901  1.00144.10     0.187 C 
HETATM   24  O9  MIQ B 502      -7.252  10.630 -22.618  1.00148.65    -0.388 OA
HETATM   25  C10 MIQ B 502      -6.020  10.526 -21.967  1.00147.44     0.187 C 
HETATM   26  C11 MIQ B 502      -5.918   9.631 -20.736  1.00144.08     0.149 C 
ENDBRANCH   5  21
TORSDOF 2
ENDMDL
