MODEL 1
REMARK VINA RESULT:      -6.8      0.000      0.000
REMARK  2 active torsions:
REMARK  status: ('A' for Active; 'I' for Inactive)
REMARK    1  A    between atoms: C5_5  and  N6_21 
REMARK    2  A    between atoms: C18_14  and  N17_19 
ROOT
HETATM    1  O1  MIQ B 502       6.045  10.619  20.624  1.00142.91    -0.171 OA
HETATM    2  C2  MIQ B 502       6.298  10.746  19.256  1.00141.17     0.195 A 
HETATM    3  C3  MIQ B 502       7.599  11.316  18.607  1.00141.71     0.035 A 
HETATM    4  C4  MIQ B 502       8.864  11.852  19.163  1.00142.86     0.046 A 
HETATM    5  C5  MIQ B 502       9.892  12.305  18.297  1.00139.53     0.031 A 
HETATM    6  C12 MIQ B 502       9.701  12.244  16.855  1.00139.38     0.030 A 
HETATM    7  C13 MIQ B 502       8.489  11.730  16.322  1.00141.18     0.019 A 
HETATM    8  C14 MIQ B 502       7.415  11.252  17.236  1.00138.77     0.033 A 
HETATM    9  C15 MIQ B 502       5.991  10.638  17.032  1.00142.10     0.195 A 
HETATM   10  N17 MIQ B 502       5.513  10.415  18.245  1.00139.42    -0.288 N 
HETATM   11  O16 MIQ B 502       5.357  10.383  15.815  1.00148.93    -0.171 OA
ENDROOT
BRANCH  10  12
HETATM   12  C18 MIQ B 502       4.189   9.856  18.446  1.00139.82     0.187 C 
HETATM   13  C19 MIQ B 502       4.125   8.521  17.694  1.00140.06     0.247 C 
HETATM   14  O25 MIQ B 502       4.973   7.720  17.870  1.00143.95    -0.271 OA
HETATM   15  N20 MIQ B 502       3.049   8.213  16.775  1.00140.02    -0.296 N 
HETATM   16  H13 MIQ B 502       3.022   7.340  16.285  1.00142.77     0.171 HD
HETATM   17  C21 MIQ B 502       2.032   9.211  16.568  1.00142.22     0.224 C 
HETATM   18  C22 MIQ B 502       2.475  10.660  16.637  1.00139.52     0.106 C 
HETATM   19  O24 MIQ B 502       0.907   8.913  16.362  1.00146.13    -0.273 OA
HETATM   20  C23 MIQ B 502       3.119  10.850  17.998  1.00139.15     0.045 C 
ENDBRANCH  10  12
BRANCH   5  21
HETATM   21  N6  MIQ B 502      11.120  12.841  18.855  1.00140.95    -0.377 N 
HETATM   22  C7  MIQ B 502      12.355  12.105  18.650  1.00142.12     0.149 C 
HETATM   23  C8  MIQ B 502      13.369  12.376  19.754  1.00144.10     0.187 C 
HETATM   24  O9  MIQ B 502      13.524  13.737  20.027  1.00148.65    -0.388 OA
HETATM   25  C10 MIQ B 502      12.643  14.673  19.480  1.00147.44     0.187 C 
HETATM   26  C11 MIQ B 502      11.204  14.249  19.205  1.00144.08     0.149 C 
ENDBRANCH   5  21
TORSDOF 2
ENDMDL
MODEL 2
REMARK VINA RESULT:      -6.6     21.963     23.117
REMARK  2 active torsions:
REMARK  status: ('A' for Active; 'I' for Inactive)
REMARK    1  A    between atoms: C5_5  and  N6_21 
REMARK    2  A    between atoms: C18_14  and  N17_19 
ROOT
HETATM    1  O1  MIQ B 502      -6.383  20.260   3.174  1.00142.91    -0.171 OA
HETATM    2  C2  MIQ B 502      -5.962  21.581   3.346  1.00141.17     0.195 A 
HETATM    3  C3  MIQ B 502      -6.323  22.514   4.546  1.00141.71     0.035 A 
HETATM    4  C4  MIQ B 502      -7.138  22.331   5.770  1.00142.86     0.046 A 
HETATM    5  C5  MIQ B 502      -7.283  23.392   6.699  1.00139.53     0.031 A 
HETATM    6  C12 MIQ B 502      -6.625  24.666   6.450  1.00139.38     0.030 A 
HETATM    7  C13 MIQ B 502      -5.842  24.841   5.277  1.00141.18     0.019 A 
HETATM    8  C14 MIQ B 502      -5.692  23.724   4.305  1.00138.77     0.033 A 
HETATM    9  C15 MIQ B 502      -4.935  23.540   2.950  1.00142.10     0.195 A 
HETATM   10  N17 MIQ B 502      -5.186  22.302   2.556  1.00139.42    -0.288 N 
HETATM   11  O16 MIQ B 502      -4.156  24.494   2.291  1.00148.93    -0.171 OA
ENDROOT
BRANCH  10  12
HETATM   12  C18 MIQ B 502      -4.652  21.780   1.312  1.00139.82     0.187 C 
HETATM   13  C19 MIQ B 502      -5.822  21.204   0.506  1.00140.06     0.247 C 
HETATM   14  O25 MIQ B 502      -6.782  21.866   0.329  1.00143.95    -0.271 OA
HETATM   15  N20 MIQ B 502      -5.781  19.867  -0.051  1.00140.02    -0.296 N 
HETATM   16  H13 MIQ B 502      -6.554  19.500  -0.570  1.00142.77     0.171 HD
HETATM   17  C21 MIQ B 502      -4.603  19.073   0.187  1.00142.22     0.224 C 
HETATM   18  C22 MIQ B 502      -3.899  19.281   1.514  1.00139.52     0.106 C 
HETATM   19  O24 MIQ B 502      -4.204  18.303  -0.616  1.00146.13    -0.273 OA
HETATM   20  C23 MIQ B 502      -3.553  20.757   1.593  1.00139.15     0.045 C 
ENDBRANCH  10  12
BRANCH   5  21
HETATM   21  N6  MIQ B 502      -8.097  23.204   7.887  1.00140.95    -0.377 N 
HETATM   22  C7  MIQ B 502      -8.678  21.895   8.130  1.00142.12     0.149 C 
HETATM   23  C8  MIQ B 502      -9.951  21.984   8.961  1.00144.10     0.187 C 
HETATM   24  O9  MIQ B 502      -9.808  22.792  10.090  1.00148.65    -0.388 OA
HETATM   25  C10 MIQ B 502      -8.671  23.589  10.250  1.00147.44     0.187 C 
HETATM   26  C11 MIQ B 502      -7.974  24.124   9.004  1.00144.08     0.149 C 
ENDBRANCH   5  21
TORSDOF 2
ENDMDL
MODEL 3
REMARK VINA RESULT:      -6.2     18.812     21.093
REMARK  2 active torsions:
REMARK  status: ('A' for Active; 'I' for Inactive)
REMARK    1  A    between atoms: C5_5  and  N6_21 
REMARK    2  A    between atoms: C18_14  and  N17_19 
ROOT
HETATM    1  O1  MIQ B 502      -5.400  26.336   8.725  1.00142.91    -0.171 OA
HETATM    2  C2  MIQ B 502      -6.178  25.698   9.693  1.00141.17     0.195 A 
HETATM    3  C3  MIQ B 502      -5.821  25.537  11.205  1.00141.71     0.035 A 
HETATM    4  C4  MIQ B 502      -4.665  25.963  12.030  1.00142.86     0.046 A 
HETATM    5  C5  MIQ B 502      -4.625  25.664  13.415  1.00139.53     0.031 A 
HETATM    6  C12 MIQ B 502      -5.725  24.935  14.030  1.00139.38     0.030 A 
HETATM    7  C13 MIQ B 502      -6.833  24.528  13.240  1.00141.18     0.019 A 
HETATM    8  C14 MIQ B 502      -6.871  24.846  11.786  1.00138.77     0.033 A 
HETATM    9  C15 MIQ B 502      -7.887  24.577  10.629  1.00142.10     0.195 A 
HETATM   10  N17 MIQ B 502      -7.355  25.114   9.543  1.00139.42    -0.288 N 
HETATM   11  O16 MIQ B 502      -9.107  23.904  10.726  1.00148.93    -0.171 OA
ENDROOT
BRANCH  10  12
HETATM   12  C18 MIQ B 502      -8.022  25.041   8.257  1.00139.82     0.187 C 
HETATM   13  C19 MIQ B 502      -9.455  25.553   8.444  1.00140.06     0.247 C 
HETATM   14  O25 MIQ B 502      -9.631  26.593   8.973  1.00143.95    -0.271 OA
HETATM   15  N20 MIQ B 502     -10.603  24.798   7.983  1.00140.02    -0.296 N 
HETATM   16  H13 MIQ B 502     -11.534  25.140   8.118  1.00142.77     0.171 HD
HETATM   17  C21 MIQ B 502     -10.363  23.527   7.350  1.00142.22     0.224 C 
HETATM   18  C22 MIQ B 502      -9.178  22.726   7.855  1.00139.52     0.106 C 
HETATM   19  O24 MIQ B 502     -11.054  23.133   6.475  1.00146.13    -0.273 OA
HETATM   20  C23 MIQ B 502      -7.959  23.618   7.705  1.00139.15     0.045 C 
ENDBRANCH  10  12
BRANCH   5  21
HETATM   21  N6  MIQ B 502      -3.480  26.075  14.208  1.00140.95    -0.377 N 
HETATM   22  C7  MIQ B 502      -3.220  25.387  15.461  1.00142.12     0.149 C 
HETATM   23  C8  MIQ B 502      -2.467  26.269  16.449  1.00144.10     0.187 C 
HETATM   24  O9  MIQ B 502      -1.364  26.905  15.877  1.00148.65    -0.388 OA
HETATM   25  C10 MIQ B 502      -1.169  26.879  14.494  1.00147.44     0.187 C 
HETATM   26  C11 MIQ B 502      -2.393  26.812  13.587  1.00144.08     0.149 C 
ENDBRANCH   5  21
TORSDOF 2
ENDMDL
MODEL 4
REMARK VINA RESULT:      -6.1      2.202      2.848
REMARK  2 active torsions:
REMARK  status: ('A' for Active; 'I' for Inactive)
REMARK    1  A    between atoms: C5_5  and  N6_21 
REMARK    2  A    between atoms: C18_14  and  N17_19 
ROOT
HETATM    1  O1  MIQ B 502       6.034   8.539  18.866  1.00142.91    -0.171 OA
HETATM    2  C2  MIQ B 502       6.310   9.699  18.138  1.00141.17     0.195 A 
HETATM    3  C3  MIQ B 502       7.729  10.244  17.776  1.00141.71     0.035 A 
HETATM    4  C4  MIQ B 502       9.105   9.766  18.049  1.00142.86     0.046 A 
HETATM    5  C5  MIQ B 502      10.224  10.495  17.575  1.00139.53     0.031 A 
HETATM    6  C12 MIQ B 502      10.020  11.721  16.817  1.00139.38     0.030 A 
HETATM    7  C13 MIQ B 502       8.701  12.180  16.554  1.00141.18     0.019 A 
HETATM    8  C14 MIQ B 502       7.529  11.408  17.051  1.00138.77     0.033 A 
HETATM    9  C15 MIQ B 502       5.978  11.586  16.963  1.00142.10     0.195 A 
HETATM   10  N17 MIQ B 502       5.455  10.558  17.611  1.00139.42    -0.288 N 
HETATM   11  O16 MIQ B 502       5.291  12.623  16.330  1.00148.93    -0.171 OA
ENDROOT
BRANCH  10  12
HETATM   12  C18 MIQ B 502       4.019  10.401  17.748  1.00139.82     0.187 C 
HETATM   13  C19 MIQ B 502       3.708  10.229  19.240  1.00140.06     0.247 C 
HETATM   14  O25 MIQ B 502       4.141  11.009  20.012  1.00143.95    -0.271 OA
HETATM   15  N20 MIQ B 502       2.890   9.138  19.729  1.00140.02    -0.296 N 
HETATM   16  H13 MIQ B 502       2.700   9.034  20.706  1.00142.77     0.171 HD
HETATM   17  C21 MIQ B 502       2.382   8.193  18.769  1.00142.22     0.224 C 
HETATM   18  C22 MIQ B 502       3.262   7.900  17.569  1.00139.52     0.106 C 
HETATM   19  O24 MIQ B 502       1.328   7.677  18.908  1.00146.13    -0.273 OA
HETATM   20  C23 MIQ B 502       3.528   9.233  16.894  1.00139.15     0.045 C 
ENDBRANCH  10  12
BRANCH   5  21
HETATM   21  N6  MIQ B 502      11.566  10.023  17.862  1.00140.95    -0.377 N 
HETATM   22  C7  MIQ B 502      12.586  10.997  18.210  1.00142.12     0.149 C 
HETATM   23  C8  MIQ B 502      13.985  10.508  17.856  1.00144.10     0.187 C 
HETATM   24  O9  MIQ B 502      14.231   9.205  18.293  1.00148.65    -0.388 OA
HETATM   25  C10 MIQ B 502      13.188   8.413  18.782  1.00147.44     0.187 C 
HETATM   26  C11 MIQ B 502      11.784   8.635  18.230  1.00144.08     0.149 C 
ENDBRANCH   5  21
TORSDOF 2
ENDMDL
MODEL 5
REMARK VINA RESULT:      -6.1     21.922     22.889
REMARK  2 active torsions:
REMARK  status: ('A' for Active; 'I' for Inactive)
REMARK    1  A    between atoms: C5_5  and  N6_21 
REMARK    2  A    between atoms: C18_14  and  N17_19 
ROOT
HETATM    1  O1  MIQ B 502      -4.221  24.426   2.436  1.00142.91    -0.171 OA
HETATM    2  C2  MIQ B 502      -4.880  23.367   3.065  1.00141.17     0.195 A 
HETATM    3  C3  MIQ B 502      -5.519  23.394   4.490  1.00141.71     0.035 A 
HETATM    4  C4  MIQ B 502      -5.631  24.438   5.536  1.00142.86     0.046 A 
HETATM    5  C5  MIQ B 502      -6.288  24.157   6.761  1.00139.53     0.031 A 
HETATM    6  C12 MIQ B 502      -6.856  22.836   6.990  1.00139.38     0.030 A 
HETATM    7  C13 MIQ B 502      -6.749  21.836   5.986  1.00141.18     0.019 A 
HETATM    8  C14 MIQ B 502      -6.060  22.137   4.702  1.00138.77     0.033 A 
HETATM    9  C15 MIQ B 502      -5.756  21.325   3.401  1.00142.10     0.195 A 
HETATM   10  N17 MIQ B 502      -5.103  22.150   2.599  1.00139.42    -0.288 N 
HETATM   11  O16 MIQ B 502      -6.104  19.997   3.144  1.00148.93    -0.171 OA
ENDROOT
BRANCH  10  12
HETATM   12  C18 MIQ B 502      -4.640  21.727   1.291  1.00139.82     0.187 C 
HETATM   13  C19 MIQ B 502      -5.833  21.112   0.549  1.00140.06     0.247 C 
HETATM   14  O25 MIQ B 502      -6.844  21.717   0.484  1.00143.95    -0.271 OA
HETATM   15  N20 MIQ B 502      -5.753  19.811  -0.082  1.00140.02    -0.296 N 
HETATM   16  H13 MIQ B 502      -6.541  19.418  -0.557  1.00142.77     0.171 HD
HETATM   17  C21 MIQ B 502      -4.512  19.088   0.020  1.00142.22     0.224 C 
HETATM   18  C22 MIQ B 502      -3.716  19.276   1.297  1.00139.52     0.106 C 
HETATM   19  O24 MIQ B 502      -4.132  18.387  -0.853  1.00146.13    -0.273 OA
HETATM   20  C23 MIQ B 502      -3.459  20.767   1.429  1.00139.15     0.045 C 
ENDBRANCH  10  12
BRANCH   5  21
HETATM   21  N6  MIQ B 502      -6.378  25.184   7.783  1.00140.95    -0.377 N 
HETATM   22  C7  MIQ B 502      -5.955  26.533   7.450  1.00142.12     0.149 C 
HETATM   23  C8  MIQ B 502      -5.492  27.304   8.681  1.00144.10     0.187 C 
HETATM   24  O9  MIQ B 502      -6.383  27.204   9.751  1.00148.65    -0.388 OA
HETATM   25  C10 MIQ B 502      -7.440  26.291   9.709  1.00147.44     0.187 C 
HETATM   26  C11 MIQ B 502      -7.256  24.997   8.924  1.00144.08     0.149 C 
ENDBRANCH   5  21
TORSDOF 2
ENDMDL
MODEL 6
REMARK VINA RESULT:      -6.0     21.423     23.165
REMARK  2 active torsions:
REMARK  status: ('A' for Active; 'I' for Inactive)
REMARK    1  A    between atoms: C5_5  and  N6_21 
REMARK    2  A    between atoms: C18_14  and  N17_19 
ROOT
HETATM    1  O1  MIQ B 502      -7.645  21.657   6.974  1.00142.91    -0.171 OA
HETATM    2  C2  MIQ B 502      -7.674  22.578   5.925  1.00141.17     0.195 A 
HETATM    3  C3  MIQ B 502      -7.076  22.370   4.498  1.00141.71     0.035 A 
HETATM    4  C4  MIQ B 502      -6.358  21.247   3.848  1.00142.86     0.046 A 
HETATM    5  C5  MIQ B 502      -5.928  21.356   2.501  1.00139.53     0.031 A 
HETATM    6  C12 MIQ B 502      -6.193  22.577   1.754  1.00139.38     0.030 A 
HETATM    7  C13 MIQ B 502      -6.882  23.653   2.376  1.00141.18     0.019 A 
HETATM    8  C14 MIQ B 502      -7.334  23.532   3.789  1.00138.77     0.033 A 
HETATM    9  C15 MIQ B 502      -8.098  24.467   4.783  1.00142.10     0.195 A 
HETATM   10  N17 MIQ B 502      -8.205  23.789   5.913  1.00139.42    -0.288 N 
HETATM   11  O16 MIQ B 502      -8.566  25.756   4.524  1.00148.93    -0.171 OA
ENDROOT
BRANCH  10  12
HETATM   12  C18 MIQ B 502      -8.853  24.359   7.080  1.00139.82     0.187 C 
HETATM   13  C19 MIQ B 502      -7.892  24.214   8.266  1.00140.06     0.247 C 
HETATM   14  O25 MIQ B 502      -6.779  24.587   8.155  1.00143.95    -0.271 OA
HETATM   15  N20 MIQ B 502      -8.315  23.636   9.525  1.00140.02    -0.296 N 
HETATM   16  H13 MIQ B 502      -7.677  23.540  10.290  1.00142.77     0.171 HD
HETATM   17  C21 MIQ B 502      -9.677  23.178   9.634  1.00142.22     0.224 C 
HETATM   18  C22 MIQ B 502     -10.306  22.609   8.377  1.00139.52     0.106 C 
HETATM   19  O24 MIQ B 502     -10.273  23.249  10.652  1.00146.13    -0.273 OA
HETATM   20  C23 MIQ B 502     -10.206  23.691   7.317  1.00139.15     0.045 C 
ENDBRANCH  10  12
BRANCH   5  21
HETATM   21  N6  MIQ B 502      -5.213  20.255   1.882  1.00140.95    -0.377 N 
HETATM   22  C7  MIQ B 502      -4.876  20.351   0.472  1.00142.12     0.149 C 
HETATM   23  C8  MIQ B 502      -4.744  18.978  -0.176  1.00144.10     0.187 C 
HETATM   24  O9  MIQ B 502      -3.954  18.100   0.568  1.00148.65    -0.388 OA
HETATM   25  C10 MIQ B 502      -3.557  18.432   1.866  1.00147.44     0.187 C 
HETATM   26  C11 MIQ B 502      -4.473  19.315   2.706  1.00144.08     0.149 C 
ENDBRANCH   5  21
TORSDOF 2
ENDMDL
MODEL 7
REMARK VINA RESULT:      -6.0     20.885     23.052
REMARK  2 active torsions:
REMARK  status: ('A' for Active; 'I' for Inactive)
REMARK    1  A    between atoms: C5_5  and  N6_21 
REMARK    2  A    between atoms: C18_14  and  N17_19 
ROOT
HETATM    1  O1  MIQ B 502      -6.589  23.783   1.923  1.00142.91    -0.171 OA
HETATM    2  C2  MIQ B 502      -5.944  22.716   2.553  1.00141.17     0.195 A 
HETATM    3  C3  MIQ B 502      -6.189  22.223   4.015  1.00141.71     0.035 A 
HETATM    4  C4  MIQ B 502      -7.090  22.671   5.103  1.00142.86     0.046 A 
HETATM    5  C5  MIQ B 502      -7.088  22.005   6.355  1.00139.53     0.031 A 
HETATM    6  C12 MIQ B 502      -6.195  20.876   6.571  1.00139.38     0.030 A 
HETATM    7  C13 MIQ B 502      -5.331  20.446   5.527  1.00141.18     0.019 A 
HETATM    8  C14 MIQ B 502      -5.340  21.147   4.214  1.00138.77     0.033 A 
HETATM    9  C15 MIQ B 502      -4.564  20.970   2.869  1.00142.10     0.195 A 
HETATM   10  N17 MIQ B 502      -5.018  21.912   2.059  1.00139.42    -0.288 N 
HETATM   11  O16 MIQ B 502      -3.590  20.011   2.586  1.00148.93    -0.171 OA
ENDROOT
BRANCH  10  12
HETATM   12  C18 MIQ B 502      -4.505  22.063   0.710  1.00139.82     0.187 C 
HETATM   13  C19 MIQ B 502      -4.593  20.695   0.021  1.00140.06     0.247 C 
HETATM   14  O25 MIQ B 502      -5.615  20.105   0.040  1.00143.95    -0.271 OA
HETATM   15  N20 MIQ B 502      -3.458  20.109  -0.660  1.00140.02    -0.296 N 
HETATM   16  H13 MIQ B 502      -3.526  19.212  -1.101  1.00142.77     0.171 HD
HETATM   17  C21 MIQ B 502      -2.219  20.843  -0.662  1.00142.22     0.224 C 
HETATM   18  C22 MIQ B 502      -1.919  21.676   0.570  1.00139.52     0.106 C 
HETATM   19  O24 MIQ B 502      -1.477  20.802  -1.581  1.00146.13    -0.273 OA
HETATM   20  C23 MIQ B 502      -3.087  22.630   0.740  1.00139.15     0.045 C 
ENDBRANCH  10  12
BRANCH   5  21
HETATM   21  N6  MIQ B 502      -7.965  22.464   7.417  1.00140.95    -0.377 N 
HETATM   22  C7  MIQ B 502      -8.758  21.481   8.135  1.00142.12     0.149 C 
HETATM   23  C8  MIQ B 502     -10.030  22.089   8.712  1.00144.10     0.187 C 
HETATM   24  O9  MIQ B 502      -9.800  23.285   9.395  1.00148.65    -0.388 OA
HETATM   25  C10 MIQ B 502      -8.557  23.917   9.316  1.00147.44     0.187 C 
HETATM   26  C11 MIQ B 502      -7.736  23.756   8.040  1.00144.08     0.149 C 
ENDBRANCH   5  21
TORSDOF 2
ENDMDL
MODEL 8
REMARK VINA RESULT:      -6.0     20.910     22.505
REMARK  2 active torsions:
REMARK  status: ('A' for Active; 'I' for Inactive)
REMARK    1  A    between atoms: C5_5  and  N6_21 
REMARK    2  A    between atoms: C18_14  and  N17_19 
ROOT
HETATM    1  O1  MIQ B 502      -8.237  24.944   5.154  1.00142.91    -0.171 OA
HETATM    2  C2  MIQ B 502      -7.922  23.742   5.792  1.00141.17     0.195 A 
HETATM    3  C3  MIQ B 502      -6.852  22.704   5.327  1.00141.71     0.035 A 
HETATM    4  C4  MIQ B 502      -5.914  22.651   4.180  1.00142.86     0.046 A 
HETATM    5  C5  MIQ B 502      -5.039  21.547   4.020  1.00139.53     0.031 A 
HETATM    6  C12 MIQ B 502      -5.063  20.460   4.989  1.00139.38     0.030 A 
HETATM    7  C13 MIQ B 502      -5.961  20.511   6.089  1.00141.18     0.019 A 
HETATM    8  C14 MIQ B 502      -6.876  21.674   6.253  1.00138.77     0.033 A 
HETATM    9  C15 MIQ B 502      -7.966  22.075   7.299  1.00142.10     0.195 A 
HETATM   10  N17 MIQ B 502      -8.443  23.243   6.900  1.00139.42    -0.288 N 
HETATM   11  O16 MIQ B 502      -8.354  21.345   8.424  1.00148.93    -0.171 OA
ENDROOT
BRANCH  10  12
HETATM   12  C18 MIQ B 502      -9.496  23.921   7.632  1.00139.82     0.187 C 
HETATM   13  C19 MIQ B 502      -9.057  24.022   9.098  1.00140.06     0.247 C 
HETATM   14  O25 MIQ B 502      -7.992  24.462   9.351  1.00143.95    -0.271 OA
HETATM   15  N20 MIQ B 502      -9.916  23.598  10.184  1.00140.02    -0.296 N 
HETATM   16  H13 MIQ B 502      -9.615  23.663  11.136  1.00142.77     0.171 HD
HETATM   17  C21 MIQ B 502     -11.208  23.055   9.849  1.00142.22     0.224 C 
HETATM   18  C22 MIQ B 502     -11.301  22.265   8.558  1.00139.52     0.106 C 
HETATM   19  O24 MIQ B 502     -12.148  23.223  10.546  1.00146.13    -0.273 OA
HETATM   20  C23 MIQ B 502     -10.825  23.189   7.452  1.00139.15     0.045 C 
ENDBRANCH  10  12
BRANCH   5  21
HETATM   21  N6  MIQ B 502      -4.136  21.502   2.885  1.00140.95    -0.377 N 
HETATM   22  C7  MIQ B 502      -3.661  20.208   2.427  1.00142.12     0.149 C 
HETATM   23  C8  MIQ B 502      -2.311  20.312   1.729  1.00144.10     0.187 C 
HETATM   24  O9  MIQ B 502      -2.268  21.334   0.779  1.00148.65    -0.388 OA
HETATM   25  C10 MIQ B 502      -3.303  22.269   0.698  1.00147.44     0.187 C 
HETATM   26  C11 MIQ B 502      -4.063  22.628   1.970  1.00144.08     0.149 C 
ENDBRANCH   5  21
TORSDOF 2
ENDMDL
MODEL 9
REMARK VINA RESULT:      -5.9     18.546     21.950
REMARK  2 active torsions:
REMARK  status: ('A' for Active; 'I' for Inactive)
REMARK    1  A    between atoms: C5_5  and  N6_21 
REMARK    2  A    between atoms: C18_14  and  N17_19 
ROOT
HETATM    1  O1  MIQ B 502      -4.996  24.408  14.241  1.00142.91    -0.171 OA
HETATM    2  C2  MIQ B 502      -5.502  25.566  13.647  1.00141.17     0.195 A 
HETATM    3  C3  MIQ B 502      -6.689  25.640  12.634  1.00141.71     0.035 A 
HETATM    4  C4  MIQ B 502      -7.580  24.619  12.032  1.00142.86     0.046 A 
HETATM    5  C5  MIQ B 502      -8.595  25.003  11.121  1.00139.53     0.031 A 
HETATM    6  C12 MIQ B 502      -8.763  26.407  10.775  1.00139.38     0.030 A 
HETATM    7  C13 MIQ B 502      -7.910  27.386  11.352  1.00141.18     0.019 A 
HETATM    8  C14 MIQ B 502      -6.847  26.977  12.311  1.00138.77     0.033 A 
HETATM    9  C15 MIQ B 502      -5.752  27.738  13.128  1.00142.10     0.195 A 
HETATM   10  N17 MIQ B 502      -5.100  26.814  13.814  1.00139.42    -0.288 N 
HETATM   11  O16 MIQ B 502      -5.515  29.114  13.128  1.00148.93    -0.171 OA
ENDROOT
BRANCH  10  12
HETATM   12  C18 MIQ B 502      -3.990  27.158  14.683  1.00139.82     0.187 C 
HETATM   13  C19 MIQ B 502      -2.773  26.342  14.232  1.00140.06     0.247 C 
HETATM   14  O25 MIQ B 502      -2.461  26.354  13.095  1.00143.95    -0.271 OA
HETATM   15  N20 MIQ B 502      -1.989  25.560  15.166  1.00140.02    -0.296 N 
HETATM   16  H13 MIQ B 502      -1.200  25.027  14.858  1.00142.77     0.171 HD
HETATM   17  C21 MIQ B 502      -2.395  25.554  16.548  1.00142.22     0.224 C 
HETATM   18  C22 MIQ B 502      -3.884  25.649  16.820  1.00139.52     0.106 C 
HETATM   19  O24 MIQ B 502      -1.606  25.484  17.424  1.00146.13    -0.273 OA
HETATM   20  C23 MIQ B 502      -4.366  26.920  16.145  1.00139.15     0.045 C 
ENDBRANCH  10  12
BRANCH   5  21
HETATM   21  N6  MIQ B 502      -9.451  23.992  10.528  1.00140.95    -0.377 N 
HETATM   22  C7  MIQ B 502     -10.845  24.320  10.280  1.00142.12     0.149 C 
HETATM   23  C8  MIQ B 502     -11.731  23.080  10.288  1.00144.10     0.187 C 
HETATM   24  O9  MIQ B 502     -11.215  22.039   9.513  1.00148.65    -0.388 OA
HETATM   25  C10 MIQ B 502      -9.915  22.110   9.008  1.00147.44     0.187 C 
HETATM   26  C11 MIQ B 502      -8.864  22.879   9.802  1.00144.08     0.149 C 
ENDBRANCH   5  21
TORSDOF 2
ENDMDL
