MODEL 1
REMARK VINA RESULT:      -7.2      0.000      0.000
REMARK  2 active torsions:
REMARK  status: ('A' for Active; 'I' for Inactive)
REMARK    1  A    between atoms: C5_5  and  N6_21 
REMARK    2  A    between atoms: C18_14  and  N17_19 
ROOT
HETATM    1  O1  MIQ B 502      -8.753 -13.781  -6.567  1.00142.91    -0.171 OA
HETATM    2  C2  MIQ B 502      -8.765 -15.133  -6.216  1.00141.17     0.195 A 
HETATM    3  C3  MIQ B 502      -9.058 -16.332  -7.173  1.00141.71     0.035 A 
HETATM    4  C4  MIQ B 502      -9.380 -16.428  -8.617  1.00142.86     0.046 A 
HETATM    5  C5  MIQ B 502      -9.598 -17.692  -9.220  1.00139.53     0.031 A 
HETATM    6  C12 MIQ B 502      -9.503 -18.902  -8.416  1.00139.38     0.030 A 
HETATM    7  C13 MIQ B 502      -9.192 -18.810  -7.032  1.00141.18     0.019 A 
HETATM    8  C14 MIQ B 502      -8.962 -17.480  -6.405  1.00138.77     0.033 A 
HETATM    9  C15 MIQ B 502      -8.608 -16.992  -4.963  1.00142.10     0.195 A 
HETATM   10  N17 MIQ B 502      -8.534 -15.673  -5.032  1.00139.42    -0.288 N 
HETATM   11  O16 MIQ B 502      -8.414 -17.790  -3.834  1.00148.93    -0.171 OA
ENDROOT
BRANCH  10  12
HETATM   12  C18 MIQ B 502      -8.235 -14.869  -3.861  1.00139.82     0.187 C 
HETATM   13  C19 MIQ B 502      -6.960 -15.430  -3.221  1.00140.06     0.247 C 
HETATM   14  O25 MIQ B 502      -6.005 -15.601  -3.893  1.00143.95    -0.271 OA
HETATM   15  N20 MIQ B 502      -6.891 -15.752  -1.811  1.00140.02    -0.296 N 
HETATM   16  H13 MIQ B 502      -6.054 -16.124  -1.406  1.00142.77     0.171 HD
HETATM   17  C21 MIQ B 502      -8.072 -15.545  -1.013  1.00142.22     0.224 C 
HETATM   18  C22 MIQ B 502      -9.405 -15.770  -1.699  1.00139.52     0.106 C 
HETATM   19  O24 MIQ B 502      -8.003 -15.210   0.118  1.00146.13    -0.273 OA
HETATM   20  C23 MIQ B 502      -9.429 -14.853  -2.908  1.00139.15     0.045 C 
ENDBRANCH  10  12
BRANCH   5  21
HETATM   21  N6  MIQ B 502      -9.928 -17.770 -10.631  1.00140.95    -0.377 N 
HETATM   22  C7  MIQ B 502      -9.546 -18.962 -11.369  1.00142.12     0.149 C 
HETATM   23  C8  MIQ B 502      -9.351 -18.675 -12.852  1.00144.10     0.187 C 
HETATM   24  O9  MIQ B 502     -10.402 -17.941 -13.406  1.00148.65    -0.388 OA
HETATM   25  C10 MIQ B 502     -11.374 -17.365 -12.584  1.00147.44     0.187 C 
HETATM   26  C11 MIQ B 502     -10.973 -16.924 -11.180  1.00144.08     0.149 C 
ENDBRANCH   5  21
TORSDOF 2
ENDMDL
MODEL 2
REMARK VINA RESULT:      -7.2      4.608      8.551
REMARK  2 active torsions:
REMARK  status: ('A' for Active; 'I' for Inactive)
REMARK    1  A    between atoms: C5_5  and  N6_21 
REMARK    2  A    between atoms: C18_14  and  N17_19 
ROOT
HETATM    1  O1  MIQ B 502     -12.301 -14.346  -7.265  1.00142.91    -0.171 OA
HETATM    2  C2  MIQ B 502     -12.656 -14.025  -5.952  1.00141.17     0.195 A 
HETATM    3  C3  MIQ B 502     -11.744 -14.158  -4.692  1.00141.71     0.035 A 
HETATM    4  C4  MIQ B 502     -10.349 -14.615  -4.487  1.00142.86     0.046 A 
HETATM    5  C5  MIQ B 502      -9.780 -14.621  -3.188  1.00139.53     0.031 A 
HETATM    6  C12 MIQ B 502     -10.571 -14.175  -2.051  1.00139.38     0.030 A 
HETATM    7  C13 MIQ B 502     -11.908 -13.736  -2.247  1.00141.18     0.019 A 
HETATM    8  C14 MIQ B 502     -12.500 -13.730  -3.613  1.00138.77     0.033 A 
HETATM    9  C15 MIQ B 502     -13.889 -13.328  -4.207  1.00142.10     0.195 A 
HETATM   10  N17 MIQ B 502     -13.807 -13.549  -5.509  1.00139.42    -0.288 N 
HETATM   11  O16 MIQ B 502     -14.990 -12.838  -3.502  1.00148.93    -0.171 OA
ENDROOT
BRANCH  10  12
HETATM   12  C18 MIQ B 502     -14.931 -13.300  -6.391  1.00139.82     0.187 C 
HETATM   13  C19 MIQ B 502     -15.169 -14.571  -7.216  1.00140.06     0.247 C 
HETATM   14  O25 MIQ B 502     -15.265 -15.608  -6.662  1.00143.95    -0.271 OA
HETATM   15  N20 MIQ B 502     -15.284 -14.534  -8.660  1.00140.02    -0.296 N 
HETATM   16  H13 MIQ B 502     -15.432 -15.372  -9.187  1.00142.77     0.171 HD
HETATM   17  C21 MIQ B 502     -15.152 -13.258  -9.315  1.00142.22     0.224 C 
HETATM   18  C22 MIQ B 502     -14.199 -12.263  -8.682  1.00139.52     0.106 C 
HETATM   19  O24 MIQ B 502     -15.762 -13.000 -10.294  1.00146.13    -0.273 OA
HETATM   20  C23 MIQ B 502     -14.669 -12.065  -7.252  1.00139.15     0.045 C 
ENDBRANCH  10  12
BRANCH   5  21
HETATM   21  N6  MIQ B 502      -8.417 -15.085  -3.000  1.00140.95    -0.377 N 
HETATM   22  C7  MIQ B 502      -7.360 -14.471  -3.785  1.00142.12     0.149 C 
HETATM   23  C8  MIQ B 502      -6.180 -15.413  -3.986  1.00144.10     0.187 C 
HETATM   24  O9  MIQ B 502      -5.766 -16.026  -2.802  1.00148.65    -0.388 OA
HETATM   25  C10 MIQ B 502      -6.541 -15.924  -1.644  1.00147.44     0.187 C 
HETATM   26  C11 MIQ B 502      -8.054 -15.795  -1.787  1.00144.08     0.149 C 
ENDBRANCH   5  21
TORSDOF 2
ENDMDL
MODEL 3
REMARK VINA RESULT:      -7.2     13.125     14.575
REMARK  2 active torsions:
REMARK  status: ('A' for Active; 'I' for Inactive)
REMARK    1  A    between atoms: C5_5  and  N6_21 
REMARK    2  A    between atoms: C18_14  and  N17_19 
ROOT
HETATM    1  O1  MIQ B 502       3.341 -13.615 -11.602  1.00142.91    -0.171 OA
HETATM    2  C2  MIQ B 502       3.231 -14.619 -10.638  1.00141.17     0.195 A 
HETATM    3  C3  MIQ B 502       4.396 -15.508 -10.096  1.00141.71     0.035 A 
HETATM    4  C4  MIQ B 502       5.847 -15.574 -10.386  1.00142.86     0.046 A 
HETATM    5  C5  MIQ B 502       6.671 -16.512  -9.713  1.00139.53     0.031 A 
HETATM    6  C12 MIQ B 502       6.086 -17.413  -8.731  1.00139.38     0.030 A 
HETATM    7  C13 MIQ B 502       4.694 -17.349  -8.451  1.00141.18     0.019 A 
HETATM    8  C14 MIQ B 502       3.835 -16.361  -9.159  1.00138.77     0.033 A 
HETATM    9  C15 MIQ B 502       2.314 -16.000  -9.120  1.00142.10     0.195 A 
HETATM   10  N17 MIQ B 502       2.149 -15.019  -9.992  1.00139.42    -0.288 N 
HETATM   11  O16 MIQ B 502       1.334 -16.597  -8.326  1.00148.93    -0.171 OA
ENDROOT
BRANCH  10  12
HETATM   12  C18 MIQ B 502       0.844 -14.434 -10.237  1.00139.82     0.187 C 
HETATM   13  C19 MIQ B 502       0.276 -13.979  -8.887  1.00140.06     0.247 C 
HETATM   14  O25 MIQ B 502       0.936 -13.302  -8.182  1.00143.95    -0.271 OA
HETATM   15  N20 MIQ B 502      -1.055 -14.353  -8.454  1.00140.02    -0.296 N 
HETATM   16  H13 MIQ B 502      -1.412 -14.055  -7.567  1.00142.77     0.171 HD
HETATM   17  C21 MIQ B 502      -1.839 -15.189  -9.327  1.00142.22     0.224 C 
HETATM   18  C22 MIQ B 502      -1.081 -16.208 -10.155  1.00139.52     0.106 C 
HETATM   19  O24 MIQ B 502      -3.014 -15.080  -9.395  1.00146.13    -0.273 OA
HETATM   20  C23 MIQ B 502      -0.058 -15.431 -10.963  1.00139.15     0.045 C 
ENDBRANCH  10  12
BRANCH   5  21
HETATM   21  N6  MIQ B 502       8.089 -16.576 -10.018  1.00140.95    -0.377 N 
HETATM   22  C7  MIQ B 502       8.676 -15.514 -10.817  1.00142.12     0.149 C 
HETATM   23  C8  MIQ B 502       9.906 -15.989 -11.580  1.00144.10     0.187 C 
HETATM   24  O9  MIQ B 502      10.802 -16.698 -10.778  1.00148.65    -0.388 OA
HETATM   25  C10 MIQ B 502      10.438 -17.095  -9.489  1.00147.44     0.187 C 
HETATM   26  C11 MIQ B 502       8.969 -17.397  -9.206  1.00144.08     0.149 C 
ENDBRANCH   5  21
TORSDOF 2
ENDMDL
MODEL 4
REMARK VINA RESULT:      -7.1      1.569      2.203
REMARK  2 active torsions:
REMARK  status: ('A' for Active; 'I' for Inactive)
REMARK    1  A    between atoms: C5_5  and  N6_21 
REMARK    2  A    between atoms: C18_14  and  N17_19 
ROOT
HETATM    1  O1  MIQ B 502      -7.817 -16.841  -4.944  1.00142.91    -0.171 OA
HETATM    2  C2  MIQ B 502      -8.963 -16.138  -5.323  1.00141.17     0.195 A 
HETATM    3  C3  MIQ B 502      -9.713 -16.263  -6.687  1.00141.71     0.035 A 
HETATM    4  C4  MIQ B 502      -9.487 -17.081  -7.903  1.00142.86     0.046 A 
HETATM    5  C5  MIQ B 502     -10.364 -16.973  -9.012  1.00139.53     0.031 A 
HETATM    6  C12 MIQ B 502     -11.492 -16.054  -8.955  1.00139.38     0.030 A 
HETATM    7  C13 MIQ B 502     -11.709 -15.271  -7.789  1.00141.18     0.019 A 
HETATM    8  C14 MIQ B 502     -10.787 -15.390  -6.627  1.00138.77     0.033 A 
HETATM    9  C15 MIQ B 502     -10.704 -14.720  -5.217  1.00142.10     0.195 A 
HETATM   10  N17 MIQ B 502      -9.644 -15.245  -4.625  1.00139.42    -0.288 N 
HETATM   11  O16 MIQ B 502     -11.573 -13.760  -4.695  1.00148.93    -0.171 OA
ENDROOT
BRANCH  10  12
HETATM   12  C18 MIQ B 502      -9.244 -14.841  -3.289  1.00139.82     0.187 C 
HETATM   13  C19 MIQ B 502      -7.737 -14.559  -3.317  1.00140.06     0.247 C 
HETATM   14  O25 MIQ B 502      -7.301 -13.840  -4.144  1.00143.95    -0.271 OA
HETATM   15  N20 MIQ B 502      -6.832 -15.148  -2.352  1.00140.02    -0.296 N 
HETATM   16  H13 MIQ B 502      -5.849 -14.961  -2.385  1.00142.77     0.171 HD
HETATM   17  C21 MIQ B 502      -7.386 -16.032  -1.359  1.00142.22     0.224 C 
HETATM   18  C22 MIQ B 502      -8.572 -16.876  -1.785  1.00139.52     0.106 C 
HETATM   19  O24 MIQ B 502      -6.941 -16.090  -0.266  1.00146.13    -0.273 OA
HETATM   20  C23 MIQ B 502      -9.637 -15.910  -2.271  1.00139.15     0.045 C 
ENDBRANCH  10  12
BRANCH   5  21
HETATM   21  N6  MIQ B 502     -10.122 -17.769 -10.202  1.00140.95    -0.377 N 
HETATM   22  C7  MIQ B 502      -9.231 -18.912 -10.103  1.00142.12     0.149 C 
HETATM   23  C8  MIQ B 502      -8.575 -19.238 -11.439  1.00144.10     0.187 C 
HETATM   24  O9  MIQ B 502      -9.486 -19.281 -12.496  1.00148.65    -0.388 OA
HETATM   25  C10 MIQ B 502     -10.797 -18.832 -12.319  1.00147.44     0.187 C 
HETATM   26  C11 MIQ B 502     -11.056 -17.715 -11.313  1.00144.08     0.149 C 
ENDBRANCH   5  21
TORSDOF 2
ENDMDL
MODEL 5
REMARK VINA RESULT:      -7.1      4.507      8.448
REMARK  2 active torsions:
REMARK  status: ('A' for Active; 'I' for Inactive)
REMARK    1  A    between atoms: C5_5  and  N6_21 
REMARK    2  A    between atoms: C18_14  and  N17_19 
ROOT
HETATM    1  O1  MIQ B 502     -12.703 -20.120  -3.734  1.00142.91    -0.171 OA
HETATM    2  C2  MIQ B 502     -11.836 -19.854  -4.796  1.00141.17     0.195 A 
HETATM    3  C3  MIQ B 502     -10.541 -18.983  -4.734  1.00141.71     0.035 A 
HETATM    4  C4  MIQ B 502      -9.870 -18.231  -3.647  1.00142.86     0.046 A 
HETATM    5  C5  MIQ B 502      -8.673 -17.516  -3.903  1.00139.53     0.031 A 
HETATM    6  C12 MIQ B 502      -8.100 -17.522  -5.241  1.00139.38     0.030 A 
HETATM    7  C13 MIQ B 502      -8.742 -18.244  -6.283  1.00141.18     0.019 A 
HETATM    8  C14 MIQ B 502      -9.998 -18.994  -6.008  1.00138.77     0.033 A 
HETATM    9  C15 MIQ B 502     -10.961 -19.879  -6.866  1.00142.10     0.195 A 
HETATM   10  N17 MIQ B 502     -11.919 -20.276  -6.046  1.00139.42    -0.288 N 
HETATM   11  O16 MIQ B 502     -10.831 -20.181  -8.223  1.00148.93    -0.171 OA
ENDROOT
BRANCH  10  12
HETATM   12  C18 MIQ B 502     -13.012 -21.112  -6.507  1.00139.82     0.187 C 
HETATM   13  C19 MIQ B 502     -14.325 -20.426  -6.111  1.00140.06     0.247 C 
HETATM   14  O25 MIQ B 502     -14.490 -19.292  -6.392  1.00143.95    -0.271 OA
HETATM   15  N20 MIQ B 502     -15.374 -21.134  -5.407  1.00140.02    -0.296 N 
HETATM   16  H13 MIQ B 502     -16.224 -20.673  -5.148  1.00142.77     0.171 HD
HETATM   17  C21 MIQ B 502     -15.146 -22.514  -5.066  1.00142.22     0.224 C 
HETATM   18  C22 MIQ B 502     -13.719 -22.907  -4.736  1.00139.52     0.106 C 
HETATM   19  O24 MIQ B 502     -16.028 -23.301  -5.050  1.00146.13    -0.273 OA
HETATM   20  C23 MIQ B 502     -12.877 -22.525  -5.940  1.00139.15     0.045 C 
ENDBRANCH  10  12
BRANCH   5  21
HETATM   21  N6  MIQ B 502      -8.034 -16.772  -2.832  1.00140.95    -0.377 N 
HETATM   22  C7  MIQ B 502      -7.046 -15.766  -3.180  1.00142.12     0.149 C 
HETATM   23  C8  MIQ B 502      -6.039 -15.547  -2.058  1.00144.10     0.187 C 
HETATM   24  O9  MIQ B 502      -6.643 -15.384  -0.810  1.00148.65    -0.388 OA
HETATM   25  C10 MIQ B 502      -8.006 -15.643  -0.644  1.00147.44     0.187 C 
HETATM   26  C11 MIQ B 502      -8.659 -16.704  -1.523  1.00144.08     0.149 C 
ENDBRANCH   5  21
TORSDOF 2
ENDMDL
MODEL 6
REMARK VINA RESULT:      -7.1      4.697      6.782
REMARK  2 active torsions:
REMARK  status: ('A' for Active; 'I' for Inactive)
REMARK    1  A    between atoms: C5_5  and  N6_21 
REMARK    2  A    between atoms: C18_14  and  N17_19 
ROOT
HETATM    1  O1  MIQ B 502      -9.413 -17.926  -3.175  1.00142.91    -0.171 OA
HETATM    2  C2  MIQ B 502      -9.941 -18.353  -4.395  1.00141.17     0.195 A 
HETATM    3  C3  MIQ B 502     -10.912 -19.557  -4.609  1.00141.71     0.035 A 
HETATM    4  C4  MIQ B 502     -11.534 -20.540  -3.690  1.00142.86     0.046 A 
HETATM    5  C5  MIQ B 502     -12.398 -21.545  -4.194  1.00139.53     0.031 A 
HETATM    6  C12 MIQ B 502     -12.675 -21.610  -5.622  1.00139.38     0.030 A 
HETATM    7  C13 MIQ B 502     -12.081 -20.667  -6.502  1.00141.18     0.019 A 
HETATM    8  C14 MIQ B 502     -11.176 -19.613  -5.968  1.00138.77     0.033 A 
HETATM    9  C15 MIQ B 502     -10.365 -18.436  -6.601  1.00142.10     0.195 A 
HETATM   10  N17 MIQ B 502      -9.742 -17.840  -5.597  1.00139.42    -0.288 N 
HETATM   11  O16 MIQ B 502     -10.310 -18.090  -7.952  1.00148.93    -0.171 OA
ENDROOT
BRANCH  10  12
HETATM   12  C18 MIQ B 502      -8.871 -16.700  -5.816  1.00139.82     0.187 C 
HETATM   13  C19 MIQ B 502      -7.516 -17.015  -5.171  1.00140.06     0.247 C 
HETATM   14  O25 MIQ B 502      -6.980 -18.034  -5.426  1.00143.95    -0.271 OA
HETATM   15  N20 MIQ B 502      -6.872 -16.092  -4.258  1.00140.02    -0.296 N 
HETATM   16  H13 MIQ B 502      -5.991 -16.313  -3.839  1.00142.77     0.171 HD
HETATM   17  C21 MIQ B 502      -7.552 -14.860  -3.954  1.00142.22     0.224 C 
HETATM   18  C22 MIQ B 502      -9.067 -14.909  -3.916  1.00139.52     0.106 C 
HETATM   19  O24 MIQ B 502      -6.956 -13.860  -3.749  1.00146.13    -0.273 OA
HETATM   20  C23 MIQ B 502      -9.516 -15.427  -5.270  1.00139.15     0.045 C 
ENDBRANCH  10  12
BRANCH   5  21
HETATM   21  N6  MIQ B 502     -12.988 -22.510  -3.285  1.00140.95    -0.377 N 
HETATM   22  C7  MIQ B 502     -13.792 -22.021  -2.178  1.00142.12     0.149 C 
HETATM   23  C8  MIQ B 502     -13.795 -22.992  -1.004  1.00144.10     0.187 C 
HETATM   24  O9  MIQ B 502     -14.050 -24.310  -1.390  1.00148.65    -0.388 OA
HETATM   25  C10 MIQ B 502     -14.055 -24.663  -2.742  1.00147.44     0.187 C 
HETATM   26  C11 MIQ B 502     -13.154 -23.892  -3.701  1.00144.08     0.149 C 
ENDBRANCH   5  21
TORSDOF 2
ENDMDL
MODEL 7
REMARK VINA RESULT:      -7.1      1.705      2.173
REMARK  2 active torsions:
REMARK  status: ('A' for Active; 'I' for Inactive)
REMARK    1  A    between atoms: C5_5  and  N6_21 
REMARK    2  A    between atoms: C18_14  and  N17_19 
ROOT
HETATM    1  O1  MIQ B 502      -7.680 -15.647  -6.519  1.00142.91    -0.171 OA
HETATM    2  C2  MIQ B 502      -8.928 -16.263  -6.406  1.00141.17     0.195 A 
HETATM    3  C3  MIQ B 502      -9.791 -16.820  -7.582  1.00141.71     0.035 A 
HETATM    4  C4  MIQ B 502      -9.596 -16.879  -9.050  1.00142.86     0.046 A 
HETATM    5  C5  MIQ B 502     -10.585 -17.464  -9.881  1.00139.53     0.031 A 
HETATM    6  C12 MIQ B 502     -11.797 -18.010  -9.288  1.00139.38     0.030 A 
HETATM    7  C13 MIQ B 502     -11.984 -17.955  -7.881  1.00141.18     0.019 A 
HETATM    8  C14 MIQ B 502     -10.942 -17.341  -7.013  1.00138.77     0.033 A 
HETATM    9  C15 MIQ B 502     -10.792 -17.107  -5.474  1.00142.10     0.195 A 
HETATM   10  N17 MIQ B 502      -9.625 -16.504  -5.309  1.00139.42    -0.288 N 
HETATM   11  O16 MIQ B 502     -11.707 -17.461  -4.481  1.00148.93    -0.171 OA
ENDROOT
BRANCH  10  12
HETATM   12  C18 MIQ B 502      -9.155 -16.114  -3.993  1.00139.82     0.187 C 
HETATM   13  C19 MIQ B 502      -8.768 -14.631  -4.055  1.00140.06     0.247 C 
HETATM   14  O25 MIQ B 502      -9.538 -13.854  -4.496  1.00143.95    -0.271 OA
HETATM   15  N20 MIQ B 502      -7.484 -14.156  -3.582  1.00140.02    -0.296 N 
HETATM   16  H13 MIQ B 502      -7.241 -13.186  -3.634  1.00142.77     0.171 HD
HETATM   17  C21 MIQ B 502      -6.557 -15.126  -3.058  1.00142.22     0.224 C 
HETATM   18  C22 MIQ B 502      -6.583 -16.504  -3.691  1.00139.52     0.106 C 
HETATM   19  O24 MIQ B 502      -5.819 -14.860  -2.174  1.00146.13    -0.273 OA
HETATM   20  C23 MIQ B 502      -8.004 -17.017  -3.550  1.00139.15     0.045 C 
ENDBRANCH  10  12
BRANCH   5  21
HETATM   21  N6  MIQ B 502     -10.387 -17.502 -11.319  1.00140.95    -0.377 N 
HETATM   22  C7  MIQ B 502     -10.015 -18.764 -11.936  1.00142.12     0.149 C 
HETATM   23  C8  MIQ B 502      -9.240 -18.556 -13.231  1.00144.10     0.187 C 
HETATM   24  O9  MIQ B 502      -9.844 -17.630 -14.084  1.00148.65    -0.388 OA
HETATM   25  C10 MIQ B 502     -10.908 -16.845 -13.635  1.00147.44     0.187 C 
HETATM   26  C11 MIQ B 502     -10.964 -16.467 -12.158  1.00144.08     0.149 C 
ENDBRANCH   5  21
TORSDOF 2
ENDMDL
MODEL 8
REMARK VINA RESULT:      -7.0     13.442     14.610
REMARK  2 active torsions:
REMARK  status: ('A' for Active; 'I' for Inactive)
REMARK    1  A    between atoms: C5_5  and  N6_21 
REMARK    2  A    between atoms: C18_14  and  N17_19 
ROOT
HETATM    1  O1  MIQ B 502       3.846 -13.883  -9.926  1.00142.91    -0.171 OA
HETATM    2  C2  MIQ B 502       3.418 -15.189  -9.675  1.00141.17     0.195 A 
HETATM    3  C3  MIQ B 502       4.289 -16.481  -9.777  1.00141.71     0.035 A 
HETATM    4  C4  MIQ B 502       5.707 -16.728 -10.132  1.00142.86     0.046 A 
HETATM    5  C5  MIQ B 502       6.225 -18.048 -10.135  1.00139.53     0.031 A 
HETATM    6  C12 MIQ B 502       5.359 -19.165  -9.787  1.00139.38     0.030 A 
HETATM    7  C13 MIQ B 502       4.000 -18.928  -9.446  1.00141.18     0.019 A 
HETATM    8  C14 MIQ B 502       3.462 -17.540  -9.442  1.00138.77     0.033 A 
HETATM    9  C15 MIQ B 502       2.069 -16.902  -9.129  1.00142.10     0.195 A 
HETATM   10  N17 MIQ B 502       2.218 -15.599  -9.303  1.00139.42    -0.288 N 
HETATM   11  O16 MIQ B 502       0.908 -17.576  -8.748  1.00148.93    -0.171 OA
ENDROOT
BRANCH  10  12
HETATM   12  C18 MIQ B 502       1.111 -14.680  -9.113  1.00139.82     0.187 C 
HETATM   13  C19 MIQ B 502       0.995 -13.821 -10.379  1.00140.06     0.247 C 
HETATM   14  O25 MIQ B 502       0.952 -14.350 -11.432  1.00143.95    -0.271 OA
HETATM   15  N20 MIQ B 502       0.931 -12.375 -10.317  1.00140.02    -0.296 N 
HETATM   16  H13 MIQ B 502       0.862 -11.825 -11.151  1.00142.77     0.171 HD
HETATM   17  C21 MIQ B 502       0.995 -11.751  -9.020  1.00142.22     0.224 C 
HETATM   18  C22 MIQ B 502       1.852 -12.440  -7.975  1.00139.52     0.106 C 
HETATM   19  O24 MIQ B 502       0.405 -10.755  -8.783  1.00146.13    -0.273 OA
HETATM   20  C23 MIQ B 502       1.317 -13.855  -7.844  1.00139.15     0.045 C 
ENDBRANCH  10  12
BRANCH   5  21
HETATM   21  N6  MIQ B 502       7.612 -18.277 -10.498  1.00140.95    -0.377 N 
HETATM   22  C7  MIQ B 502       8.568 -17.201 -10.304  1.00142.12     0.149 C 
HETATM   23  C8  MIQ B 502       9.746 -17.306 -11.264  1.00144.10     0.187 C 
HETATM   24  O9  MIQ B 502      10.294 -18.589 -11.313  1.00148.65    -0.388 OA
HETATM   25  C10 MIQ B 502       9.638 -19.663 -10.705  1.00147.44     0.187 C 
HETATM   26  C11 MIQ B 502       8.115 -19.634 -10.621  1.00144.08     0.149 C 
ENDBRANCH   5  21
TORSDOF 2
ENDMDL
MODEL 9
REMARK VINA RESULT:      -7.0      3.988      4.963
REMARK  2 active torsions:
REMARK  status: ('A' for Active; 'I' for Inactive)
REMARK    1  A    between atoms: C5_5  and  N6_21 
REMARK    2  A    between atoms: C18_14  and  N17_19 
ROOT
HETATM    1  O1  MIQ B 502      -9.885 -14.728  -4.208  1.00142.91    -0.171 OA
HETATM    2  C2  MIQ B 502     -10.024 -15.536  -5.339  1.00141.17     0.195 A 
HETATM    3  C3  MIQ B 502     -11.116 -15.392  -6.446  1.00141.71     0.035 A 
HETATM    4  C4  MIQ B 502     -12.245 -14.452  -6.648  1.00142.86     0.046 A 
HETATM    5  C5  MIQ B 502     -13.086 -14.576  -7.783  1.00139.53     0.031 A 
HETATM    6  C12 MIQ B 502     -12.838 -15.632  -8.754  1.00139.38     0.030 A 
HETATM    7  C13 MIQ B 502     -11.756 -16.532  -8.561  1.00141.18     0.019 A 
HETATM    8  C14 MIQ B 502     -10.875 -16.396  -7.369  1.00138.77     0.033 A 
HETATM    9  C15 MIQ B 502      -9.625 -17.167  -6.832  1.00142.10     0.195 A 
HETATM   10  N17 MIQ B 502      -9.279 -16.564  -5.707  1.00139.42    -0.288 N 
HETATM   11  O16 MIQ B 502      -9.006 -18.270  -7.423  1.00148.93    -0.171 OA
ENDROOT
BRANCH  10  12
HETATM   12  C18 MIQ B 502      -8.154 -17.025  -4.915  1.00139.82     0.187 C 
HETATM   13  C19 MIQ B 502      -8.667 -17.316  -3.499  1.00140.06     0.247 C 
HETATM   14  O25 MIQ B 502      -9.615 -18.005  -3.361  1.00143.95    -0.271 OA
HETATM   15  N20 MIQ B 502      -8.016 -16.774  -2.324  1.00140.02    -0.296 N 
HETATM   16  H13 MIQ B 502      -8.365 -16.967  -1.406  1.00142.77     0.171 HD
HETATM   17  C21 MIQ B 502      -6.867 -15.928  -2.520  1.00142.22     0.224 C 
HETATM   18  C22 MIQ B 502      -6.865 -15.059  -3.762  1.00139.52     0.106 C 
HETATM   19  O24 MIQ B 502      -5.969 -15.918  -1.752  1.00146.13    -0.273 OA
HETATM   20  C23 MIQ B 502      -7.025 -15.996  -4.945  1.00139.15     0.045 C 
ENDBRANCH  10  12
BRANCH   5  21
HETATM   21  N6  MIQ B 502     -14.196 -13.658  -7.961  1.00140.95    -0.377 N 
HETATM   22  C7  MIQ B 502     -15.240 -13.627  -6.951  1.00142.12     0.149 C 
HETATM   23  C8  MIQ B 502     -16.573 -13.164  -7.525  1.00144.10     0.187 C 
HETATM   24  O9  MIQ B 502     -16.459 -12.010  -8.302  1.00148.65    -0.388 OA
HETATM   25  C10 MIQ B 502     -15.201 -11.523  -8.665  1.00147.44     0.187 C 
HETATM   26  C11 MIQ B 502     -14.059 -12.516  -8.848  1.00144.08     0.149 C 
ENDBRANCH   5  21
TORSDOF 2
ENDMDL
