MODEL 1
REMARK VINA RESULT:      -6.6      0.000      0.000
REMARK  2 active torsions:
REMARK  status: ('A' for Active; 'I' for Inactive)
REMARK    1  A    between atoms: C5_5  and  N6_21 
REMARK    2  A    between atoms: C18_14  and  N17_19 
ROOT
HETATM    1  O1  MIQ B 502     -17.862  12.126 -10.403  1.00142.91    -0.171 OA
HETATM    2  C2  MIQ B 502     -16.754  12.060 -11.250  1.00141.17     0.195 A 
HETATM    3  C3  MIQ B 502     -15.315  12.576 -10.927  1.00141.71     0.035 A 
HETATM    4  C4  MIQ B 502     -14.709  13.232  -9.744  1.00142.86     0.046 A 
HETATM    5  C5  MIQ B 502     -13.338  13.592  -9.748  1.00139.53     0.031 A 
HETATM    6  C12 MIQ B 502     -12.521  13.314 -10.920  1.00139.38     0.030 A 
HETATM    7  C13 MIQ B 502     -13.101  12.684 -12.054  1.00141.18     0.019 A 
HETATM    8  C14 MIQ B 502     -14.541  12.306 -12.044  1.00138.77     0.033 A 
HETATM    9  C15 MIQ B 502     -15.504  11.619 -13.066  1.00142.10     0.195 A 
HETATM   10  N17 MIQ B 502     -16.684  11.557 -12.471  1.00139.42    -0.288 N 
HETATM   11  O16 MIQ B 502     -15.180  11.166 -14.346  1.00148.93    -0.171 OA
ENDROOT
BRANCH  10  12
HETATM   12  C18 MIQ B 502     -17.840  10.986 -13.137  1.00139.82     0.187 C 
HETATM   13  C19 MIQ B 502     -19.001  11.978 -12.991  1.00140.06     0.247 C 
HETATM   14  O25 MIQ B 502     -18.835  13.107 -13.288  1.00143.95    -0.271 OA
HETATM   15  N20 MIQ B 502     -20.301  11.564 -12.504  1.00140.02    -0.296 N 
HETATM   16  H13 MIQ B 502     -21.049  12.223 -12.407  1.00142.77     0.171 HD
HETATM   17  C21 MIQ B 502     -20.476  10.182 -12.138  1.00142.22     0.224 C 
HETATM   18  C22 MIQ B 502     -19.271   9.476 -11.548  1.00139.52     0.106 C 
HETATM   19  O24 MIQ B 502     -21.507   9.627 -12.296  1.00146.13    -0.273 OA
HETATM   20  C23 MIQ B 502     -18.154   9.604 -12.567  1.00139.15     0.045 C 
ENDBRANCH  10  12
BRANCH   5  21
HETATM   21  N6  MIQ B 502     -12.762  14.247  -8.588  1.00140.95    -0.377 N 
HETATM   22  C7  MIQ B 502     -11.315  14.352  -8.497  1.00142.12     0.149 C 
HETATM   23  C8  MIQ B 502     -10.842  14.440  -7.052  1.00144.10     0.187 C 
HETATM   24  O9  MIQ B 502     -11.556  15.375  -6.301  1.00148.65    -0.388 OA
HETATM   25  C10 MIQ B 502     -12.717  15.958  -6.816  1.00147.44     0.187 C 
HETATM   26  C11 MIQ B 502     -13.571  15.148  -7.786  1.00144.08     0.149 C 
ENDBRANCH   5  21
TORSDOF 2
ENDMDL
MODEL 2
REMARK VINA RESULT:      -6.6      3.108      8.436
REMARK  2 active torsions:
REMARK  status: ('A' for Active; 'I' for Inactive)
REMARK    1  A    between atoms: C5_5  and  N6_21 
REMARK    2  A    between atoms: C18_14  and  N17_19 
ROOT
HETATM    1  O1  MIQ B 502     -15.471  11.111 -12.542  1.00142.91    -0.171 OA
HETATM    2  C2  MIQ B 502     -16.824  11.232 -12.220  1.00141.17     0.195 A 
HETATM    3  C3  MIQ B 502     -17.926  10.147 -12.446  1.00141.71     0.035 A 
HETATM    4  C4  MIQ B 502     -17.907   8.777 -13.011  1.00142.86     0.046 A 
HETATM    5  C5  MIQ B 502     -19.100   8.015 -13.085  1.00139.53     0.031 A 
HETATM    6  C12 MIQ B 502     -20.351   8.583 -12.601  1.00139.38     0.030 A 
HETATM    7  C13 MIQ B 502     -20.369   9.896 -12.059  1.00141.18     0.019 A 
HETATM    8  C14 MIQ B 502     -19.113  10.691 -11.982  1.00138.77     0.033 A 
HETATM    9  C15 MIQ B 502     -18.746  12.120 -11.464  1.00142.10     0.195 A 
HETATM   10  N17 MIQ B 502     -17.446  12.259 -11.667  1.00139.42    -0.288 N 
HETATM   11  O16 MIQ B 502     -19.618  13.056 -10.906  1.00148.93    -0.171 OA
ENDROOT
BRANCH  10  12
HETATM   12  C18 MIQ B 502     -16.752  13.484 -11.317  1.00139.82     0.187 C 
HETATM   13  C19 MIQ B 502     -16.022  13.982 -12.570  1.00140.06     0.247 C 
HETATM   14  O25 MIQ B 502     -16.620  14.089 -13.581  1.00143.95    -0.271 OA
HETATM   15  N20 MIQ B 502     -14.616  14.332 -12.546  1.00140.02    -0.296 N 
HETATM   16  H13 MIQ B 502     -14.149  14.650 -13.373  1.00142.77     0.171 HD
HETATM   17  C21 MIQ B 502     -13.905  14.184 -11.303  1.00142.22     0.224 C 
HETATM   18  C22 MIQ B 502     -14.338  13.043 -10.402  1.00139.52     0.106 C 
HETATM   19  O24 MIQ B 502     -13.031  14.919 -10.999  1.00146.13    -0.273 OA
HETATM   20  C23 MIQ B 502     -15.818  13.245 -10.131  1.00139.15     0.045 C 
ENDBRANCH  10  12
BRANCH   5  21
HETATM   21  N6  MIQ B 502     -19.069   6.681 -13.654  1.00140.95    -0.377 N 
HETATM   22  C7  MIQ B 502     -17.966   5.802 -13.305  1.00142.12     0.149 C 
HETATM   23  C8  MIQ B 502     -17.697   4.768 -14.391  1.00144.10     0.187 C 
HETATM   24  O9  MIQ B 502     -18.857   4.125 -14.829  1.00148.65    -0.388 OA
HETATM   25  C10 MIQ B 502     -20.115   4.594 -14.441  1.00147.44     0.187 C 
HETATM   26  C11 MIQ B 502     -20.287   6.086 -14.176  1.00144.08     0.149 C 
ENDBRANCH   5  21
TORSDOF 2
ENDMDL
MODEL 3
REMARK VINA RESULT:      -6.5      1.159      1.239
REMARK  2 active torsions:
REMARK  status: ('A' for Active; 'I' for Inactive)
REMARK    1  A    between atoms: C5_5  and  N6_21 
REMARK    2  A    between atoms: C18_14  and  N17_19 
ROOT
HETATM    1  O1  MIQ B 502     -17.982  13.345 -10.608  1.00142.91    -0.171 OA
HETATM    2  C2  MIQ B 502     -16.759  12.844 -11.057  1.00141.17     0.195 A 
HETATM    3  C3  MIQ B 502     -15.353  13.168 -10.457  1.00141.71     0.035 A 
HETATM    4  C4  MIQ B 502     -14.897  14.019  -9.333  1.00142.86     0.046 A 
HETATM    5  C5  MIQ B 502     -13.517  14.114  -9.020  1.00139.53     0.031 A 
HETATM    6  C12 MIQ B 502     -12.545  13.369  -9.807  1.00139.38     0.030 A 
HETATM    7  C13 MIQ B 502     -12.982  12.552 -10.884  1.00141.18     0.019 A 
HETATM    8  C14 MIQ B 502     -14.432  12.455 -11.207  1.00138.77     0.033 A 
HETATM    9  C15 MIQ B 502     -15.270  11.683 -12.278  1.00142.10     0.195 A 
HETATM   10  N17 MIQ B 502     -16.534  12.006 -12.054  1.00139.42    -0.288 N 
HETATM   11  O16 MIQ B 502     -14.779  10.831 -13.268  1.00148.93    -0.171 OA
ENDROOT
BRANCH  10  12
HETATM   12  C18 MIQ B 502     -17.606  11.481 -12.878  1.00139.82     0.187 C 
HETATM   13  C19 MIQ B 502     -18.381  12.673 -13.453  1.00140.06     0.247 C 
HETATM   14  O25 MIQ B 502     -17.789  13.535 -13.998  1.00143.95    -0.271 OA
HETATM   15  N20 MIQ B 502     -19.823  12.768 -13.351  1.00140.02    -0.296 N 
HETATM   16  H13 MIQ B 502     -20.316  13.554 -13.725  1.00142.77     0.171 HD
HETATM   17  C21 MIQ B 502     -20.522  11.707 -12.672  1.00142.22     0.224 C 
HETATM   18  C22 MIQ B 502     -19.799  11.047 -11.514  1.00139.52     0.106 C 
HETATM   19  O24 MIQ B 502     -21.603  11.367 -13.006  1.00146.13    -0.273 OA
HETATM   20  C23 MIQ B 502     -18.483  10.529 -12.066  1.00139.15     0.045 C 
ENDBRANCH  10  12
BRANCH   5  21
HETATM   21  N6  MIQ B 502     -13.083  14.963  -7.926  1.00140.95    -0.377 N 
HETATM   22  C7  MIQ B 502     -11.980  14.514  -7.094  1.00142.12     0.149 C 
HETATM   23  C8  MIQ B 502     -12.048  15.106  -5.691  1.00144.10     0.187 C 
HETATM   24  O9  MIQ B 502     -12.272  16.484  -5.693  1.00148.65    -0.388 OA
HETATM   25  C10 MIQ B 502     -12.622  17.143  -6.875  1.00147.44     0.187 C 
HETATM   26  C11 MIQ B 502     -13.414  16.377  -7.929  1.00144.08     0.149 C 
ENDBRANCH   5  21
TORSDOF 2
ENDMDL
MODEL 4
REMARK VINA RESULT:      -6.4      2.168      8.246
REMARK  2 active torsions:
REMARK  status: ('A' for Active; 'I' for Inactive)
REMARK    1  A    between atoms: C5_5  and  N6_21 
REMARK    2  A    between atoms: C18_14  and  N17_19 
ROOT
HETATM    1  O1  MIQ B 502     -15.879  16.340  -8.572  1.00142.91    -0.171 OA
HETATM    2  C2  MIQ B 502     -15.187  15.267  -9.137  1.00141.17     0.195 A 
HETATM    3  C3  MIQ B 502     -15.790  14.172 -10.074  1.00141.71     0.035 A 
HETATM    4  C4  MIQ B 502     -17.147  13.933 -10.620  1.00142.86     0.046 A 
HETATM    5  C5  MIQ B 502     -17.393  12.824 -11.469  1.00139.53     0.031 A 
HETATM    6  C12 MIQ B 502     -16.305  11.917 -11.806  1.00139.38     0.030 A 
HETATM    7  C13 MIQ B 502     -15.004  12.146 -11.283  1.00141.18     0.019 A 
HETATM    8  C14 MIQ B 502     -14.751  13.313 -10.394  1.00138.77     0.033 A 
HETATM    9  C15 MIQ B 502     -13.496  13.879  -9.653  1.00142.10     0.195 A 
HETATM   10  N17 MIQ B 502     -13.908  14.958  -9.008  1.00139.42    -0.288 N 
HETATM   11  O16 MIQ B 502     -12.206  13.347  -9.669  1.00148.93    -0.171 OA
ENDROOT
BRANCH  10  12
HETATM   12  C18 MIQ B 502     -13.003  15.743  -8.189  1.00139.82     0.187 C 
HETATM   13  C19 MIQ B 502     -11.762  16.057  -9.033  1.00140.06     0.247 C 
HETATM   14  O25 MIQ B 502     -11.899  16.524 -10.108  1.00143.95    -0.271 OA
HETATM   15  N20 MIQ B 502     -10.422  15.803  -8.545  1.00140.02    -0.296 N 
HETATM   16  H13 MIQ B 502      -9.620  16.007  -9.109  1.00142.77     0.171 HD
HETATM   17  C21 MIQ B 502     -10.280  15.224  -7.234  1.00142.22     0.224 C 
HETATM   18  C22 MIQ B 502     -11.360  14.252  -6.799  1.00139.52     0.106 C 
HETATM   19  O24 MIQ B 502      -9.370  15.498  -6.533  1.00146.13    -0.273 OA
HETATM   20  C23 MIQ B 502     -12.677  14.999  -6.895  1.00139.15     0.045 C 
ENDBRANCH  10  12
BRANCH   5  21
HETATM   21  N6  MIQ B 502     -18.730  12.593 -11.985  1.00140.95    -0.377 N 
HETATM   22  C7  MIQ B 502     -19.386  11.335 -11.675  1.00142.12     0.149 C 
HETATM   23  C8  MIQ B 502     -20.413  10.953 -12.733  1.00144.10     0.187 C 
HETATM   24  O9  MIQ B 502     -21.267  12.006 -13.067  1.00148.65    -0.388 OA
HETATM   25  C10 MIQ B 502     -21.003  13.302 -12.616  1.00147.44     0.187 C 
HETATM   26  C11 MIQ B 502     -19.551  13.717 -12.401  1.00144.08     0.149 C 
ENDBRANCH   5  21
TORSDOF 2
ENDMDL
MODEL 5
REMARK VINA RESULT:      -6.3     11.317     14.533
REMARK  2 active torsions:
REMARK  status: ('A' for Active; 'I' for Inactive)
REMARK    1  A    between atoms: C5_5  and  N6_21 
REMARK    2  A    between atoms: C18_14  and  N17_19 
ROOT
HETATM    1  O1  MIQ B 502     -20.888  12.006   1.294  1.00142.91    -0.171 OA
HETATM    2  C2  MIQ B 502     -20.664  13.280   0.767  1.00141.17     0.195 A 
HETATM    3  C3  MIQ B 502     -21.476  13.959  -0.382  1.00141.71     0.035 A 
HETATM    4  C4  MIQ B 502     -22.632  13.529  -1.205  1.00142.86     0.046 A 
HETATM    5  C5  MIQ B 502     -23.164  14.389  -2.197  1.00139.53     0.031 A 
HETATM    6  C12 MIQ B 502     -22.573  15.703  -2.408  1.00139.38     0.030 A 
HETATM    7  C13 MIQ B 502     -21.466  16.116  -1.619  1.00141.18     0.019 A 
HETATM    8  C14 MIQ B 502     -20.912  15.209  -0.576  1.00138.77     0.033 A 
HETATM    9  C15 MIQ B 502     -19.743  15.307   0.458  1.00142.10     0.195 A 
HETATM   10  N17 MIQ B 502     -19.745  14.162   1.120  1.00139.42    -0.288 N 
HETATM   11  O16 MIQ B 502     -18.876  16.385   0.639  1.00148.93    -0.171 OA
ENDROOT
BRANCH  10  12
HETATM   12  C18 MIQ B 502     -18.773  13.888   2.162  1.00139.82     0.187 C 
HETATM   13  C19 MIQ B 502     -18.868  15.016   3.198  1.00140.06     0.247 C 
HETATM   14  O25 MIQ B 502     -19.923  15.301   3.643  1.00143.95    -0.271 OA
HETATM   15  N20 MIQ B 502     -17.697  15.738   3.651  1.00140.02    -0.296 N 
HETATM   16  H13 MIQ B 502     -17.773  16.476   4.322  1.00142.77     0.171 HD
HETATM   17  C21 MIQ B 502     -16.422  15.378   3.085  1.00142.22     0.224 C 
HETATM   18  C22 MIQ B 502     -16.423  14.920   1.639  1.00139.52     0.106 C 
HETATM   19  O24 MIQ B 502     -15.427  15.433   3.720  1.00146.13    -0.273 OA
HETATM   20  C23 MIQ B 502     -17.376  13.741   1.561  1.00139.15     0.045 C 
ENDBRANCH  10  12
BRANCH   5  21
HETATM   21  N6  MIQ B 502     -24.287  13.950  -3.006  1.00140.95    -0.377 N 
HETATM   22  C7  MIQ B 502     -24.340  12.559  -3.423  1.00142.12     0.149 C 
HETATM   23  C8  MIQ B 502     -25.128  12.382  -4.714  1.00144.10     0.187 C 
HETATM   24  O9  MIQ B 502     -26.356  13.047  -4.697  1.00148.65    -0.388 OA
HETATM   25  C10 MIQ B 502     -26.658  13.949  -3.673  1.00147.44     0.187 C 
HETATM   26  C11 MIQ B 502     -25.516  14.723  -3.022  1.00144.08     0.149 C 
ENDBRANCH   5  21
TORSDOF 2
ENDMDL
MODEL 6
REMARK VINA RESULT:      -6.3      2.334      8.196
REMARK  2 active torsions:
REMARK  status: ('A' for Active; 'I' for Inactive)
REMARK    1  A    between atoms: C5_5  and  N6_21 
REMARK    2  A    between atoms: C18_14  and  N17_19 
ROOT
HETATM    1  O1  MIQ B 502     -13.693  12.888 -10.042  1.00142.91    -0.171 OA
HETATM    2  C2  MIQ B 502     -14.810  13.726 -10.021  1.00141.17     0.195 A 
HETATM    3  C3  MIQ B 502     -16.255  13.349 -10.481  1.00141.71     0.035 A 
HETATM    4  C4  MIQ B 502     -16.859  12.112 -11.029  1.00142.86     0.046 A 
HETATM    5  C5  MIQ B 502     -18.237  12.073 -11.360  1.00139.53     0.031 A 
HETATM    6  C12 MIQ B 502     -19.062  13.256 -11.159  1.00139.38     0.030 A 
HETATM    7  C13 MIQ B 502     -18.484  14.442 -10.632  1.00141.18     0.019 A 
HETATM    8  C14 MIQ B 502     -17.037  14.476 -10.284  1.00138.77     0.033 A 
HETATM    9  C15 MIQ B 502     -16.072  15.558  -9.699  1.00142.10     0.195 A 
HETATM   10  N17 MIQ B 502     -14.884  14.982  -9.615  1.00139.42    -0.288 N 
HETATM   11  O16 MIQ B 502     -16.402  16.867  -9.342  1.00148.93    -0.171 OA
ENDROOT
BRANCH  10  12
HETATM   12  C18 MIQ B 502     -13.726  15.703  -9.122  1.00139.82     0.187 C 
HETATM   13  C19 MIQ B 502     -12.593  15.519 -10.138  1.00140.06     0.247 C 
HETATM   14  O25 MIQ B 502     -12.799  15.743 -11.278  1.00143.95    -0.271 OA
HETATM   15  N20 MIQ B 502     -11.271  15.081  -9.738  1.00140.02    -0.296 N 
HETATM   16  H13 MIQ B 502     -10.542  14.958 -10.412  1.00142.77     0.171 HD
HETATM   17  C21 MIQ B 502     -11.046  14.803  -8.343  1.00142.22     0.224 C 
HETATM   18  C22 MIQ B 502     -12.217  14.234  -7.564  1.00139.52     0.106 C 
HETATM   19  O24 MIQ B 502     -10.002  15.013  -7.831  1.00146.13    -0.273 OA
HETATM   20  C23 MIQ B 502     -13.358  15.223  -7.718  1.00139.15     0.045 C 
ENDBRANCH  10  12
BRANCH   5  21
HETATM   21  N6  MIQ B 502     -18.813  10.859 -11.910  1.00140.95    -0.377 N 
HETATM   22  C7  MIQ B 502     -20.234  10.838 -12.210  1.00142.12     0.149 C 
HETATM   23  C8  MIQ B 502     -20.808   9.429 -12.147  1.00144.10     0.187 C 
HETATM   24  O9  MIQ B 502     -20.037   8.497 -12.845  1.00148.65    -0.388 OA
HETATM   25  C10 MIQ B 502     -18.771   8.842 -13.323  1.00147.44     0.187 C 
HETATM   26  C11 MIQ B 502     -17.957   9.877 -12.552  1.00144.08     0.149 C 
ENDBRANCH   5  21
TORSDOF 2
ENDMDL
MODEL 7
REMARK VINA RESULT:      -6.2      4.023      8.348
REMARK  2 active torsions:
REMARK  status: ('A' for Active; 'I' for Inactive)
REMARK    1  A    between atoms: C5_5  and  N6_21 
REMARK    2  A    between atoms: C18_14  and  N17_19 
ROOT
HETATM    1  O1  MIQ B 502     -15.720  11.231 -13.300  1.00142.91    -0.171 OA
HETATM    2  C2  MIQ B 502     -17.025  10.934 -12.901  1.00141.17     0.195 A 
HETATM    3  C3  MIQ B 502     -17.772   9.580 -13.122  1.00141.71     0.035 A 
HETATM    4  C4  MIQ B 502     -17.388   8.297 -13.757  1.00142.86     0.046 A 
HETATM    5  C5  MIQ B 502     -18.308   7.218 -13.805  1.00139.53     0.031 A 
HETATM    6  C12 MIQ B 502     -19.635   7.374 -13.227  1.00139.38     0.030 A 
HETATM    7  C13 MIQ B 502     -20.003   8.604 -12.618  1.00141.18     0.019 A 
HETATM    8  C14 MIQ B 502     -19.033   9.732 -12.568  1.00138.77     0.033 A 
HETATM    9  C15 MIQ B 502     -19.068  11.188 -11.999  1.00142.10     0.195 A 
HETATM   10  N17 MIQ B 502     -17.883  11.712 -12.263  1.00139.42    -0.288 N 
HETATM   11  O16 MIQ B 502     -20.138  11.804 -11.348  1.00148.93    -0.171 OA
ENDROOT
BRANCH  10  12
HETATM   12  C18 MIQ B 502     -17.558  13.076 -11.889  1.00139.82     0.187 C 
HETATM   13  C19 MIQ B 502     -17.874  13.239 -10.397  1.00140.06     0.247 C 
HETATM   14  O25 MIQ B 502     -17.441  12.456  -9.627  1.00143.95    -0.271 OA
HETATM   15  N20 MIQ B 502     -18.685  14.333  -9.903  1.00140.02    -0.296 N 
HETATM   16  H13 MIQ B 502     -18.889  14.425  -8.928  1.00142.77     0.171 HD
HETATM   17  C21 MIQ B 502     -19.210  15.270 -10.863  1.00142.22     0.224 C 
HETATM   18  C22 MIQ B 502     -19.570  14.717 -12.228  1.00139.52     0.106 C 
HETATM   19  O24 MIQ B 502     -19.347  16.414 -10.598  1.00146.13    -0.273 OA
HETATM   20  C23 MIQ B 502     -18.313  14.065 -12.775  1.00139.15     0.045 C 
ENDBRANCH  10  12
BRANCH   5  21
HETATM   21  N6  MIQ B 502     -17.924   5.972 -14.442  1.00140.95    -0.377 N 
HETATM   22  C7  MIQ B 502     -17.227   4.973 -13.651  1.00142.12     0.149 C 
HETATM   23  C8  MIQ B 502     -16.350   4.074 -14.514  1.00144.10     0.187 C 
HETATM   24  O9  MIQ B 502     -17.015   3.586 -15.640  1.00148.65    -0.388 OA
HETATM   25  C10 MIQ B 502     -18.266   4.095 -16.000  1.00147.44     0.187 C 
HETATM   26  C11 MIQ B 502     -18.586   5.547 -15.663  1.00144.08     0.149 C 
ENDBRANCH   5  21
TORSDOF 2
ENDMDL
MODEL 8
REMARK VINA RESULT:      -6.1      1.841      2.948
REMARK  2 active torsions:
REMARK  status: ('A' for Active; 'I' for Inactive)
REMARK    1  A    between atoms: C5_5  and  N6_21 
REMARK    2  A    between atoms: C18_14  and  N17_19 
ROOT
HETATM    1  O1  MIQ B 502     -14.175  11.768 -11.800  1.00142.91    -0.171 OA
HETATM    2  C2  MIQ B 502     -14.888  12.764 -11.130  1.00141.17     0.195 A 
HETATM    3  C3  MIQ B 502     -14.302  13.792 -10.110  1.00141.71     0.035 A 
HETATM    4  C4  MIQ B 502     -12.942  14.031  -9.573  1.00142.86     0.046 A 
HETATM    5  C5  MIQ B 502     -12.714  15.069  -8.634  1.00139.53     0.031 A 
HETATM    6  C12 MIQ B 502     -13.824  15.904  -8.197  1.00139.38     0.030 A 
HETATM    7  C13 MIQ B 502     -15.128  15.675  -8.713  1.00141.18     0.019 A 
HETATM    8  C14 MIQ B 502     -15.360  14.586  -9.700  1.00138.77     0.033 A 
HETATM    9  C15 MIQ B 502     -16.611  14.049 -10.470  1.00142.10     0.195 A 
HETATM   10  N17 MIQ B 502     -16.177  13.047 -11.217  1.00139.42    -0.288 N 
HETATM   11  O16 MIQ B 502     -17.918  14.531 -10.381  1.00148.93    -0.171 OA
ENDROOT
BRANCH  10  12
HETATM   12  C18 MIQ B 502     -17.078  12.290 -12.066  1.00139.82     0.187 C 
HETATM   13  C19 MIQ B 502     -17.795  13.283 -12.989  1.00140.06     0.247 C 
HETATM   14  O25 MIQ B 502     -17.157  14.060 -13.606  1.00143.95    -0.271 OA
HETATM   15  N20 MIQ B 502     -19.237  13.290 -13.130  1.00140.02    -0.296 N 
HETATM   16  H13 MIQ B 502     -19.694  13.948 -13.731  1.00142.77     0.171 HD
HETATM   17  C21 MIQ B 502     -19.995  12.339 -12.358  1.00142.22     0.224 C 
HETATM   18  C22 MIQ B 502     -19.446  11.978 -10.991  1.00139.52     0.106 C 
HETATM   19  O24 MIQ B 502     -20.992  11.860 -12.774  1.00146.13    -0.273 OA
HETATM   20  C23 MIQ B 502     -18.037  11.459 -11.216  1.00139.15     0.045 C 
ENDBRANCH  10  12
BRANCH   5  21
HETATM   21  N6  MIQ B 502     -11.379  15.282  -8.105  1.00140.95    -0.377 N 
HETATM   22  C7  MIQ B 502     -10.798  16.610  -8.201  1.00142.12     0.149 C 
HETATM   23  C8  MIQ B 502      -9.276  16.564  -8.230  1.00144.10     0.187 C 
HETATM   24  O9  MIQ B 502      -8.738  15.748  -7.233  1.00148.65    -0.388 OA
HETATM   25  C10 MIQ B 502      -9.566  14.911  -6.480  1.00147.44     0.187 C 
HETATM   26  C11 MIQ B 502     -10.828  14.356  -7.131  1.00144.08     0.149 C 
ENDBRANCH   5  21
TORSDOF 2
ENDMDL
MODEL 9
REMARK VINA RESULT:      -6.1     10.877     12.397
REMARK  2 active torsions:
REMARK  status: ('A' for Active; 'I' for Inactive)
REMARK    1  A    between atoms: C5_5  and  N6_21 
REMARK    2  A    between atoms: C18_14  and  N17_19 
ROOT
HETATM    1  O1  MIQ B 502     -22.485  13.981  -3.250  1.00142.91    -0.171 OA
HETATM    2  C2  MIQ B 502     -23.027  13.779  -1.979  1.00141.17     0.195 A 
HETATM    3  C3  MIQ B 502     -22.262  13.888  -0.621  1.00141.71     0.035 A 
HETATM    4  C4  MIQ B 502     -20.859  14.209  -0.266  1.00142.86     0.046 A 
HETATM    5  C5  MIQ B 502     -20.452  14.232   1.092  1.00139.53     0.031 A 
HETATM    6  C12 MIQ B 502     -21.417  13.939   2.142  1.00139.38     0.030 A 
HETATM    7  C13 MIQ B 502     -22.762  13.632   1.801  1.00141.18     0.019 A 
HETATM    8  C14 MIQ B 502     -23.185  13.611   0.374  1.00138.77     0.033 A 
HETATM    9  C15 MIQ B 502     -24.531  13.330  -0.370  1.00142.10     0.195 A 
HETATM   10  N17 MIQ B 502     -24.271  13.466  -1.660  1.00139.42    -0.288 N 
HETATM   11  O16 MIQ B 502     -25.755  12.999   0.214  1.00148.93    -0.171 OA
ENDROOT
BRANCH  10  12
HETATM   12  C18 MIQ B 502     -25.298  13.261  -2.665  1.00139.82     0.187 C 
HETATM   13  C19 MIQ B 502     -24.703  12.374  -3.766  1.00140.06     0.247 C 
HETATM   14  O25 MIQ B 502     -24.170  11.365  -3.468  1.00143.95    -0.271 OA
HETATM   15  N20 MIQ B 502     -24.782  12.739  -5.166  1.00140.02    -0.296 N 
HETATM   16  H13 MIQ B 502     -24.384  12.155  -5.874  1.00142.77     0.171 HD
HETATM   17  C21 MIQ B 502     -25.428  13.981  -5.504  1.00142.22     0.224 C 
HETATM   18  C22 MIQ B 502     -25.280  15.118  -4.511  1.00139.52     0.106 C 
HETATM   19  O24 MIQ B 502     -26.046  14.103  -6.504  1.00146.13    -0.273 OA
HETATM   20  C23 MIQ B 502     -25.809  14.603  -3.185  1.00139.15     0.045 C 
ENDBRANCH  10  12
BRANCH   5  21
HETATM   21  N6  MIQ B 502     -19.072  14.534   1.426  1.00140.95    -0.377 N 
HETATM   22  C7  MIQ B 502     -18.595  14.220   2.761  1.00142.12     0.149 C 
HETATM   23  C8  MIQ B 502     -17.439  15.120   3.179  1.00144.10     0.187 C 
HETATM   24  O9  MIQ B 502     -16.448  15.221   2.200  1.00148.65    -0.388 OA
HETATM   25  C10 MIQ B 502     -16.669  14.719   0.915  1.00147.44     0.187 C 
HETATM   26  C11 MIQ B 502     -18.093  14.716   0.368  1.00144.08     0.149 C 
ENDBRANCH   5  21
TORSDOF 2
ENDMDL
