MODEL 1
REMARK VINA RESULT:      -6.9      0.000      0.000
REMARK  2 active torsions:
REMARK  status: ('A' for Active; 'I' for Inactive)
REMARK    1  A    between atoms: C5_5  and  N6_21 
REMARK    2  A    between atoms: C18_14  and  N17_19 
ROOT
HETATM    1  O1  MIQ B 502      -8.700  16.822   7.427  1.00142.91    -0.171 OA
HETATM    2  C2  MIQ B 502      -8.999  16.008   6.333  1.00141.17     0.195 A 
HETATM    3  C3  MIQ B 502      -8.007  15.577   5.206  1.00141.71     0.035 A 
HETATM    4  C4  MIQ B 502      -6.574  15.854   4.949  1.00142.86     0.046 A 
HETATM    5  C5  MIQ B 502      -5.931  15.305   3.811  1.00139.53     0.031 A 
HETATM    6  C12 MIQ B 502      -6.684  14.465   2.890  1.00139.38     0.030 A 
HETATM    7  C13 MIQ B 502      -8.058  14.199   3.137  1.00141.18     0.019 A 
HETATM    8  C14 MIQ B 502      -8.727  14.775   4.335  1.00138.77     0.033 A 
HETATM    9  C15 MIQ B 502     -10.173  14.708   4.925  1.00142.10     0.195 A 
HETATM   10  N17 MIQ B 502     -10.152  15.439   6.027  1.00139.42    -0.288 N 
HETATM   11  O16 MIQ B 502     -11.262  14.017   4.391  1.00148.93    -0.171 OA
ENDROOT
BRANCH  10  12
HETATM   12  C18 MIQ B 502     -11.341  15.618   6.840  1.00139.82     0.187 C 
HETATM   13  C19 MIQ B 502     -11.914  14.228   7.144  1.00140.06     0.247 C 
HETATM   14  O25 MIQ B 502     -11.202  13.396   7.582  1.00143.95    -0.271 OA
HETATM   15  N20 MIQ B 502     -13.308  13.909   6.913  1.00140.02    -0.296 N 
HETATM   16  H13 MIQ B 502     -13.668  12.996   7.110  1.00142.77     0.171 HD
HETATM   17  C21 MIQ B 502     -14.154  14.939   6.368  1.00142.22     0.224 C 
HETATM   18  C22 MIQ B 502     -13.508  15.909   5.398  1.00139.52     0.106 C 
HETATM   19  O24 MIQ B 502     -15.294  15.025   6.667  1.00146.13    -0.273 OA
HETATM   20  C23 MIQ B 502     -12.336  16.536   6.131  1.00139.15     0.045 C 
ENDBRANCH  10  12
BRANCH   5  21
HETATM   21  N6  MIQ B 502      -4.531  15.596   3.564  1.00140.95    -0.377 N 
HETATM   22  C7  MIQ B 502      -4.195  16.739   2.731  1.00142.12     0.149 C 
HETATM   23  C8  MIQ B 502      -2.848  16.565   2.043  1.00144.10     0.187 C 
HETATM   24  O9  MIQ B 502      -1.841  16.146   2.916  1.00148.65    -0.388 OA
HETATM   25  C10 MIQ B 502      -2.157  15.725   4.210  1.00147.44     0.187 C 
HETATM   26  C11 MIQ B 502      -3.511  15.066   4.452  1.00144.08     0.149 C 
ENDBRANCH   5  21
TORSDOF 2
ENDMDL
MODEL 2
REMARK VINA RESULT:      -6.8      1.911      2.399
REMARK  2 active torsions:
REMARK  status: ('A' for Active; 'I' for Inactive)
REMARK    1  A    between atoms: C5_5  and  N6_21 
REMARK    2  A    between atoms: C18_14  and  N17_19 
ROOT
HETATM    1  O1  MIQ B 502      -8.064  17.723   7.132  1.00142.91    -0.171 OA
HETATM    2  C2  MIQ B 502      -7.863  16.752   6.148  1.00141.17     0.195 A 
HETATM    3  C3  MIQ B 502      -6.545  16.512   5.346  1.00141.71     0.035 A 
HETATM    4  C4  MIQ B 502      -5.211  17.159   5.360  1.00142.86     0.046 A 
HETATM    5  C5  MIQ B 502      -4.186  16.706   4.492  1.00139.53     0.031 A 
HETATM    6  C12 MIQ B 502      -4.446  15.599   3.582  1.00139.38     0.030 A 
HETATM    7  C13 MIQ B 502      -5.724  14.979   3.569  1.00141.18     0.019 A 
HETATM    8  C14 MIQ B 502      -6.796  15.457   4.484  1.00138.77     0.033 A 
HETATM    9  C15 MIQ B 502      -8.278  15.039   4.754  1.00142.10     0.195 A 
HETATM   10  N17 MIQ B 502      -8.720  15.851   5.700  1.00139.42    -0.288 N 
HETATM   11  O16 MIQ B 502      -8.987  14.017   4.119  1.00148.93    -0.171 OA
ENDROOT
BRANCH  10  12
HETATM   12  C18 MIQ B 502     -10.080  15.764   6.198  1.00139.82     0.187 C 
HETATM   13  C19 MIQ B 502     -10.373  14.290   6.505  1.00140.06     0.247 C 
HETATM   14  O25 MIQ B 502      -9.618  13.680   7.176  1.00143.95    -0.271 OA
HETATM   15  N20 MIQ B 502     -11.555  13.624   5.997  1.00140.02    -0.296 N 
HETATM   16  H13 MIQ B 502     -11.731  12.660   6.199  1.00142.77     0.171 HD
HETATM   17  C21 MIQ B 502     -12.456  14.386   5.171  1.00142.22     0.224 C 
HETATM   18  C22 MIQ B 502     -11.833  15.443   4.279  1.00139.52     0.106 C 
HETATM   19  O24 MIQ B 502     -13.622  14.199   5.193  1.00146.13    -0.273 OA
HETATM   20  C23 MIQ B 502     -11.055  16.373   5.192  1.00139.15     0.045 C 
ENDBRANCH  10  12
BRANCH   5  21
HETATM   21  N6  MIQ B 502      -2.889  17.358   4.506  1.00140.95    -0.377 N 
HETATM   22  C7  MIQ B 502      -1.719  16.570   4.857  1.00142.12     0.149 C 
HETATM   23  C8  MIQ B 502      -0.611  17.431   5.450  1.00144.10     0.187 C 
HETATM   24  O9  MIQ B 502      -0.354  18.580   4.699  1.00148.65    -0.388 OA
HETATM   25  C10 MIQ B 502      -1.214  18.956   3.664  1.00147.44     0.187 C 
HETATM   26  C11 MIQ B 502      -2.693  18.599   3.778  1.00144.08     0.149 C 
ENDBRANCH   5  21
TORSDOF 2
ENDMDL
MODEL 3
REMARK VINA RESULT:      -6.8      2.934      8.922
REMARK  2 active torsions:
REMARK  status: ('A' for Active; 'I' for Inactive)
REMARK    1  A    between atoms: C5_5  and  N6_21 
REMARK    2  A    between atoms: C18_14  and  N17_19 
ROOT
HETATM    1  O1  MIQ B 502      -5.255  18.897   6.866  1.00142.91    -0.171 OA
HETATM    2  C2  MIQ B 502      -4.859  18.148   5.756  1.00141.17     0.195 A 
HETATM    3  C3  MIQ B 502      -5.665  16.987   5.092  1.00141.71     0.035 A 
HETATM    4  C4  MIQ B 502      -6.978  16.362   5.381  1.00142.86     0.046 A 
HETATM    5  C5  MIQ B 502      -7.457  15.297   4.578  1.00139.53     0.031 A 
HETATM    6  C12 MIQ B 502      -6.656  14.816   3.462  1.00139.38     0.030 A 
HETATM    7  C13 MIQ B 502      -5.398  15.416   3.183  1.00141.18     0.019 A 
HETATM    8  C14 MIQ B 502      -4.900  16.535   4.029  1.00138.77     0.033 A 
HETATM    9  C15 MIQ B 502      -3.612  17.421   4.033  1.00142.10     0.195 A 
HETATM   10  N17 MIQ B 502      -3.749  18.260   5.046  1.00139.42    -0.288 N 
HETATM   11  O16 MIQ B 502      -2.537  17.336   3.146  1.00148.93    -0.171 OA
ENDROOT
BRANCH  10  12
HETATM   12  C18 MIQ B 502      -2.723  19.234   5.367  1.00139.82     0.187 C 
HETATM   13  C19 MIQ B 502      -2.434  20.045   4.097  1.00140.06     0.247 C 
HETATM   14  O25 MIQ B 502      -3.333  20.530   3.507  1.00143.95    -0.271 OA
HETATM   15  N20 MIQ B 502      -1.086  20.237   3.604  1.00140.02    -0.296 N 
HETATM   16  H13 MIQ B 502      -0.911  20.762   2.770  1.00142.77     0.171 HD
HETATM   17  C21 MIQ B 502      -0.006  19.626   4.336  1.00142.22     0.224 C 
HETATM   18  C22 MIQ B 502      -0.304  18.299   5.007  1.00139.52     0.106 C 
HETATM   19  O24 MIQ B 502       1.056  20.138   4.413  1.00146.13    -0.273 OA
HETATM   20  C23 MIQ B 502      -1.485  18.537   5.929  1.00139.15     0.045 C 
ENDBRANCH  10  12
BRANCH   5  21
HETATM   21  N6  MIQ B 502      -8.738  14.684   4.882  1.00140.95    -0.377 N 
HETATM   22  C7  MIQ B 502      -9.644  14.387   3.786  1.00142.12     0.149 C 
HETATM   23  C8  MIQ B 502     -11.099  14.376   4.237  1.00144.10     0.187 C 
HETATM   24  O9  MIQ B 502     -11.302  13.628   5.398  1.00148.65    -0.388 OA
HETATM   25  C10 MIQ B 502     -10.213  13.167   6.142  1.00147.44     0.187 C 
HETATM   26  C11 MIQ B 502      -8.928  13.989   6.143  1.00144.08     0.149 C 
ENDBRANCH   5  21
TORSDOF 2
ENDMDL
MODEL 4
REMARK VINA RESULT:      -6.8      3.021      8.920
REMARK  2 active torsions:
REMARK  status: ('A' for Active; 'I' for Inactive)
REMARK    1  A    between atoms: C5_5  and  N6_21 
REMARK    2  A    between atoms: C18_14  and  N17_19 
ROOT
HETATM    1  O1  MIQ B 502      -3.761  18.862   5.710  1.00142.91    -0.171 OA
HETATM    2  C2  MIQ B 502      -3.908  18.028   4.600  1.00141.17     0.195 A 
HETATM    3  C3  MIQ B 502      -5.029  16.960   4.390  1.00141.71     0.035 A 
HETATM    4  C4  MIQ B 502      -6.186  16.524   5.207  1.00142.86     0.046 A 
HETATM    5  C5  MIQ B 502      -7.051  15.504   4.736  1.00139.53     0.031 A 
HETATM    6  C12 MIQ B 502      -6.800  14.882   3.444  1.00139.38     0.030 A 
HETATM    7  C13 MIQ B 502      -5.691  15.301   2.660  1.00141.18     0.019 A 
HETATM    8  C14 MIQ B 502      -4.788  16.374   3.158  1.00138.77     0.033 A 
HETATM    9  C15 MIQ B 502      -3.511  17.083   2.599  1.00142.10     0.195 A 
HETATM   10  N17 MIQ B 502      -3.154  17.969   3.515  1.00139.42    -0.288 N 
HETATM   11  O16 MIQ B 502      -2.878  16.827   1.382  1.00148.93    -0.171 OA
ENDROOT
BRANCH  10  12
HETATM   12  C18 MIQ B 502      -1.985  18.810   3.340  1.00139.82     0.187 C 
HETATM   13  C19 MIQ B 502      -1.092  18.632   4.574  1.00140.06     0.247 C 
HETATM   14  O25 MIQ B 502      -0.802  17.542   4.922  1.00143.95    -0.271 OA
HETATM   15  N20 MIQ B 502      -0.587  19.765   5.322  1.00140.02    -0.296 N 
HETATM   16  H13 MIQ B 502      -0.010  19.634   6.130  1.00142.77     0.171 HD
HETATM   17  C21 MIQ B 502      -0.963  21.084   4.883  1.00142.22     0.224 C 
HETATM   18  C22 MIQ B 502      -2.343  21.231   4.272  1.00139.52     0.106 C 
HETATM   19  O24 MIQ B 502      -0.228  22.003   4.991  1.00146.13    -0.273 OA
HETATM   20  C23 MIQ B 502      -2.404  20.261   3.107  1.00139.15     0.045 C 
ENDBRANCH  10  12
BRANCH   5  21
HETATM   21  N6  MIQ B 502      -8.172  15.076   5.553  1.00140.95    -0.377 N 
HETATM   22  C7  MIQ B 502      -8.742  16.019   6.499  1.00142.12     0.149 C 
HETATM   23  C8  MIQ B 502      -9.406  15.315   7.675  1.00144.10     0.187 C 
HETATM   24  O9  MIQ B 502     -10.256  14.280   7.279  1.00148.65    -0.388 OA
HETATM   25  C10 MIQ B 502     -10.265  13.840   5.953  1.00147.44     0.187 C 
HETATM   26  C11 MIQ B 502      -8.976  13.938   5.143  1.00144.08     0.149 C 
ENDBRANCH   5  21
TORSDOF 2
ENDMDL
MODEL 5
REMARK VINA RESULT:      -6.7      2.799      9.240
REMARK  2 active torsions:
REMARK  status: ('A' for Active; 'I' for Inactive)
REMARK    1  A    between atoms: C5_5  and  N6_21 
REMARK    2  A    between atoms: C18_14  and  N17_19 
ROOT
HETATM    1  O1  MIQ B 502      -3.269  15.147   3.091  1.00142.91    -0.171 OA
HETATM    2  C2  MIQ B 502      -3.661  16.195   3.926  1.00141.17     0.195 A 
HETATM    3  C3  MIQ B 502      -5.054  16.355   4.615  1.00141.71     0.035 A 
HETATM    4  C4  MIQ B 502      -6.289  15.536   4.616  1.00142.86     0.046 A 
HETATM    5  C5  MIQ B 502      -7.423  15.951   5.360  1.00139.53     0.031 A 
HETATM    6  C12 MIQ B 502      -7.371  17.188   6.126  1.00139.38     0.030 A 
HETATM    7  C13 MIQ B 502      -6.186  17.972   6.126  1.00141.18     0.019 A 
HETATM    8  C14 MIQ B 502      -4.999  17.530   5.345  1.00138.77     0.033 A 
HETATM    9  C15 MIQ B 502      -3.563  18.104   5.109  1.00142.10     0.195 A 
HETATM   10  N17 MIQ B 502      -2.955  17.246   4.306  1.00139.42    -0.288 N 
HETATM   11  O16 MIQ B 502      -3.037  19.284   5.638  1.00148.93    -0.171 OA
ENDROOT
BRANCH  10  12
HETATM   12  C18 MIQ B 502      -1.593  17.466   3.856  1.00139.82     0.187 C 
HETATM   13  C19 MIQ B 502      -0.697  17.550   5.097  1.00140.06     0.247 C 
HETATM   14  O25 MIQ B 502      -0.759  16.698   5.911  1.00143.95    -0.271 OA
HETATM   15  N20 MIQ B 502       0.230  18.645   5.298  1.00140.02    -0.296 N 
HETATM   16  H13 MIQ B 502       0.805  18.691   6.116  1.00142.77     0.171 HD
HETATM   17  C21 MIQ B 502       0.280  19.678   4.295  1.00142.22     0.224 C 
HETATM   18  C22 MIQ B 502      -1.022  20.008   3.592  1.00139.52     0.106 C 
HETATM   19  O24 MIQ B 502       1.289  20.235   4.033  1.00146.13    -0.273 OA
HETATM   20  C23 MIQ B 502      -1.519  18.713   2.976  1.00139.15     0.045 C 
ENDBRANCH  10  12
BRANCH   5  21
HETATM   21  N6  MIQ B 502      -8.631  15.147   5.341  1.00140.95    -0.377 N 
HETATM   22  C7  MIQ B 502      -9.177  14.745   4.056  1.00142.12     0.149 C 
HETATM   23  C8  MIQ B 502     -10.680  14.506   4.126  1.00144.10     0.187 C 
HETATM   24  O9  MIQ B 502     -11.053  13.708   5.210  1.00148.65    -0.388 OA
HETATM   25  C10 MIQ B 502     -10.130  13.396   6.210  1.00147.44     0.187 C 
HETATM   26  C11 MIQ B 502      -9.025  14.401   6.523  1.00144.08     0.149 C 
ENDBRANCH   5  21
TORSDOF 2
ENDMDL
MODEL 6
REMARK VINA RESULT:      -6.6      4.067      9.918
REMARK  2 active torsions:
REMARK  status: ('A' for Active; 'I' for Inactive)
REMARK    1  A    between atoms: C5_5  and  N6_21 
REMARK    2  A    between atoms: C18_14  and  N17_19 
ROOT
HETATM    1  O1  MIQ B 502      -3.993  20.190   5.840  1.00142.91    -0.171 OA
HETATM    2  C2  MIQ B 502      -3.190  19.073   5.595  1.00141.17     0.195 A 
HETATM    3  C3  MIQ B 502      -3.689  17.649   5.192  1.00141.71     0.035 A 
HETATM    4  C4  MIQ B 502      -5.032  17.069   4.957  1.00142.86     0.046 A 
HETATM    5  C5  MIQ B 502      -5.170  15.706   4.590  1.00139.53     0.031 A 
HETATM    6  C12 MIQ B 502      -3.984  14.874   4.444  1.00139.38     0.030 A 
HETATM    7  C13 MIQ B 502      -2.696  15.430   4.669  1.00141.18     0.019 A 
HETATM    8  C14 MIQ B 502      -2.557  16.862   5.051  1.00138.77     0.033 A 
HETATM    9  C15 MIQ B 502      -1.350  17.803   5.367  1.00142.10     0.195 A 
HETATM   10  N17 MIQ B 502      -1.872  18.986   5.645  1.00139.42    -0.288 N 
HETATM   11  O16 MIQ B 502       0.003  17.458   5.359  1.00148.93    -0.171 OA
ENDROOT
BRANCH  10  12
HETATM   12  C18 MIQ B 502      -1.036  20.117   6.005  1.00139.82     0.187 C 
HETATM   13  C19 MIQ B 502       0.124  20.179   5.004  1.00140.06     0.247 C 
HETATM   14  O25 MIQ B 502      -0.111  20.156   3.848  1.00143.95    -0.271 OA
HETATM   15  N20 MIQ B 502       1.503  20.272   5.438  1.00140.02    -0.296 N 
HETATM   16  H13 MIQ B 502       2.252  20.305   4.775  1.00142.77     0.171 HD
HETATM   17  C21 MIQ B 502       1.764  20.288   6.855  1.00142.22     0.224 C 
HETATM   18  C22 MIQ B 502       0.828  19.478   7.730  1.00139.52     0.106 C 
HETATM   19  O24 MIQ B 502       2.662  20.907   7.310  1.00146.13    -0.273 OA
HETATM   20  C23 MIQ B 502      -0.573  19.995   7.456  1.00139.15     0.045 C 
ENDBRANCH  10  12
BRANCH   5  21
HETATM   21  N6  MIQ B 502      -6.492  15.147   4.378  1.00140.95    -0.377 N 
HETATM   22  C7  MIQ B 502      -7.587  15.617   5.209  1.00142.12     0.149 C 
HETATM   23  C8  MIQ B 502      -8.684  14.569   5.350  1.00144.10     0.187 C 
HETATM   24  O9  MIQ B 502      -9.061  14.009   4.128  1.00148.65    -0.388 OA
HETATM   25  C10 MIQ B 502      -8.310  14.255   2.976  1.00147.44     0.187 C 
HETATM   26  C11 MIQ B 502      -6.811  14.496   3.119  1.00144.08     0.149 C 
ENDBRANCH   5  21
TORSDOF 2
ENDMDL
MODEL 7
REMARK VINA RESULT:      -6.6      2.807      8.439
REMARK  2 active torsions:
REMARK  status: ('A' for Active; 'I' for Inactive)
REMARK    1  A    between atoms: C5_5  and  N6_21 
REMARK    2  A    between atoms: C18_14  and  N17_19 
ROOT
HETATM    1  O1  MIQ B 502      -4.579  18.050   6.291  1.00142.91    -0.171 OA
HETATM    2  C2  MIQ B 502      -4.582  17.319   5.101  1.00141.17     0.195 A 
HETATM    3  C3  MIQ B 502      -5.697  16.334   4.626  1.00141.71     0.035 A 
HETATM    4  C4  MIQ B 502      -6.986  15.895   5.212  1.00142.86     0.046 A 
HETATM    5  C5  MIQ B 502      -7.806  14.965   4.524  1.00139.53     0.031 A 
HETATM    6  C12 MIQ B 502      -7.378  14.439   3.236  1.00139.38     0.030 A 
HETATM    7  C13 MIQ B 502      -6.143  14.860   2.674  1.00141.18     0.019 A 
HETATM    8  C14 MIQ B 502      -5.287  15.839   3.399  1.00138.77     0.033 A 
HETATM    9  C15 MIQ B 502      -3.910  16.521   3.110  1.00142.10     0.195 A 
HETATM   10  N17 MIQ B 502      -3.668  17.308   4.145  1.00139.42    -0.288 N 
HETATM   11  O16 MIQ B 502      -3.103  16.331   1.987  1.00148.93    -0.171 OA
ENDROOT
BRANCH  10  12
HETATM   12  C18 MIQ B 502      -2.453  18.097   4.229  1.00139.82     0.187 C 
HETATM   13  C19 MIQ B 502      -1.776  17.771   5.566  1.00140.06     0.247 C 
HETATM   14  O25 MIQ B 502      -1.589  16.643   5.857  1.00143.95    -0.271 OA
HETATM   15  N20 MIQ B 502      -1.351  18.811   6.480  1.00140.02    -0.296 N 
HETATM   16  H13 MIQ B 502      -0.916  18.585   7.353  1.00142.77     0.171 HD
HETATM   17  C21 MIQ B 502      -1.599  20.180   6.107  1.00142.22     0.224 C 
HETATM   18  C22 MIQ B 502      -2.857  20.450   5.304  1.00139.52     0.106 C 
HETATM   19  O24 MIQ B 502      -0.854  21.047   6.408  1.00146.13    -0.273 OA
HETATM   20  C23 MIQ B 502      -2.771  19.582   4.062  1.00139.15     0.045 C 
ENDBRANCH  10  12
BRANCH   5  21
HETATM   21  N6  MIQ B 502      -9.059  14.533   5.117  1.00140.95    -0.377 N 
HETATM   22  C7  MIQ B 502     -10.283  14.704   4.354  1.00142.12     0.149 C 
HETATM   23  C8  MIQ B 502     -11.503  14.834   5.257  1.00144.10     0.187 C 
HETATM   24  O9  MIQ B 502     -11.550  13.854   6.250  1.00148.65    -0.388 OA
HETATM   25  C10 MIQ B 502     -10.450  13.025   6.479  1.00147.44     0.187 C 
HETATM   26  C11 MIQ B 502      -9.053  13.574   6.207  1.00144.08     0.149 C 
ENDBRANCH   5  21
TORSDOF 2
ENDMDL
MODEL 8
REMARK VINA RESULT:      -6.5      2.006      2.641
REMARK  2 active torsions:
REMARK  status: ('A' for Active; 'I' for Inactive)
REMARK    1  A    between atoms: C5_5  and  N6_21 
REMARK    2  A    between atoms: C18_14  and  N17_19 
ROOT
HETATM    1  O1  MIQ B 502      -8.855  16.024   6.983  1.00142.91    -0.171 OA
HETATM    2  C2  MIQ B 502      -8.476  15.535   5.731  1.00141.17     0.195 A 
HETATM    3  C3  MIQ B 502      -7.120  15.808   5.006  1.00141.71     0.035 A 
HETATM    4  C4  MIQ B 502      -5.912  16.589   5.365  1.00142.86     0.046 A 
HETATM    5  C5  MIQ B 502      -4.808  16.650   4.477  1.00139.53     0.031 A 
HETATM    6  C12 MIQ B 502      -4.863  15.940   3.207  1.00139.38     0.030 A 
HETATM    7  C13 MIQ B 502      -6.020  15.191   2.864  1.00141.18     0.019 A 
HETATM    8  C14 MIQ B 502      -7.175  15.129   3.801  1.00138.77     0.033 A 
HETATM    9  C15 MIQ B 502      -8.573  14.429   3.777  1.00142.10     0.195 A 
HETATM   10  N17 MIQ B 502      -9.162  14.753   4.916  1.00139.42    -0.288 N 
HETATM   11  O16 MIQ B 502      -9.090  13.628   2.757  1.00148.93    -0.171 OA
ENDROOT
BRANCH  10  12
HETATM   12  C18 MIQ B 502     -10.499  14.288   5.235  1.00139.82     0.187 C 
HETATM   13  C19 MIQ B 502     -11.340  15.511   5.621  1.00140.06     0.247 C 
HETATM   14  O25 MIQ B 502     -11.360  16.446   4.902  1.00143.95    -0.271 OA
HETATM   15  N20 MIQ B 502     -12.119  15.549   6.842  1.00140.02    -0.296 N 
HETATM   16  H13 MIQ B 502     -12.658  16.356   7.085  1.00142.77     0.171 HD
HETATM   17  C21 MIQ B 502     -12.071  14.399   7.708  1.00142.22     0.224 C 
HETATM   18  C22 MIQ B 502     -10.760  13.639   7.759  1.00139.52     0.106 C 
HETATM   19  O24 MIQ B 502     -13.010  14.064   8.342  1.00146.13    -0.273 OA
HETATM   20  C23 MIQ B 502     -10.445  13.226   6.333  1.00139.15     0.045 C 
ENDBRANCH  10  12
BRANCH   5  21
HETATM   21  N6  MIQ B 502      -3.638  17.430   4.835  1.00140.95    -0.377 N 
HETATM   22  C7  MIQ B 502      -2.763  17.896   3.773  1.00142.12     0.149 C 
HETATM   23  C8  MIQ B 502      -1.335  18.102   4.262  1.00144.10     0.187 C 
HETATM   24  O9  MIQ B 502      -1.267  18.828   5.453  1.00148.65    -0.388 OA
HETATM   25  C10 MIQ B 502      -2.427  19.099   6.183  1.00147.44     0.187 C 
HETATM   26  C11 MIQ B 502      -3.577  18.099   6.123  1.00144.08     0.149 C 
ENDBRANCH   5  21
TORSDOF 2
ENDMDL
MODEL 9
REMARK VINA RESULT:      -6.5      1.378      2.538
REMARK  2 active torsions:
REMARK  status: ('A' for Active; 'I' for Inactive)
REMARK    1  A    between atoms: C5_5  and  N6_21 
REMARK    2  A    between atoms: C18_14  and  N17_19 
ROOT
HETATM    1  O1  MIQ B 502      -8.944  13.250   3.468  1.00142.91    -0.171 OA
HETATM    2  C2  MIQ B 502      -8.813  14.286   4.396  1.00141.17     0.195 A 
HETATM    3  C3  MIQ B 502      -7.574  15.222   4.563  1.00141.71     0.035 A 
HETATM    4  C4  MIQ B 502      -6.268  15.318   3.869  1.00142.86     0.046 A 
HETATM    5  C5  MIQ B 502      -5.322  16.301   4.255  1.00139.53     0.031 A 
HETATM    6  C12 MIQ B 502      -5.636  17.220   5.339  1.00139.38     0.030 A 
HETATM    7  C13 MIQ B 502      -6.888  17.129   6.004  1.00141.18     0.019 A 
HETATM    8  C14 MIQ B 502      -7.879  16.097   5.593  1.00138.77     0.033 A 
HETATM    9  C15 MIQ B 502      -9.315  15.702   6.068  1.00142.10     0.195 A 
HETATM   10  N17 MIQ B 502      -9.686  14.688   5.303  1.00139.42    -0.288 N 
HETATM   11  O16 MIQ B 502     -10.051  16.299   7.093  1.00148.93    -0.171 OA
ENDROOT
BRANCH  10  12
HETATM   12  C18 MIQ B 502     -10.976  14.044   5.472  1.00139.82     0.187 C 
HETATM   13  C19 MIQ B 502     -12.054  15.134   5.414  1.00140.06     0.247 C 
HETATM   14  O25 MIQ B 502     -12.056  15.894   4.512  1.00143.95    -0.271 OA
HETATM   15  N20 MIQ B 502     -13.075  15.252   6.434  1.00140.02    -0.296 N 
HETATM   16  H13 MIQ B 502     -13.769  15.972   6.389  1.00142.77     0.171 HD
HETATM   17  C21 MIQ B 502     -13.045  14.319   7.531  1.00142.22     0.224 C 
HETATM   18  C22 MIQ B 502     -11.678  13.848   7.987  1.00139.52     0.106 C 
HETATM   19  O24 MIQ B 502     -14.039  13.936   8.044  1.00146.13    -0.273 OA
HETATM   20  C23 MIQ B 502     -11.003  13.240   6.771  1.00139.15     0.045 C 
ENDBRANCH  10  12
BRANCH   5  21
HETATM   21  N6  MIQ B 502      -4.041  16.374   3.576  1.00140.95    -0.377 N 
HETATM   22  C7  MIQ B 502      -3.749  17.545   2.767  1.00142.12     0.149 C 
HETATM   23  C8  MIQ B 502      -2.754  17.236   1.656  1.00144.10     0.187 C 
HETATM   24  O9  MIQ B 502      -1.637  16.530   2.109  1.00148.65    -0.388 OA
HETATM   25  C10 MIQ B 502      -1.614  15.993   3.399  1.00147.44     0.187 C 
HETATM   26  C11 MIQ B 502      -2.931  15.555   4.030  1.00144.08     0.149 C 
ENDBRANCH   5  21
TORSDOF 2
ENDMDL
