MODEL 1
REMARK VINA RESULT:      -7.4      0.000      0.000
REMARK  2 active torsions:
REMARK  status: ('A' for Active; 'I' for Inactive)
REMARK    1  A    between atoms: C5_5  and  N6_21 
REMARK    2  A    between atoms: C18_14  and  N17_19 
ROOT
HETATM    1  O1  MIQ B 502       6.946 -12.472 -13.435  1.00142.91    -0.171 OA
HETATM    2  C2  MIQ B 502       7.353 -11.136 -13.433  1.00141.17     0.195 A 
HETATM    3  C3  MIQ B 502       8.582 -10.548 -12.668  1.00141.71     0.035 A 
HETATM    4  C4  MIQ B 502       9.615 -11.143 -11.788  1.00142.86     0.046 A 
HETATM    5  C5  MIQ B 502      10.633 -10.332 -11.227  1.00139.53     0.031 A 
HETATM    6  C12 MIQ B 502      10.663  -8.906 -11.518  1.00139.38     0.030 A 
HETATM    7  C13 MIQ B 502       9.673  -8.334 -12.362  1.00141.18     0.019 A 
HETATM    8  C14 MIQ B 502       8.608  -9.192 -12.951  1.00138.77     0.033 A 
HETATM    9  C15 MIQ B 502       7.390  -8.937 -13.897  1.00142.10     0.195 A 
HETATM   10  N17 MIQ B 502       6.806 -10.112 -14.064  1.00139.42    -0.288 N 
HETATM   11  O16 MIQ B 502       7.000  -7.714 -14.447  1.00148.93    -0.171 OA
ENDROOT
BRANCH  10  12
HETATM   12  C18 MIQ B 502       5.615 -10.256 -14.882  1.00139.82     0.187 C 
HETATM   13  C19 MIQ B 502       5.906  -9.622 -16.248  1.00140.06     0.247 C 
HETATM   14  O25 MIQ B 502       6.882  -9.935 -16.832  1.00143.95    -0.271 OA
HETATM   15  N20 MIQ B 502       5.012  -8.651 -16.845  1.00140.02    -0.296 N 
HETATM   16  H13 MIQ B 502       5.216  -8.240 -17.734  1.00142.77     0.171 HD
HETATM   17  C21 MIQ B 502       3.832  -8.278 -16.108  1.00142.22     0.224 C 
HETATM   18  C22 MIQ B 502       3.953  -8.253 -14.596  1.00139.52     0.106 C 
HETATM   19  O24 MIQ B 502       2.820  -8.010 -16.656  1.00146.13    -0.273 OA
HETATM   20  C23 MIQ B 502       4.408  -9.639 -14.177  1.00139.15     0.045 C 
ENDBRANCH  10  12
BRANCH   5  21
HETATM   21  N6  MIQ B 502      11.630 -10.926 -10.355  1.00140.95    -0.377 N 
HETATM   22  C7  MIQ B 502      11.782 -12.371 -10.357  1.00142.12     0.149 C 
HETATM   23  C8  MIQ B 502      12.328 -12.887  -9.032  1.00144.10     0.187 C 
HETATM   24  O9  MIQ B 502      13.441 -12.171  -8.587  1.00148.65    -0.388 OA
HETATM   25  C10 MIQ B 502      13.812 -10.978  -9.213  1.00147.44     0.187 C 
HETATM   26  C11 MIQ B 502      12.724 -10.117  -9.846  1.00144.08     0.149 C 
ENDBRANCH   5  21
TORSDOF 2
ENDMDL
MODEL 2
REMARK VINA RESULT:      -7.4      2.054      8.258
REMARK  2 active torsions:
REMARK  status: ('A' for Active; 'I' for Inactive)
REMARK    1  A    between atoms: C5_5  and  N6_21 
REMARK    2  A    between atoms: C18_14  and  N17_19 
ROOT
HETATM    1  O1  MIQ B 502       8.837  -9.283 -11.666  1.00142.91    -0.171 OA
HETATM    2  C2  MIQ B 502       9.031  -9.613 -13.009  1.00141.17     0.195 A 
HETATM    3  C3  MIQ B 502       7.999  -9.419 -14.165  1.00141.71     0.035 A 
HETATM    4  C4  MIQ B 502       6.621  -8.876 -14.220  1.00142.86     0.046 A 
HETATM    5  C5  MIQ B 502       5.919  -8.827 -15.451  1.00139.53     0.031 A 
HETATM    6  C12 MIQ B 502       6.557  -9.312 -16.667  1.00139.38     0.030 A 
HETATM    7  C13 MIQ B 502       7.878  -9.832 -16.614  1.00141.18     0.019 A 
HETATM    8  C14 MIQ B 502       8.611  -9.879 -15.320  1.00138.77     0.033 A 
HETATM    9  C15 MIQ B 502      10.032 -10.360 -14.878  1.00142.10     0.195 A 
HETATM   10  N17 MIQ B 502      10.103 -10.141 -13.575  1.00139.42    -0.288 N 
HETATM   11  O16 MIQ B 502      11.020 -10.911 -15.696  1.00148.93    -0.171 OA
ENDROOT
BRANCH  10  12
HETATM   12  C18 MIQ B 502      11.288 -10.486 -12.812  1.00139.82     0.187 C 
HETATM   13  C19 MIQ B 502      10.849 -11.369 -11.638  1.00140.06     0.247 C 
HETATM   14  O25 MIQ B 502      10.171 -12.312 -11.849  1.00143.95    -0.271 OA
HETATM   15  N20 MIQ B 502      11.247 -11.083 -10.276  1.00140.02    -0.296 N 
HETATM   16  H13 MIQ B 502      10.948 -11.663  -9.517  1.00142.77     0.171 HD
HETATM   17  C21 MIQ B 502      12.066  -9.921 -10.043  1.00142.22     0.224 C 
HETATM   18  C22 MIQ B 502      11.829  -8.728 -10.949  1.00139.52     0.106 C 
HETATM   19  O24 MIQ B 502      12.885  -9.902  -9.191  1.00146.13    -0.273 OA
HETATM   20  C23 MIQ B 502      12.023  -9.221 -12.371  1.00139.15     0.045 C 
ENDBRANCH  10  12
BRANCH   5  21
HETATM   21  N6  MIQ B 502       4.564  -8.307 -15.488  1.00140.95    -0.377 N 
HETATM   22  C7  MIQ B 502       4.182  -7.442 -16.591  1.00142.12     0.149 C 
HETATM   23  C8  MIQ B 502       3.055  -6.493 -16.206  1.00144.10     0.187 C 
HETATM   24  O9  MIQ B 502       1.999  -7.138 -15.560  1.00148.65    -0.388 OA
HETATM   25  C10 MIQ B 502       2.132  -8.462 -15.135  1.00147.44     0.187 C 
HETATM   26  C11 MIQ B 502       3.514  -8.963 -14.729  1.00144.08     0.149 C 
ENDBRANCH   5  21
TORSDOF 2
ENDMDL
MODEL 3
REMARK VINA RESULT:      -7.4      4.989      8.808
REMARK  2 active torsions:
REMARK  status: ('A' for Active; 'I' for Inactive)
REMARK    1  A    between atoms: C5_5  and  N6_21 
REMARK    2  A    between atoms: C18_14  and  N17_19 
ROOT
HETATM    1  O1  MIQ B 502       3.298  -3.689 -15.782  1.00142.91    -0.171 OA
HETATM    2  C2  MIQ B 502       2.407  -4.737 -16.024  1.00141.17     0.195 A 
HETATM    3  C3  MIQ B 502       2.774  -6.251 -16.146  1.00141.71     0.035 A 
HETATM    4  C4  MIQ B 502       4.049  -7.001 -16.052  1.00142.86     0.046 A 
HETATM    5  C5  MIQ B 502       4.065  -8.410 -16.209  1.00139.53     0.031 A 
HETATM    6  C12 MIQ B 502       2.821  -9.122 -16.463  1.00139.38     0.030 A 
HETATM    7  C13 MIQ B 502       1.598  -8.404 -16.553  1.00141.18     0.019 A 
HETATM    8  C14 MIQ B 502       1.588  -6.925 -16.384  1.00138.77     0.033 A 
HETATM    9  C15 MIQ B 502       0.478  -5.824 -16.410  1.00142.10     0.195 A 
HETATM   10  N17 MIQ B 502       1.097  -4.675 -16.193  1.00139.42    -0.288 N 
HETATM   11  O16 MIQ B 502      -0.888  -6.019 -16.624  1.00148.93    -0.171 OA
ENDROOT
BRANCH  10  12
HETATM   12  C18 MIQ B 502       0.374  -3.418 -16.164  1.00139.82     0.187 C 
HETATM   13  C19 MIQ B 502      -0.738  -3.542 -15.114  1.00140.06     0.247 C 
HETATM   14  O25 MIQ B 502      -0.466  -3.918 -14.030  1.00143.95    -0.271 OA
HETATM   15  N20 MIQ B 502      -2.113  -3.203 -15.415  1.00140.02    -0.296 N 
HETATM   16  H13 MIQ B 502      -2.831  -3.295 -14.722  1.00142.77     0.171 HD
HETATM   17  C21 MIQ B 502      -2.422  -2.756 -16.749  1.00142.22     0.224 C 
HETATM   18  C22 MIQ B 502      -1.607  -3.361 -17.876  1.00139.52     0.106 C 
HETATM   19  O24 MIQ B 502      -3.265  -1.953 -16.951  1.00146.13    -0.273 OA
HETATM   20  C23 MIQ B 502      -0.151  -3.075 -17.557  1.00139.15     0.045 C 
ENDBRANCH  10  12
BRANCH   5  21
HETATM   21  N6  MIQ B 502       5.323  -9.130 -16.129  1.00140.95    -0.377 N 
HETATM   22  C7  MIQ B 502       6.305  -8.705 -15.147  1.00142.12     0.149 C 
HETATM   23  C8  MIQ B 502       7.724  -9.060 -15.572  1.00144.10     0.187 C 
HETATM   24  O9  MIQ B 502       7.847 -10.381 -16.006  1.00148.65    -0.388 OA
HETATM   25  C10 MIQ B 502       6.710 -11.163 -16.225  1.00147.44     0.187 C 
HETATM   26  C11 MIQ B 502       5.425 -10.473 -16.672  1.00144.08     0.149 C 
ENDBRANCH   5  21
TORSDOF 2
ENDMDL
MODEL 4
REMARK VINA RESULT:      -7.4      3.384      9.534
REMARK  2 active torsions:
REMARK  status: ('A' for Active; 'I' for Inactive)
REMARK    1  A    between atoms: C5_5  and  N6_21 
REMARK    2  A    between atoms: C18_14  and  N17_19 
ROOT
HETATM    1  O1  MIQ B 502       5.793  -7.730 -14.079  1.00142.91    -0.171 OA
HETATM    2  C2  MIQ B 502       5.113  -8.248 -15.184  1.00141.17     0.195 A 
HETATM    3  C3  MIQ B 502       3.823  -7.656 -15.834  1.00141.71     0.035 A 
HETATM    4  C4  MIQ B 502       2.981  -6.474 -15.532  1.00142.86     0.046 A 
HETATM    5  C5  MIQ B 502       1.840  -6.185 -16.324  1.00139.53     0.031 A 
HETATM    6  C12 MIQ B 502       1.496  -7.056 -17.439  1.00139.38     0.030 A 
HETATM    7  C13 MIQ B 502       2.304  -8.189 -17.729  1.00141.18     0.019 A 
HETATM    8  C14 MIQ B 502       3.501  -8.485 -16.896  1.00138.77     0.033 A 
HETATM    9  C15 MIQ B 502       4.599  -9.598 -16.906  1.00142.10     0.195 A 
HETATM   10  N17 MIQ B 502       5.411  -9.319 -15.900  1.00139.42    -0.288 N 
HETATM   11  O16 MIQ B 502       4.695 -10.669 -17.796  1.00148.93    -0.171 OA
ENDROOT
BRANCH  10  12
HETATM   12  C18 MIQ B 502       6.553 -10.160 -15.592  1.00139.82     0.187 C 
HETATM   13  C19 MIQ B 502       6.475 -10.530 -14.106  1.00140.06     0.247 C 
HETATM   14  O25 MIQ B 502       5.472 -10.975 -13.675  1.00143.95    -0.271 OA
HETATM   15  N20 MIQ B 502       7.604 -10.352 -13.215  1.00140.02    -0.296 N 
HETATM   16  H13 MIQ B 502       7.538 -10.591 -12.245  1.00142.77     0.171 HD
HETATM   17  C21 MIQ B 502       8.815  -9.797 -13.762  1.00142.22     0.224 C 
HETATM   18  C22 MIQ B 502       8.655  -8.774 -14.871  1.00139.52     0.106 C 
HETATM   19  O24 MIQ B 502       9.879 -10.127 -13.369  1.00146.13    -0.273 OA
HETATM   20  C23 MIQ B 502       7.853  -9.450 -15.968  1.00139.15     0.045 C 
ENDBRANCH  10  12
BRANCH   5  21
HETATM   21  N6  MIQ B 502       1.016  -5.033 -16.009  1.00140.95    -0.377 N 
HETATM   22  C7  MIQ B 502       0.500  -4.897 -14.657  1.00142.12     0.149 C 
HETATM   23  C8  MIQ B 502      -0.791  -4.089 -14.620  1.00144.10     0.187 C 
HETATM   24  O9  MIQ B 502      -0.710  -2.902 -15.350  1.00148.65    -0.388 OA
HETATM   25  C10 MIQ B 502       0.380  -2.660 -16.190  1.00147.44     0.187 C 
HETATM   26  C11 MIQ B 502       1.071  -3.850 -16.849  1.00144.08     0.149 C 
ENDBRANCH   5  21
TORSDOF 2
ENDMDL
MODEL 5
REMARK VINA RESULT:      -7.2      1.669      2.373
REMARK  2 active torsions:
REMARK  status: ('A' for Active; 'I' for Inactive)
REMARK    1  A    between atoms: C5_5  and  N6_21 
REMARK    2  A    between atoms: C18_14  and  N17_19 
ROOT
HETATM    1  O1  MIQ B 502       8.012 -11.802 -14.388  1.00142.91    -0.171 OA
HETATM    2  C2  MIQ B 502       8.424 -10.525 -13.998  1.00141.17     0.195 A 
HETATM    3  C3  MIQ B 502       9.505 -10.194 -12.920  1.00141.71     0.035 A 
HETATM    4  C4  MIQ B 502      10.364 -11.029 -12.048  1.00142.86     0.046 A 
HETATM    5  C5  MIQ B 502      11.275 -10.423 -11.147  1.00139.53     0.031 A 
HETATM    6  C12 MIQ B 502      11.366  -8.972 -11.079  1.00139.38     0.030 A 
HETATM    7  C13 MIQ B 502      10.544  -8.170 -11.916  1.00141.18     0.019 A 
HETATM    8  C14 MIQ B 502       9.591  -8.813 -12.862  1.00138.77     0.033 A 
HETATM    9  C15 MIQ B 502       8.558  -8.283 -13.910  1.00142.10     0.195 A 
HETATM   10  N17 MIQ B 502       8.003  -9.356 -14.449  1.00139.42    -0.288 N 
HETATM   11  O16 MIQ B 502       8.280  -6.949 -14.209  1.00148.93    -0.171 OA
ENDROOT
BRANCH  10  12
HETATM   12  C18 MIQ B 502       6.972  -9.246 -15.465  1.00139.82     0.187 C 
HETATM   13  C19 MIQ B 502       5.796 -10.132 -15.035  1.00140.06     0.247 C 
HETATM   14  O25 MIQ B 502       5.356 -10.017 -13.947  1.00143.95    -0.271 OA
HETATM   15  N20 MIQ B 502       5.205 -11.104 -15.932  1.00140.02    -0.296 N 
HETATM   16  H13 MIQ B 502       4.441 -11.681 -15.637  1.00142.77     0.171 HD
HETATM   17  C21 MIQ B 502       5.766 -11.233 -17.252  1.00142.22     0.224 C 
HETATM   18  C22 MIQ B 502       7.260 -11.007 -17.381  1.00139.52     0.106 C 
HETATM   19  O24 MIQ B 502       5.093 -11.498 -18.186  1.00146.13    -0.273 OA
HETATM   20  C23 MIQ B 502       7.535  -9.618 -16.836  1.00139.15     0.045 C 
ENDBRANCH  10  12
BRANCH   5  21
HETATM   21  N6  MIQ B 502      12.100 -11.253 -10.288  1.00140.95    -0.377 N 
HETATM   22  C7  MIQ B 502      12.962 -10.605  -9.315  1.00142.12     0.149 C 
HETATM   23  C8  MIQ B 502      14.174 -11.460  -8.969  1.00144.10     0.187 C 
HETATM   24  O9  MIQ B 502      13.840 -12.785  -8.682  1.00148.65    -0.388 OA
HETATM   25  C10 MIQ B 502      12.550 -13.260  -8.933  1.00147.44     0.187 C 
HETATM   26  C11 MIQ B 502      11.760 -12.651 -10.087  1.00144.08     0.149 C 
ENDBRANCH   5  21
TORSDOF 2
ENDMDL
MODEL 6
REMARK VINA RESULT:      -7.0      4.660      8.427
REMARK  2 active torsions:
REMARK  status: ('A' for Active; 'I' for Inactive)
REMARK    1  A    between atoms: C5_5  and  N6_21 
REMARK    2  A    between atoms: C18_14  and  N17_19 
ROOT
HETATM    1  O1  MIQ B 502       1.421  -4.846 -15.729  1.00142.91    -0.171 OA
HETATM    2  C2  MIQ B 502       1.348  -5.942 -16.593  1.00141.17     0.195 A 
HETATM    3  C3  MIQ B 502       2.433  -7.051 -16.769  1.00141.71     0.035 A 
HETATM    4  C4  MIQ B 502       3.757  -7.290 -16.146  1.00142.86     0.046 A 
HETATM    5  C5  MIQ B 502       4.532  -8.416 -16.521  1.00139.53     0.031 A 
HETATM    6  C12 MIQ B 502       4.024  -9.343 -17.522  1.00139.38     0.030 A 
HETATM    7  C13 MIQ B 502       2.755  -9.115 -18.119  1.00141.18     0.019 A 
HETATM    8  C14 MIQ B 502       1.944  -7.932 -17.720  1.00138.77     0.033 A 
HETATM    9  C15 MIQ B 502       0.547  -7.366 -18.135  1.00142.10     0.195 A 
HETATM   10  N17 MIQ B 502       0.369  -6.268 -17.419  1.00139.42    -0.288 N 
HETATM   11  O16 MIQ B 502      -0.330  -7.912 -19.075  1.00148.93    -0.171 OA
ENDROOT
BRANCH  10  12
HETATM   12  C18 MIQ B 502      -0.828  -5.461 -17.555  1.00139.82     0.187 C 
HETATM   13  C19 MIQ B 502      -0.395  -4.045 -17.956  1.00140.06     0.247 C 
HETATM   14  O25 MIQ B 502       0.338  -3.904 -18.870  1.00143.95    -0.271 OA
HETATM   15  N20 MIQ B 502      -0.865  -2.873 -17.246  1.00140.02    -0.296 N 
HETATM   16  H13 MIQ B 502      -0.569  -1.955 -17.513  1.00142.77     0.171 HD
HETATM   17  C21 MIQ B 502      -1.750  -3.072 -16.127  1.00142.22     0.224 C 
HETATM   18  C22 MIQ B 502      -1.535  -4.326 -15.303  1.00139.52     0.106 C 
HETATM   19  O24 MIQ B 502      -2.604  -2.296 -15.870  1.00146.13    -0.273 OA
HETATM   20  C23 MIQ B 502      -1.644  -5.497 -16.264  1.00139.15     0.045 C 
ENDBRANCH  10  12
BRANCH   5  21
HETATM   21  N6  MIQ B 502       5.833  -8.630 -15.914  1.00140.95    -0.377 N 
HETATM   22  C7  MIQ B 502       6.000  -8.326 -14.503  1.00142.12     0.149 C 
HETATM   23  C8  MIQ B 502       7.442  -7.971 -14.164  1.00144.10     0.187 C 
HETATM   24  O9  MIQ B 502       8.363  -8.879 -14.692  1.00148.65    -0.388 OA
HETATM   25  C10 MIQ B 502       7.955  -9.844 -15.615  1.00147.44     0.187 C 
HETATM   26  C11 MIQ B 502       6.792  -9.518 -16.547  1.00144.08     0.149 C 
ENDBRANCH   5  21
TORSDOF 2
ENDMDL
MODEL 7
REMARK VINA RESULT:      -6.9      7.117     13.787
REMARK  2 active torsions:
REMARK  status: ('A' for Active; 'I' for Inactive)
REMARK    1  A    between atoms: C5_5  and  N6_21 
REMARK    2  A    between atoms: C18_14  and  N17_19 
ROOT
HETATM    1  O1  MIQ B 502      -0.632  -4.647 -14.149  1.00142.91    -0.171 OA
HETATM    2  C2  MIQ B 502      -0.479  -5.131 -15.451  1.00141.17     0.195 A 
HETATM    3  C3  MIQ B 502      -1.445  -4.871 -16.650  1.00141.71     0.035 A 
HETATM    4  C4  MIQ B 502      -2.706  -4.106 -16.795  1.00142.86     0.046 A 
HETATM    5  C5  MIQ B 502      -3.372  -4.052 -18.046  1.00139.53     0.031 A 
HETATM    6  C12 MIQ B 502      -2.812  -4.752 -19.193  1.00139.38     0.030 A 
HETATM    7  C13 MIQ B 502      -1.602  -5.484 -19.055  1.00141.18     0.019 A 
HETATM    8  C14 MIQ B 502      -0.907  -5.536 -17.740  1.00138.77     0.033 A 
HETATM    9  C15 MIQ B 502       0.401  -6.212 -17.214  1.00142.10     0.195 A 
HETATM   10  N17 MIQ B 502       0.491  -5.887 -15.935  1.00139.42    -0.288 N 
HETATM   11  O16 MIQ B 502       1.289  -6.999 -17.949  1.00148.93    -0.171 OA
ENDROOT
BRANCH  10  12
HETATM   12  C18 MIQ B 502       1.587  -6.359 -15.109  1.00139.82     0.187 C 
HETATM   13  C19 MIQ B 502       2.897  -5.909 -15.769  1.00140.06     0.247 C 
HETATM   14  O25 MIQ B 502       3.029  -4.777 -16.073  1.00143.95    -0.271 OA
HETATM   15  N20 MIQ B 502       3.980  -6.836 -16.025  1.00140.02    -0.296 N 
HETATM   16  H13 MIQ B 502       4.827  -6.531 -16.463  1.00142.77     0.171 HD
HETATM   17  C21 MIQ B 502       3.790  -8.215 -15.655  1.00142.22     0.224 C 
HETATM   18  C22 MIQ B 502       2.382  -8.764 -15.773  1.00139.52     0.106 C 
HETATM   19  O24 MIQ B 502       4.688  -8.881 -15.273  1.00146.13    -0.273 OA
HETATM   20  C23 MIQ B 502       1.498  -7.872 -14.920  1.00139.15     0.045 C 
ENDBRANCH  10  12
BRANCH   5  21
HETATM   21  N6  MIQ B 502      -4.614  -3.311 -18.171  1.00140.95    -0.377 N 
HETATM   22  C7  MIQ B 502      -5.748  -3.958 -18.807  1.00142.12     0.149 C 
HETATM   23  C8  MIQ B 502      -6.699  -2.949 -19.438  1.00144.10     0.187 C 
HETATM   24  O9  MIQ B 502      -7.017  -1.893 -18.582  1.00148.65    -0.388 OA
HETATM   25  C10 MIQ B 502      -6.321  -1.720 -17.383  1.00147.44     0.187 C 
HETATM   26  C11 MIQ B 502      -4.864  -2.165 -17.314  1.00144.08     0.149 C 
ENDBRANCH   5  21
TORSDOF 2
ENDMDL
MODEL 8
REMARK VINA RESULT:      -6.9      7.751     10.045
REMARK  2 active torsions:
REMARK  status: ('A' for Active; 'I' for Inactive)
REMARK    1  A    between atoms: C5_5  and  N6_21 
REMARK    2  A    between atoms: C18_14  and  N17_19 
ROOT
HETATM    1  O1  MIQ B 502      -0.755  -5.780 -17.328  1.00142.91    -0.171 OA
HETATM    2  C2  MIQ B 502       0.538  -5.690 -16.808  1.00141.17     0.195 A 
HETATM    3  C3  MIQ B 502       1.673  -6.751 -16.968  1.00141.71     0.035 A 
HETATM    4  C4  MIQ B 502       1.751  -8.064 -17.652  1.00142.86     0.046 A 
HETATM    5  C5  MIQ B 502       2.952  -8.817 -17.622  1.00139.53     0.031 A 
HETATM    6  C12 MIQ B 502       4.114  -8.296 -16.915  1.00139.38     0.030 A 
HETATM    7  C13 MIQ B 502       4.039  -7.037 -16.260  1.00141.18     0.019 A 
HETATM    8  C14 MIQ B 502       2.777  -6.250 -16.297  1.00138.77     0.033 A 
HETATM    9  C15 MIQ B 502       2.325  -4.870 -15.719  1.00142.10     0.195 A 
HETATM   10  N17 MIQ B 502       1.066  -4.711 -16.093  1.00139.42    -0.288 N 
HETATM   11  O16 MIQ B 502       3.097  -3.989 -14.959  1.00148.93    -0.171 OA
ENDROOT
BRANCH  10  12
HETATM   12  C18 MIQ B 502       0.307  -3.533 -15.717  1.00139.82     0.187 C 
HETATM   13  C19 MIQ B 502      -0.929  -4.002 -14.939  1.00140.06     0.247 C 
HETATM   14  O25 MIQ B 502      -0.791  -4.745 -14.033  1.00143.95    -0.271 OA
HETATM   15  N20 MIQ B 502      -2.263  -3.553 -15.281  1.00140.02    -0.296 N 
HETATM   16  H13 MIQ B 502      -3.062  -3.871 -14.770  1.00142.77     0.171 HD
HETATM   17  C21 MIQ B 502      -2.406  -2.654 -16.398  1.00142.22     0.224 C 
HETATM   18  C22 MIQ B 502      -1.432  -2.834 -17.546  1.00139.52     0.106 C 
HETATM   19  O24 MIQ B 502      -3.239  -1.816 -16.413  1.00146.13    -0.273 OA
HETATM   20  C23 MIQ B 502      -0.040  -2.706 -16.955  1.00139.15     0.045 C 
ENDBRANCH  10  12
BRANCH   5  21
HETATM   21  N6  MIQ B 502       3.010 -10.107 -18.283  1.00140.95    -0.377 N 
HETATM   22  C7  MIQ B 502       4.095 -10.362 -19.215  1.00142.12     0.149 C 
HETATM   23  C8  MIQ B 502       3.711 -11.395 -20.267  1.00144.10     0.187 C 
HETATM   24  O9  MIQ B 502       3.116 -12.533 -19.719  1.00148.65    -0.388 OA
HETATM   25  C10 MIQ B 502       2.731 -12.553 -18.376  1.00147.44     0.187 C 
HETATM   26  C11 MIQ B 502       2.303 -11.244 -17.720  1.00144.08     0.149 C 
ENDBRANCH   5  21
TORSDOF 2
ENDMDL
MODEL 9
REMARK VINA RESULT:      -6.9      2.460      8.873
REMARK  2 active torsions:
REMARK  status: ('A' for Active; 'I' for Inactive)
REMARK    1  A    between atoms: C5_5  and  N6_21 
REMARK    2  A    between atoms: C18_14  and  N17_19 
ROOT
HETATM    1  O1  MIQ B 502       6.798  -8.379 -13.154  1.00142.91    -0.171 OA
HETATM    2  C2  MIQ B 502       6.610  -9.015 -14.384  1.00141.17     0.195 A 
HETATM    3  C3  MIQ B 502       5.548  -8.637 -15.464  1.00141.71     0.035 A 
HETATM    4  C4  MIQ B 502       4.500  -7.591 -15.541  1.00142.86     0.046 A 
HETATM    5  C5  MIQ B 502       3.667  -7.494 -16.685  1.00139.53     0.031 A 
HETATM    6  C12 MIQ B 502       3.843  -8.427 -17.788  1.00139.38     0.030 A 
HETATM    7  C13 MIQ B 502       4.848  -9.429 -17.715  1.00141.18     0.019 A 
HETATM    8  C14 MIQ B 502       5.721  -9.524 -16.514  1.00138.77     0.033 A 
HETATM    9  C15 MIQ B 502       6.899 -10.458 -16.082  1.00142.10     0.195 A 
HETATM   10  N17 MIQ B 502       7.277 -10.041 -14.885  1.00139.42    -0.288 N 
HETATM   11  O16 MIQ B 502       7.436 -11.518 -16.815  1.00148.93    -0.171 OA
ENDROOT
BRANCH  10  12
HETATM   12  C18 MIQ B 502       8.351 -10.693 -14.160  1.00139.82     0.187 C 
HETATM   13  C19 MIQ B 502       7.778 -11.195 -12.828  1.00140.06     0.247 C 
HETATM   14  O25 MIQ B 502       6.793 -11.844 -12.833  1.00143.95    -0.271 OA
HETATM   15  N20 MIQ B 502       8.417 -10.900 -11.562  1.00140.02    -0.296 N 
HETATM   16  H13 MIQ B 502       8.030 -11.228 -10.700  1.00142.77     0.171 HD
HETATM   17  C21 MIQ B 502       9.613 -10.098 -11.581  1.00142.22     0.224 C 
HETATM   18  C22 MIQ B 502       9.699  -9.028 -12.653  1.00139.52     0.106 C 
HETATM   19  O24 MIQ B 502      10.485 -10.270 -10.802  1.00146.13    -0.273 OA
HETATM   20  C23 MIQ B 502       9.530  -9.738 -13.985  1.00139.15     0.045 C 
ENDBRANCH  10  12
BRANCH   5  21
HETATM   21  N6  MIQ B 502       2.636  -6.474 -16.740  1.00140.95    -0.377 N 
HETATM   22  C7  MIQ B 502       1.272  -6.881 -17.031  1.00142.12     0.149 C 
HETATM   23  C8  MIQ B 502       0.470  -5.760 -17.680  1.00144.10     0.187 C 
HETATM   24  O9  MIQ B 502       0.599  -4.542 -17.009  1.00148.65    -0.388 OA
HETATM   25  C10 MIQ B 502       1.558  -4.384 -16.006  1.00147.44     0.187 C 
HETATM   26  C11 MIQ B 502       2.851  -5.188 -16.100  1.00144.08     0.149 C 
ENDBRANCH   5  21
TORSDOF 2
ENDMDL
