MODEL 1
REMARK VINA RESULT:      -6.3      0.000      0.000
REMARK  2 active torsions:
REMARK  status: ('A' for Active; 'I' for Inactive)
REMARK    1  A    between atoms: C5_5  and  N6_21 
REMARK    2  A    between atoms: C18_14  and  N17_19 
ROOT
HETATM    1  O1  MIQ B 502      16.587  -2.125  22.093  1.00142.91    -0.171 OA
HETATM    2  C2  MIQ B 502      16.051  -2.710  20.944  1.00141.17     0.195 A 
HETATM    3  C3  MIQ B 502      15.084  -3.936  20.898  1.00141.71     0.035 A 
HETATM    4  C4  MIQ B 502      14.474  -4.792  21.942  1.00142.86     0.046 A 
HETATM    5  C5  MIQ B 502      13.611  -5.858  21.581  1.00139.53     0.031 A 
HETATM    6  C12 MIQ B 502      13.322  -6.110  20.177  1.00139.38     0.030 A 
HETATM    7  C13 MIQ B 502      13.906  -5.288  19.175  1.00141.18     0.019 A 
HETATM    8  C14 MIQ B 502      14.809  -4.170  19.560  1.00138.77     0.033 A 
HETATM    9  C15 MIQ B 502      15.611  -3.083  18.771  1.00142.10     0.195 A 
HETATM   10  N17 MIQ B 502      16.239  -2.359  19.683  1.00139.42    -0.288 N 
HETATM   11  O16 MIQ B 502      15.653  -2.918  17.386  1.00148.93    -0.171 OA
ENDROOT
BRANCH  10  12
HETATM   12  C18 MIQ B 502      17.102  -1.254  19.309  1.00139.82     0.187 C 
HETATM   13  C19 MIQ B 502      16.304  -0.331  18.380  1.00140.06     0.247 C 
HETATM   14  O25 MIQ B 502      15.235   0.039  18.715  1.00143.95    -0.271 OA
HETATM   15  N20 MIQ B 502      16.829   0.106  17.103  1.00140.02    -0.296 N 
HETATM   16  H13 MIQ B 502      16.295   0.704  16.503  1.00142.77     0.171 HD
HETATM   17  C21 MIQ B 502      18.132  -0.367  16.712  1.00142.22     0.224 C 
HETATM   18  C22 MIQ B 502      18.513  -1.764  17.163  1.00139.52     0.106 C 
HETATM   19  O24 MIQ B 502      18.867   0.304  16.075  1.00146.13    -0.273 OA
HETATM   20  C23 MIQ B 502      18.390  -1.776  18.676  1.00139.15     0.045 C 
ENDBRANCH  10  12
BRANCH   5  21
HETATM   21  N6  MIQ B 502      13.032  -6.698  22.614  1.00140.95    -0.377 N 
HETATM   22  C7  MIQ B 502      13.924  -7.367  23.545  1.00142.12     0.149 C 
HETATM   23  C8  MIQ B 502      13.308  -8.643  24.105  1.00144.10     0.187 C 
HETATM   24  O9  MIQ B 502      11.999  -8.461  24.558  1.00148.65    -0.388 OA
HETATM   25  C10 MIQ B 502      11.313  -7.276  24.280  1.00147.44     0.187 C 
HETATM   26  C11 MIQ B 502      11.640  -6.529  22.992  1.00144.08     0.149 C 
ENDBRANCH   5  21
TORSDOF 2
ENDMDL
MODEL 2
REMARK VINA RESULT:      -6.3      2.703      8.138
REMARK  2 active torsions:
REMARK  status: ('A' for Active; 'I' for Inactive)
REMARK    1  A    between atoms: C5_5  and  N6_21 
REMARK    2  A    between atoms: C18_14  and  N17_19 
ROOT
HETATM    1  O1  MIQ B 502      12.887  -4.334  18.203  1.00142.91    -0.171 OA
HETATM    2  C2  MIQ B 502      13.652  -4.348  19.371  1.00141.17     0.195 A 
HETATM    3  C3  MIQ B 502      14.974  -3.554  19.617  1.00141.71     0.035 A 
HETATM    4  C4  MIQ B 502      15.771  -2.619  18.787  1.00142.86     0.046 A 
HETATM    5  C5  MIQ B 502      16.959  -2.039  19.300  1.00139.53     0.031 A 
HETATM    6  C12 MIQ B 502      17.397  -2.364  20.650  1.00139.38     0.030 A 
HETATM    7  C13 MIQ B 502      16.633  -3.259  21.446  1.00141.18     0.019 A 
HETATM    8  C14 MIQ B 502      15.385  -3.863  20.903  1.00138.77     0.033 A 
HETATM    9  C15 MIQ B 502      14.312  -4.855  21.459  1.00142.10     0.195 A 
HETATM   10  N17 MIQ B 502      13.426  -5.014  20.490  1.00139.42    -0.288 N 
HETATM   11  O16 MIQ B 502      14.298  -5.450  22.722  1.00148.93    -0.171 OA
ENDROOT
BRANCH  10  12
HETATM   12  C18 MIQ B 502      12.281  -5.892  20.648  1.00139.82     0.187 C 
HETATM   13  C19 MIQ B 502      12.083  -6.644  19.326  1.00140.06     0.247 C 
HETATM   14  O25 MIQ B 502      13.000  -7.201  18.838  1.00143.95    -0.271 OA
HETATM   15  N20 MIQ B 502      10.796  -6.695  18.662  1.00140.02    -0.296 N 
HETATM   16  H13 MIQ B 502      10.681  -7.185  17.796  1.00142.77     0.171 HD
HETATM   17  C21 MIQ B 502       9.694  -5.999  19.273  1.00142.22     0.224 C 
HETATM   18  C22 MIQ B 502      10.025  -4.721  20.019  1.00139.52     0.106 C 
HETATM   19  O24 MIQ B 502       8.587  -6.408  19.199  1.00146.13    -0.273 OA
HETATM   20  C23 MIQ B 502      11.051  -5.091  21.074  1.00139.15     0.045 C 
ENDBRANCH  10  12
BRANCH   5  21
HETATM   21  N6  MIQ B 502      17.737  -1.137  18.471  1.00140.95    -0.377 N 
HETATM   22  C7  MIQ B 502      19.136  -1.446  18.233  1.00142.12     0.149 C 
HETATM   23  C8  MIQ B 502      19.954  -0.193  17.942  1.00144.10     0.187 C 
HETATM   24  O9  MIQ B 502      19.356   0.637  16.993  1.00148.65    -0.388 OA
HETATM   25  C10 MIQ B 502      18.043   0.404  16.574  1.00147.44     0.187 C 
HETATM   26  C11 MIQ B 502      17.065  -0.228  17.559  1.00144.08     0.149 C 
ENDBRANCH   5  21
TORSDOF 2
ENDMDL
MODEL 3
REMARK VINA RESULT:      -6.2      9.852     11.984
REMARK  2 active torsions:
REMARK  status: ('A' for Active; 'I' for Inactive)
REMARK    1  A    between atoms: C5_5  and  N6_21 
REMARK    2  A    between atoms: C18_14  and  N17_19 
ROOT
HETATM    1  O1  MIQ B 502       3.981  -6.996  22.820  1.00142.91    -0.171 OA
HETATM    2  C2  MIQ B 502       4.753  -6.356  21.848  1.00141.17     0.195 A 
HETATM    3  C3  MIQ B 502       5.133  -4.841  21.824  1.00141.71     0.035 A 
HETATM    4  C4  MIQ B 502       4.839  -3.702  22.725  1.00142.86     0.046 A 
HETATM    5  C5  MIQ B 502       5.338  -2.408  22.431  1.00139.53     0.031 A 
HETATM    6  C12 MIQ B 502       6.145  -2.198  21.238  1.00139.38     0.030 A 
HETATM    7  C13 MIQ B 502       6.429  -3.291  20.374  1.00141.18     0.019 A 
HETATM    8  C14 MIQ B 502       5.904  -4.647  20.689  1.00138.77     0.033 A 
HETATM    9  C15 MIQ B 502       6.002  -6.050  20.005  1.00142.10     0.195 A 
HETATM   10  N17 MIQ B 502       5.316  -6.880  20.774  1.00139.42    -0.288 N 
HETATM   11  O16 MIQ B 502       6.677  -6.358  18.823  1.00148.93    -0.171 OA
ENDROOT
BRANCH  10  12
HETATM   12  C18 MIQ B 502       5.176  -8.284  20.435  1.00139.82     0.187 C 
HETATM   13  C19 MIQ B 502       6.574  -8.832  20.125  1.00140.06     0.247 C 
HETATM   14  O25 MIQ B 502       7.448  -8.650  20.896  1.00143.95    -0.271 OA
HETATM   15  N20 MIQ B 502       6.852  -9.574  18.913  1.00140.02    -0.296 N 
HETATM   16  H13 MIQ B 502       7.770  -9.921  18.719  1.00142.77     0.171 HD
HETATM   17  C21 MIQ B 502       5.771  -9.775  17.982  1.00142.22     0.224 C 
HETATM   18  C22 MIQ B 502       4.744  -8.663  17.880  1.00139.52     0.106 C 
HETATM   19  O24 MIQ B 502       5.687 -10.760  17.335  1.00146.13    -0.273 OA
HETATM   20  C23 MIQ B 502       4.192  -8.457  19.279  1.00139.15     0.045 C 
ENDBRANCH  10  12
BRANCH   5  21
HETATM   21  N6  MIQ B 502       5.029  -1.298  23.315  1.00140.95    -0.377 N 
HETATM   22  C7  MIQ B 502       3.897  -1.422  24.217  1.00142.12     0.149 C 
HETATM   23  C8  MIQ B 502       3.306  -0.066  24.578  1.00144.10     0.187 C 
HETATM   24  O9  MIQ B 502       4.274   0.865  24.960  1.00148.65    -0.388 OA
HETATM   25  C10 MIQ B 502       5.632   0.588  24.780  1.00147.44     0.187 C 
HETATM   26  C11 MIQ B 502       6.046  -0.305  23.616  1.00144.08     0.149 C 
ENDBRANCH   5  21
TORSDOF 2
ENDMDL
MODEL 4
REMARK VINA RESULT:      -6.1      6.678     11.204
REMARK  2 active torsions:
REMARK  status: ('A' for Active; 'I' for Inactive)
REMARK    1  A    between atoms: C5_5  and  N6_21 
REMARK    2  A    between atoms: C18_14  and  N17_19 
ROOT
HETATM    1  O1  MIQ B 502       6.819  -9.113  21.067  1.00142.91    -0.171 OA
HETATM    2  C2  MIQ B 502       6.750  -8.022  20.198  1.00141.17     0.195 A 
HETATM    3  C3  MIQ B 502       7.854  -6.936  19.991  1.00141.71     0.035 A 
HETATM    4  C4  MIQ B 502       9.198  -6.725  20.579  1.00142.86     0.046 A 
HETATM    5  C5  MIQ B 502       9.989  -5.618  20.179  1.00139.53     0.031 A 
HETATM    6  C12 MIQ B 502       9.477  -4.685  19.186  1.00139.38     0.030 A 
HETATM    7  C13 MIQ B 502       8.189  -4.888  18.622  1.00141.18     0.019 A 
HETATM    8  C14 MIQ B 502       7.364  -6.053  19.043  1.00138.77     0.033 A 
HETATM    9  C15 MIQ B 502       5.948  -6.593  18.659  1.00142.10     0.195 A 
HETATM   10  N17 MIQ B 502       5.765  -7.685  19.384  1.00139.42    -0.288 N 
HETATM   11  O16 MIQ B 502       5.060  -6.032  17.739  1.00148.93    -0.171 OA
ENDROOT
BRANCH  10  12
HETATM   12  C18 MIQ B 502       4.536  -8.453  19.299  1.00139.82     0.187 C 
HETATM   13  C19 MIQ B 502       3.974  -8.594  20.719  1.00140.06     0.247 C 
HETATM   14  O25 MIQ B 502       3.845  -7.630  21.386  1.00143.95    -0.271 OA
HETATM   15  N20 MIQ B 502       3.590  -9.880  21.264  1.00140.02    -0.296 N 
HETATM   16  H13 MIQ B 502       3.231  -9.960  22.195  1.00142.77     0.171 HD
HETATM   17  C21 MIQ B 502       3.767 -11.044  20.435  1.00142.22     0.224 C 
HETATM   18  C22 MIQ B 502       4.950 -11.032  19.487  1.00139.52     0.106 C 
HETATM   19  O24 MIQ B 502       3.021 -11.960  20.488  1.00146.13    -0.273 OA
HETATM   20  C23 MIQ B 502       4.795  -9.796  18.619  1.00139.15     0.045 C 
ENDBRANCH  10  12
BRANCH   5  21
HETATM   21  N6  MIQ B 502      11.298  -5.416  20.774  1.00140.95    -0.377 N 
HETATM   22  C7  MIQ B 502      12.440  -5.234  19.894  1.00142.12     0.149 C 
HETATM   23  C8  MIQ B 502      13.741  -5.671  20.554  1.00144.10     0.187 C 
HETATM   24  O9  MIQ B 502      13.895  -5.160  21.844  1.00148.65    -0.388 OA
HETATM   25  C10 MIQ B 502      12.829  -4.523  22.485  1.00147.44     0.187 C 
HETATM   26  C11 MIQ B 502      11.408  -4.965  22.150  1.00144.08     0.149 C 
ENDBRANCH   5  21
TORSDOF 2
ENDMDL
MODEL 5
REMARK VINA RESULT:      -6.0      3.230      7.447
REMARK  2 active torsions:
REMARK  status: ('A' for Active; 'I' for Inactive)
REMARK    1  A    between atoms: C5_5  and  N6_21 
REMARK    2  A    between atoms: C18_14  and  N17_19 
ROOT
HETATM    1  O1  MIQ B 502      14.403  -5.728  22.780  1.00142.91    -0.171 OA
HETATM    2  C2  MIQ B 502      14.382  -5.029  21.571  1.00141.17     0.195 A 
HETATM    3  C3  MIQ B 502      15.446  -3.994  21.085  1.00141.71     0.035 A 
HETATM    4  C4  MIQ B 502      16.698  -3.467  21.676  1.00142.86     0.046 A 
HETATM    5  C5  MIQ B 502      17.474  -2.509  20.975  1.00139.53     0.031 A 
HETATM    6  C12 MIQ B 502      17.037  -2.042  19.667  1.00139.38     0.030 A 
HETATM    7  C13 MIQ B 502      15.836  -2.548  19.100  1.00141.18     0.019 A 
HETATM    8  C14 MIQ B 502      15.027  -3.555  19.839  1.00138.77     0.033 A 
HETATM    9  C15 MIQ B 502      13.696  -4.323  19.550  1.00142.10     0.195 A 
HETATM   10  N17 MIQ B 502      13.484  -5.096  20.602  1.00139.42    -0.288 N 
HETATM   11  O16 MIQ B 502      12.897  -4.210  18.411  1.00148.93    -0.171 OA
ENDROOT
BRANCH  10  12
HETATM   12  C18 MIQ B 502      12.315  -5.951  20.691  1.00139.82     0.187 C 
HETATM   13  C19 MIQ B 502      12.134  -6.638  19.332  1.00140.06     0.247 C 
HETATM   14  O25 MIQ B 502      13.051  -7.195  18.842  1.00143.95    -0.271 OA
HETATM   15  N20 MIQ B 502      10.865  -6.627  18.633  1.00140.02    -0.296 N 
HETATM   16  H13 MIQ B 502      10.762  -7.074  17.744  1.00142.77     0.171 HD
HETATM   17  C21 MIQ B 502       9.763  -5.932  19.247  1.00142.22     0.224 C 
HETATM   18  C22 MIQ B 502      10.104  -4.697  20.059  1.00139.52     0.106 C 
HETATM   19  O24 MIQ B 502       8.650  -6.310  19.127  1.00146.13    -0.273 OA
HETATM   20  C23 MIQ B 502      11.094  -5.139  21.121  1.00139.15     0.045 C 
ENDBRANCH  10  12
BRANCH   5  21
HETATM   21  N6  MIQ B 502      18.691  -1.990  21.573  1.00140.95    -0.377 N 
HETATM   22  C7  MIQ B 502      18.670  -1.615  22.976  1.00142.12     0.149 C 
HETATM   23  C8  MIQ B 502      19.707  -0.545  23.294  1.00144.10     0.187 C 
HETATM   24  O9  MIQ B 502      20.969  -0.839  22.773  1.00148.65    -0.388 OA
HETATM   25  C10 MIQ B 502      21.134  -1.893  21.871  1.00147.44     0.187 C 
HETATM   26  C11 MIQ B 502      19.975  -2.250  20.946  1.00144.08     0.149 C 
ENDBRANCH   5  21
TORSDOF 2
ENDMDL
MODEL 6
REMARK VINA RESULT:      -5.9      1.687      2.130
REMARK  2 active torsions:
REMARK  status: ('A' for Active; 'I' for Inactive)
REMARK    1  A    between atoms: C5_5  and  N6_21 
REMARK    2  A    between atoms: C18_14  and  N17_19 
ROOT
HETATM    1  O1  MIQ B 502      16.255  -2.012  21.719  1.00142.91    -0.171 OA
HETATM    2  C2  MIQ B 502      15.675  -2.837  20.752  1.00141.17     0.195 A 
HETATM    3  C3  MIQ B 502      14.949  -4.195  21.013  1.00141.71     0.035 A 
HETATM    4  C4  MIQ B 502      14.660  -4.977  22.239  1.00142.86     0.046 A 
HETATM    5  C5  MIQ B 502      13.962  -6.208  22.156  1.00139.53     0.031 A 
HETATM    6  C12 MIQ B 502      13.526  -6.705  20.859  1.00139.38     0.030 A 
HETATM    7  C13 MIQ B 502      13.802  -5.955  19.684  1.00141.18     0.019 A 
HETATM    8  C14 MIQ B 502      14.533  -4.662  19.777  1.00138.77     0.033 A 
HETATM    9  C15 MIQ B 502      15.003  -3.588  18.743  1.00142.10     0.195 A 
HETATM   10  N17 MIQ B 502      15.613  -2.647  19.445  1.00139.42    -0.288 N 
HETATM   11  O16 MIQ B 502      14.816  -3.621  17.360  1.00148.93    -0.171 OA
ENDROOT
BRANCH  10  12
HETATM   12  C18 MIQ B 502      16.199  -1.484  18.805  1.00139.82     0.187 C 
HETATM   13  C19 MIQ B 502      17.610  -1.298  19.375  1.00140.06     0.247 C 
HETATM   14  O25 MIQ B 502      18.353  -2.215  19.387  1.00143.95    -0.271 OA
HETATM   15  N20 MIQ B 502      18.062  -0.024  19.896  1.00140.02    -0.296 N 
HETATM   16  H13 MIQ B 502      18.983   0.083  20.272  1.00142.77     0.171 HD
HETATM   17  C21 MIQ B 502      17.134   1.078  19.880  1.00142.22     0.224 C 
HETATM   18  C22 MIQ B 502      15.670   0.739  20.084  1.00139.52     0.106 C 
HETATM   19  O24 MIQ B 502      17.498   2.190  19.712  1.00146.13    -0.273 OA
HETATM   20  C23 MIQ B 502      15.305  -0.262  19.002  1.00139.15     0.045 C 
ENDBRANCH  10  12
BRANCH   5  21
HETATM   21  N6  MIQ B 502      13.699  -6.970  23.363  1.00140.95    -0.377 N 
HETATM   22  C7  MIQ B 502      14.766  -7.118  24.337  1.00142.12     0.149 C 
HETATM   23  C8  MIQ B 502      14.611  -8.388  25.164  1.00144.10     0.187 C 
HETATM   24  O9  MIQ B 502      13.318  -8.556  25.664  1.00148.65    -0.388 OA
HETATM   25  C10 MIQ B 502      12.276  -7.737  25.221  1.00147.44     0.187 C 
HETATM   26  C11 MIQ B 502      12.331  -7.192  23.797  1.00144.08     0.149 C 
ENDBRANCH   5  21
TORSDOF 2
ENDMDL
MODEL 7
REMARK VINA RESULT:      -5.9     17.534     20.152
REMARK  2 active torsions:
REMARK  status: ('A' for Active; 'I' for Inactive)
REMARK    1  A    between atoms: C5_5  and  N6_21 
REMARK    2  A    between atoms: C18_14  and  N17_19 
ROOT
HETATM    1  O1  MIQ B 502      25.582 -15.784  22.875  1.00142.91    -0.171 OA
HETATM    2  C2  MIQ B 502      26.561 -16.187  23.786  1.00141.17     0.195 A 
HETATM    3  C3  MIQ B 502      28.095 -15.913  23.674  1.00141.71     0.035 A 
HETATM    4  C4  MIQ B 502      28.933 -15.208  22.676  1.00142.86     0.046 A 
HETATM    5  C5  MIQ B 502      30.337 -15.121  22.853  1.00139.53     0.031 A 
HETATM    6  C12 MIQ B 502      30.957 -15.727  24.022  1.00139.38     0.030 A 
HETATM    7  C13 MIQ B 502      30.153 -16.402  24.980  1.00141.18     0.019 A 
HETATM    8  C14 MIQ B 502      28.679 -16.489  24.790  1.00138.77     0.033 A 
HETATM    9  C15 MIQ B 502      27.502 -17.123  25.600  1.00142.10     0.195 A 
HETATM   10  N17 MIQ B 502      26.403 -16.864  24.911  1.00139.42    -0.288 N 
HETATM   11  O16 MIQ B 502      27.598 -17.822  26.805  1.00148.93    -0.171 OA
ENDROOT
BRANCH  10  12
HETATM   12  C18 MIQ B 502      25.102 -17.322  25.360  1.00139.82     0.187 C 
HETATM   13  C19 MIQ B 502      24.994 -17.024  26.861  1.00140.06     0.247 C 
HETATM   14  O25 MIQ B 502      25.238 -15.938  27.252  1.00143.95    -0.271 OA
HETATM   15  N20 MIQ B 502      24.594 -18.039  27.814  1.00140.02    -0.296 N 
HETATM   16  H13 MIQ B 502      24.534 -17.833  28.792  1.00142.77     0.171 HD
HETATM   17  C21 MIQ B 502      24.312 -19.360  27.315  1.00142.22     0.224 C 
HETATM   18  C22 MIQ B 502      25.127 -19.827  26.124  1.00139.52     0.106 C 
HETATM   19  O24 MIQ B 502      23.482 -20.042  27.807  1.00146.13    -0.273 OA
HETATM   20  C23 MIQ B 502      24.913 -18.801  25.026  1.00139.15     0.045 C 
ENDBRANCH  10  12
BRANCH   5  21
HETATM   21  N6  MIQ B 502      31.148 -14.440  21.860  1.00140.95    -0.377 N 
HETATM   22  C7  MIQ B 502      30.901 -14.715  20.455  1.00142.12     0.149 C 
HETATM   23  C8  MIQ B 502      32.144 -14.489  19.604  1.00144.10     0.187 C 
HETATM   24  O9  MIQ B 502      32.773 -13.272  19.873  1.00148.65    -0.388 OA
HETATM   25  C10 MIQ B 502      32.389 -12.505  20.976  1.00147.44     0.187 C 
HETATM   26  C11 MIQ B 502      31.855 -13.221  22.212  1.00144.08     0.149 C 
ENDBRANCH   5  21
TORSDOF 2
ENDMDL
MODEL 8
REMARK VINA RESULT:      -5.9      4.484      5.934
REMARK  2 active torsions:
REMARK  status: ('A' for Active; 'I' for Inactive)
REMARK    1  A    between atoms: C5_5  and  N6_21 
REMARK    2  A    between atoms: C18_14  and  N17_19 
ROOT
HETATM    1  O1  MIQ B 502      20.006  -0.845  17.842  1.00142.91    -0.171 OA
HETATM    2  C2  MIQ B 502      18.835  -1.172  18.530  1.00141.17     0.195 A 
HETATM    3  C3  MIQ B 502      18.749  -1.863  19.928  1.00141.71     0.035 A 
HETATM    4  C4  MIQ B 502      19.768  -2.346  20.890  1.00142.86     0.046 A 
HETATM    5  C5  MIQ B 502      19.372  -2.946  22.112  1.00139.53     0.031 A 
HETATM    6  C12 MIQ B 502      17.957  -3.086  22.423  1.00139.38     0.030 A 
HETATM    7  C13 MIQ B 502      16.980  -2.621  21.502  1.00141.18     0.019 A 
HETATM    8  C14 MIQ B 502      17.401  -1.990  20.221  1.00138.77     0.033 A 
HETATM    9  C15 MIQ B 502      16.646  -1.375  18.999  1.00142.10     0.195 A 
HETATM   10  N17 MIQ B 502      17.583  -0.968  18.158  1.00139.42    -0.288 N 
HETATM   11  O16 MIQ B 502      15.263  -1.279  18.832  1.00148.93    -0.171 OA
ENDROOT
BRANCH  10  12
HETATM   12  C18 MIQ B 502      17.245  -0.352  16.888  1.00139.82     0.187 C 
HETATM   13  C19 MIQ B 502      17.954  -1.141  15.782  1.00140.06     0.247 C 
HETATM   14  O25 MIQ B 502      17.838  -2.315  15.746  1.00143.95    -0.271 OA
HETATM   15  N20 MIQ B 502      18.761  -0.486  14.772  1.00140.02    -0.296 N 
HETATM   16  H13 MIQ B 502      19.224  -1.014  14.059  1.00142.77     0.171 HD
HETATM   17  C21 MIQ B 502      18.897   0.946  14.843  1.00142.22     0.224 C 
HETATM   18  C22 MIQ B 502      18.907   1.562  16.228  1.00139.52     0.106 C 
HETATM   19  O24 MIQ B 502      18.990   1.606  13.867  1.00146.13    -0.273 OA
HETATM   20  C23 MIQ B 502      17.616   1.131  16.902  1.00139.15     0.045 C 
ENDBRANCH  10  12
BRANCH   5  21
HETATM   21  N6  MIQ B 502      20.381  -3.429  23.038  1.00140.95    -0.377 N 
HETATM   22  C7  MIQ B 502      21.721  -2.873  22.957  1.00142.12     0.149 C 
HETATM   23  C8  MIQ B 502      22.772  -3.848  23.471  1.00144.10     0.187 C 
HETATM   24  O9  MIQ B 502      22.434  -4.414  24.702  1.00148.65    -0.388 OA
HETATM   25  C10 MIQ B 502      21.152  -4.242  25.231  1.00147.44     0.187 C 
HETATM   26  C11 MIQ B 502      19.980  -4.089  24.268  1.00144.08     0.149 C 
ENDBRANCH   5  21
TORSDOF 2
ENDMDL
MODEL 9
REMARK VINA RESULT:      -5.8      5.966      8.997
REMARK  2 active torsions:
REMARK  status: ('A' for Active; 'I' for Inactive)
REMARK    1  A    between atoms: C5_5  and  N6_21 
REMARK    2  A    between atoms: C18_14  and  N17_19 
ROOT
HETATM    1  O1  MIQ B 502       8.615  -6.878  20.596  1.00142.91    -0.171 OA
HETATM    2  C2  MIQ B 502       8.609  -5.811  21.497  1.00141.17     0.195 A 
HETATM    3  C3  MIQ B 502       9.766  -5.419  22.470  1.00141.71     0.035 A 
HETATM    4  C4  MIQ B 502      11.112  -5.983  22.733  1.00142.86     0.046 A 
HETATM    5  C5  MIQ B 502      11.960  -5.391  23.702  1.00139.53     0.031 A 
HETATM    6  C12 MIQ B 502      11.506  -4.223  24.443  1.00139.38     0.030 A 
HETATM    7  C13 MIQ B 502      10.216  -3.682  24.191  1.00141.18     0.019 A 
HETATM    8  C14 MIQ B 502       9.331  -4.306  23.170  1.00138.77     0.033 A 
HETATM    9  C15 MIQ B 502       7.896  -4.004  22.628  1.00142.10     0.195 A 
HETATM   10  N17 MIQ B 502       7.651  -4.925  21.711  1.00139.42    -0.288 N 
HETATM   11  O16 MIQ B 502       7.048  -2.973  23.036  1.00148.93    -0.171 OA
ENDROOT
BRANCH  10  12
HETATM   12  C18 MIQ B 502       6.388  -4.966  20.997  1.00139.82     0.187 C 
HETATM   13  C19 MIQ B 502       5.821  -6.384  21.132  1.00140.06     0.247 C 
HETATM   14  O25 MIQ B 502       5.737  -6.871  22.203  1.00143.95    -0.271 OA
HETATM   15  N20 MIQ B 502       5.378  -7.142  19.980  1.00140.02    -0.296 N 
HETATM   16  H13 MIQ B 502       5.015  -8.070  20.080  1.00142.77     0.171 HD
HETATM   17  C21 MIQ B 502       5.500  -6.530  18.682  1.00142.22     0.224 C 
HETATM   18  C22 MIQ B 502       6.682  -5.603  18.474  1.00139.52     0.106 C 
HETATM   19  O24 MIQ B 502       4.713  -6.736  17.825  1.00146.13    -0.273 OA
HETATM   20  C23 MIQ B 502       6.584  -4.532  19.545  1.00139.15     0.045 C 
ENDBRANCH  10  12
BRANCH   5  21
HETATM   21  N6  MIQ B 502      13.269  -5.963  23.960  1.00140.95    -0.377 N 
HETATM   22  C7  MIQ B 502      13.419  -6.881  25.076  1.00142.12     0.149 C 
HETATM   23  C8  MIQ B 502      14.842  -6.887  25.619  1.00144.10     0.187 C 
HETATM   24  O9  MIQ B 502      15.807  -7.004  24.616  1.00148.65    -0.388 OA
HETATM   25  C10 MIQ B 502      15.447  -6.885  23.272  1.00147.44     0.187 C 
HETATM   26  C11 MIQ B 502      14.271  -5.984  22.908  1.00144.08     0.149 C 
ENDBRANCH   5  21
TORSDOF 2
ENDMDL
