MODEL 1
REMARK VINA RESULT:      -6.6      0.000      0.000
REMARK  2 active torsions:
REMARK  status: ('A' for Active; 'I' for Inactive)
REMARK    1  A    between atoms: C5_5  and  N6_21 
REMARK    2  A    between atoms: C18_14  and  N17_19 
ROOT
HETATM    1  O1  MIQ B 502      -3.045  15.828   9.479  1.00142.91    -0.171 OA
HETATM    2  C2  MIQ B 502      -3.944  16.896   9.541  1.00141.17     0.195 A 
HETATM    3  C3  MIQ B 502      -4.709  17.529   8.336  1.00141.71     0.035 A 
HETATM    4  C4  MIQ B 502      -4.738  17.240   6.883  1.00142.86     0.046 A 
HETATM    5  C5  MIQ B 502      -5.556  18.009   6.016  1.00139.53     0.031 A 
HETATM    6  C12 MIQ B 502      -6.371  19.086   6.558  1.00139.38     0.030 A 
HETATM    7  C13 MIQ B 502      -6.344  19.362   7.951  1.00141.18     0.019 A 
HETATM    8  C14 MIQ B 502      -5.486  18.551   8.857  1.00138.77     0.033 A 
HETATM    9  C15 MIQ B 502      -5.201  18.551  10.395  1.00142.10     0.195 A 
HETATM   10  N17 MIQ B 502      -4.333  17.577  10.606  1.00139.42    -0.288 N 
HETATM   11  O16 MIQ B 502      -5.753  19.411  11.346  1.00148.93    -0.171 OA
ENDROOT
BRANCH  10  12
HETATM   12  C18 MIQ B 502      -3.823  17.291  11.934  1.00139.82     0.187 C 
HETATM   13  C19 MIQ B 502      -2.296  17.188  11.836  1.00140.06     0.247 C 
HETATM   14  O25 MIQ B 502      -1.692  18.055  11.310  1.00143.95    -0.271 OA
HETATM   15  N20 MIQ B 502      -1.570  16.058  12.379  1.00140.02    -0.296 N 
HETATM   16  H13 MIQ B 502      -0.574  15.999  12.303  1.00142.77     0.171 HD
HETATM   17  C21 MIQ B 502      -2.329  15.008  13.007  1.00142.22     0.224 C 
HETATM   18  C22 MIQ B 502      -3.704  14.723  12.432  1.00139.52     0.106 C 
HETATM   19  O24 MIQ B 502      -1.902  14.403  13.928  1.00146.13    -0.273 OA
HETATM   20  C23 MIQ B 502      -4.476  16.028  12.494  1.00139.15     0.045 C 
ENDBRANCH  10  12
BRANCH   5  21
HETATM   21  N6  MIQ B 502      -5.564  17.725   4.592  1.00140.95    -0.377 N 
HETATM   22  C7  MIQ B 502      -6.255  16.536   4.125  1.00142.12     0.149 C 
HETATM   23  C8  MIQ B 502      -5.675  16.017   2.815  1.00144.10     0.187 C 
HETATM   24  O9  MIQ B 502      -5.504  17.022   1.861  1.00148.65    -0.388 OA
HETATM   25  C10 MIQ B 502      -5.647  18.366   2.216  1.00147.44     0.187 C 
HETATM   26  C11 MIQ B 502      -5.295  18.787   3.639  1.00144.08     0.149 C 
ENDBRANCH   5  21
TORSDOF 2
ENDMDL
MODEL 2
REMARK VINA RESULT:      -6.3      1.851      2.621
REMARK  2 active torsions:
REMARK  status: ('A' for Active; 'I' for Inactive)
REMARK    1  A    between atoms: C5_5  and  N6_21 
REMARK    2  A    between atoms: C18_14  and  N17_19 
ROOT
HETATM    1  O1  MIQ B 502      -3.215  17.669   7.767  1.00142.91    -0.171 OA
HETATM    2  C2  MIQ B 502      -4.517  18.174   7.755  1.00141.17     0.195 A 
HETATM    3  C3  MIQ B 502      -5.354  18.537   6.487  1.00141.71     0.035 A 
HETATM    4  C4  MIQ B 502      -5.079  18.472   5.032  1.00142.86     0.046 A 
HETATM    5  C5  MIQ B 502      -6.063  18.881   4.097  1.00139.53     0.031 A 
HETATM    6  C12 MIQ B 502      -7.351  19.367   4.571  1.00139.38     0.030 A 
HETATM    7  C13 MIQ B 502      -7.616  19.429   5.966  1.00141.18     0.019 A 
HETATM    8  C14 MIQ B 502      -6.579  18.996   6.942  1.00138.77     0.033 A 
HETATM    9  C15 MIQ B 502      -6.503  18.916   8.502  1.00142.10     0.195 A 
HETATM   10  N17 MIQ B 502      -5.301  18.441   8.785  1.00139.42    -0.288 N 
HETATM   11  O16 MIQ B 502      -7.502  19.278   9.407  1.00148.93    -0.171 OA
ENDROOT
BRANCH  10  12
HETATM   12  C18 MIQ B 502      -4.868  18.246  10.156  1.00139.82     0.187 C 
HETATM   13  C19 MIQ B 502      -3.543  18.997  10.339  1.00140.06     0.247 C 
HETATM   14  O25 MIQ B 502      -3.472  20.128  10.012  1.00143.95    -0.271 OA
HETATM   15  N20 MIQ B 502      -2.375  18.357  10.910  1.00140.02    -0.296 N 
HETATM   16  H13 MIQ B 502      -1.514  18.856  11.018  1.00142.77     0.171 HD
HETATM   17  C21 MIQ B 502      -2.484  16.973  11.292  1.00142.22     0.224 C 
HETATM   18  C22 MIQ B 502      -3.393  16.102  10.447  1.00139.52     0.106 C 
HETATM   19  O24 MIQ B 502      -1.896  16.541  12.222  1.00146.13    -0.273 OA
HETATM   20  C23 MIQ B 502      -4.763  16.755  10.474  1.00139.15     0.045 C 
ENDBRANCH  10  12
BRANCH   5  21
HETATM   21  N6  MIQ B 502      -5.775  18.826   2.676  1.00140.95    -0.377 N 
HETATM   22  C7  MIQ B 502      -5.434  20.059   1.988  1.00142.12     0.149 C 
HETATM   23  C8  MIQ B 502      -5.787  20.000   0.507  1.00144.10     0.187 C 
HETATM   24  O9  MIQ B 502      -5.344  18.830  -0.111  1.00148.65    -0.388 OA
HETATM   25  C10 MIQ B 502      -4.849  17.769   0.653  1.00147.44     0.187 C 
HETATM   26  C11 MIQ B 502      -5.401  17.565   2.060  1.00144.08     0.149 C 
ENDBRANCH   5  21
TORSDOF 2
ENDMDL
MODEL 3
REMARK VINA RESULT:      -6.3      3.081      8.371
REMARK  2 active torsions:
REMARK  status: ('A' for Active; 'I' for Inactive)
REMARK    1  A    between atoms: C5_5  and  N6_21 
REMARK    2  A    between atoms: C18_14  and  N17_19 
ROOT
HETATM    1  O1  MIQ B 502      -5.993  21.255   6.925  1.00142.91    -0.171 OA
HETATM    2  C2  MIQ B 502      -5.961  19.969   6.382  1.00141.17     0.195 A 
HETATM    3  C3  MIQ B 502      -5.275  18.717   7.017  1.00141.71     0.035 A 
HETATM    4  C4  MIQ B 502      -4.515  18.498   8.271  1.00142.86     0.046 A 
HETATM    5  C5  MIQ B 502      -4.003  17.213   8.583  1.00139.53     0.031 A 
HETATM    6  C12 MIQ B 502      -4.225  16.104   7.666  1.00139.38     0.030 A 
HETATM    7  C13 MIQ B 502      -4.955  16.314   6.465  1.00141.18     0.019 A 
HETATM    8  C14 MIQ B 502      -5.492  17.665   6.143  1.00138.77     0.033 A 
HETATM    9  C15 MIQ B 502      -6.319  18.266   4.960  1.00142.10     0.195 A 
HETATM   10  N17 MIQ B 502      -6.493  19.545   5.249  1.00139.42    -0.288 N 
HETATM   11  O16 MIQ B 502      -6.774  17.586   3.829  1.00148.93    -0.171 OA
ENDROOT
BRANCH  10  12
HETATM   12  C18 MIQ B 502      -7.213  20.432   4.355  1.00139.82     0.187 C 
HETATM   13  C19 MIQ B 502      -6.260  21.562   3.948  1.00140.06     0.247 C 
HETATM   14  O25 MIQ B 502      -5.190  21.290   3.532  1.00143.95    -0.271 OA
HETATM   15  N20 MIQ B 502      -6.637  22.956   4.056  1.00140.02    -0.296 N 
HETATM   16  H13 MIQ B 502      -6.003  23.684   3.793  1.00142.77     0.171 HD
HETATM   17  C21 MIQ B 502      -7.945  23.262   4.577  1.00142.22     0.224 C 
HETATM   18  C22 MIQ B 502      -8.494  22.324   5.634  1.00139.52     0.106 C 
HETATM   19  O24 MIQ B 502      -8.559  24.196   4.193  1.00146.13    -0.273 OA
HETATM   20  C23 MIQ B 502      -8.493  20.935   5.022  1.00139.15     0.045 C 
ENDBRANCH  10  12
BRANCH   5  21
HETATM   21  N6  MIQ B 502      -3.248  17.016   9.807  1.00140.95    -0.377 N 
HETATM   22  C7  MIQ B 502      -3.271  18.063  10.813  1.00142.12     0.149 C 
HETATM   23  C8  MIQ B 502      -2.016  18.050  11.677  1.00144.10     0.187 C 
HETATM   24  O9  MIQ B 502      -1.694  16.776  12.148  1.00148.65    -0.388 OA
HETATM   25  C10 MIQ B 502      -2.354  15.650  11.651  1.00147.44     0.187 C 
HETATM   26  C11 MIQ B 502      -2.860  15.676  10.212  1.00144.08     0.149 C 
ENDBRANCH   5  21
TORSDOF 2
ENDMDL
MODEL 4
REMARK VINA RESULT:      -6.2      2.132      8.140
REMARK  2 active torsions:
REMARK  status: ('A' for Active; 'I' for Inactive)
REMARK    1  A    between atoms: C5_5  and  N6_21 
REMARK    2  A    between atoms: C18_14  and  N17_19 
ROOT
HETATM    1  O1  MIQ B 502      -4.699  18.267   5.063  1.00142.91    -0.171 OA
HETATM    2  C2  MIQ B 502      -5.674  18.669   5.979  1.00141.17     0.195 A 
HETATM    3  C3  MIQ B 502      -5.611  18.497   7.530  1.00141.71     0.035 A 
HETATM    4  C4  MIQ B 502      -4.605  17.915   8.450  1.00142.86     0.046 A 
HETATM    5  C5  MIQ B 502      -4.835  17.904   9.849  1.00139.53     0.031 A 
HETATM    6  C12 MIQ B 502      -6.067  18.466  10.383  1.00139.38     0.030 A 
HETATM    7  C13 MIQ B 502      -7.031  19.024   9.501  1.00141.18     0.019 A 
HETATM    8  C14 MIQ B 502      -6.783  19.036   8.034  1.00138.77     0.033 A 
HETATM    9  C15 MIQ B 502      -7.578  19.548   6.788  1.00142.10     0.195 A 
HETATM   10  N17 MIQ B 502      -6.826  19.271   5.736  1.00139.42    -0.288 N 
HETATM   11  O16 MIQ B 502      -8.829  20.167   6.792  1.00148.93    -0.171 OA
ENDROOT
BRANCH  10  12
HETATM   12  C18 MIQ B 502      -7.260  19.594   4.389  1.00139.82     0.187 C 
HETATM   13  C19 MIQ B 502      -6.965  18.380   3.499  1.00140.06     0.247 C 
HETATM   14  O25 MIQ B 502      -7.338  17.313   3.838  1.00143.95    -0.271 OA
HETATM   15  N20 MIQ B 502      -6.245  18.507   2.249  1.00140.02    -0.296 N 
HETATM   16  H13 MIQ B 502      -6.053  17.706   1.680  1.00142.77     0.171 HD
HETATM   17  C21 MIQ B 502      -5.791  19.818   1.862  1.00142.22     0.224 C 
HETATM   18  C22 MIQ B 502      -5.382  20.755   2.981  1.00139.52     0.106 C 
HETATM   19  O24 MIQ B 502      -5.746  20.146   0.727  1.00146.13    -0.273 OA
HETATM   20  C23 MIQ B 502      -6.581  20.874   3.905  1.00139.15     0.045 C 
ENDBRANCH  10  12
BRANCH   5  21
HETATM   21  N6  MIQ B 502      -3.848  17.318  10.737  1.00140.95    -0.377 N 
HETATM   22  C7  MIQ B 502      -3.163  16.109  10.313  1.00142.12     0.149 C 
HETATM   23  C8  MIQ B 502      -2.690  15.277  11.499  1.00144.10     0.187 C 
HETATM   24  O9  MIQ B 502      -2.022  16.036  12.463  1.00148.65    -0.388 OA
HETATM   25  C10 MIQ B 502      -2.030  17.431  12.396  1.00147.44     0.187 C 
HETATM   26  C11 MIQ B 502      -3.242  18.125  11.782  1.00144.08     0.149 C 
ENDBRANCH   5  21
TORSDOF 2
ENDMDL
MODEL 5
REMARK VINA RESULT:      -6.1     24.234     25.827
REMARK  2 active torsions:
REMARK  status: ('A' for Active; 'I' for Inactive)
REMARK    1  A    between atoms: C5_5  and  N6_21 
REMARK    2  A    between atoms: C18_14  and  N17_19 
ROOT
HETATM    1  O1  MIQ B 502      -6.990  19.800 -18.258  1.00142.91    -0.171 OA
HETATM    2  C2  MIQ B 502      -6.018  19.502 -17.301  1.00141.17     0.195 A 
HETATM    3  C3  MIQ B 502      -4.950  20.491 -16.732  1.00141.71     0.035 A 
HETATM    4  C4  MIQ B 502      -4.647  21.919 -16.986  1.00142.86     0.046 A 
HETATM    5  C5  MIQ B 502      -3.587  22.561 -16.296  1.00139.53     0.031 A 
HETATM    6  C12 MIQ B 502      -2.795  21.811 -15.332  1.00139.38     0.030 A 
HETATM    7  C13 MIQ B 502      -3.086  20.442 -15.087  1.00141.18     0.019 A 
HETATM    8  C14 MIQ B 502      -4.201  19.775 -15.813  1.00138.77     0.033 A 
HETATM    9  C15 MIQ B 502      -4.807  18.333 -15.811  1.00142.10     0.195 A 
HETATM   10  N17 MIQ B 502      -5.801  18.353 -16.684  1.00139.42    -0.288 N 
HETATM   11  O16 MIQ B 502      -4.380  17.248 -15.044  1.00148.93    -0.171 OA
ENDROOT
BRANCH  10  12
HETATM   12  C18 MIQ B 502      -6.592  17.168 -16.958  1.00139.82     0.187 C 
HETATM   13  C19 MIQ B 502      -7.009  16.562 -15.613  1.00140.06     0.247 C 
HETATM   14  O25 MIQ B 502      -7.517  17.252 -14.803  1.00143.95    -0.271 OA
HETATM   15  N20 MIQ B 502      -6.801  15.161 -15.310  1.00140.02    -0.296 N 
HETATM   16  H13 MIQ B 502      -7.072  14.779 -14.425  1.00142.77     0.171 HD
HETATM   17  C21 MIQ B 502      -6.169  14.340 -16.310  1.00142.22     0.224 C 
HETATM   18  C22 MIQ B 502      -5.124  15.011 -17.180  1.00139.52     0.106 C 
HETATM   19  O24 MIQ B 502      -6.457  13.202 -16.448  1.00146.13    -0.273 OA
HETATM   20  C23 MIQ B 502      -5.806  16.197 -17.838  1.00139.15     0.045 C 
ENDBRANCH  10  12
BRANCH   5  21
HETATM   21  N6  MIQ B 502      -3.292  23.956 -16.566  1.00140.95    -0.377 N 
HETATM   22  C7  MIQ B 502      -4.168  24.691 -17.461  1.00142.12     0.149 C 
HETATM   23  C8  MIQ B 502      -3.444  25.844 -18.146  1.00144.10     0.187 C 
HETATM   24  O9  MIQ B 502      -2.707  26.627 -17.256  1.00148.65    -0.388 OA
HETATM   25  C10 MIQ B 502      -2.507  26.205 -15.939  1.00147.44     0.187 C 
HETATM   26  C11 MIQ B 502      -2.447  24.708 -15.654  1.00144.08     0.149 C 
ENDBRANCH   5  21
TORSDOF 2
ENDMDL
MODEL 6
REMARK VINA RESULT:      -5.9     23.774     26.582
REMARK  2 active torsions:
REMARK  status: ('A' for Active; 'I' for Inactive)
REMARK    1  A    between atoms: C5_5  and  N6_21 
REMARK    2  A    between atoms: C18_14  and  N17_19 
ROOT
HETATM    1  O1  MIQ B 502      -3.841  17.072 -17.610  1.00142.91    -0.171 OA
HETATM    2  C2  MIQ B 502      -2.775  17.688 -16.950  1.00141.17     0.195 A 
HETATM    3  C3  MIQ B 502      -1.264  17.572 -17.330  1.00141.71     0.035 A 
HETATM    4  C4  MIQ B 502      -0.535  16.852 -18.401  1.00142.86     0.046 A 
HETATM    5  C5  MIQ B 502       0.877  16.942 -18.493  1.00139.53     0.031 A 
HETATM    6  C12 MIQ B 502       1.613  17.748 -17.529  1.00139.38     0.030 A 
HETATM    7  C13 MIQ B 502       0.915  18.439 -16.503  1.00141.18     0.019 A 
HETATM    8  C14 MIQ B 502      -0.568  18.343 -16.413  1.00138.77     0.033 A 
HETATM    9  C15 MIQ B 502      -1.653  18.941 -15.460  1.00142.10     0.195 A 
HETATM   10  N17 MIQ B 502      -2.815  18.484 -15.896  1.00139.42    -0.288 N 
HETATM   11  O16 MIQ B 502      -1.433  19.784 -14.369  1.00148.93    -0.171 OA
ENDROOT
BRANCH  10  12
HETATM   12  C18 MIQ B 502      -4.060  18.825 -15.233  1.00139.82     0.187 C 
HETATM   13  C19 MIQ B 502      -4.781  17.516 -14.889  1.00140.06     0.247 C 
HETATM   14  O25 MIQ B 502      -4.195  16.669 -14.315  1.00143.95    -0.271 OA
HETATM   15  N20 MIQ B 502      -6.167  17.292 -15.245  1.00140.02    -0.296 N 
HETATM   16  H13 MIQ B 502      -6.625  16.430 -15.021  1.00142.77     0.171 HD
HETATM   17  C21 MIQ B 502      -6.859  18.337 -15.956  1.00142.22     0.224 C 
HETATM   18  C22 MIQ B 502      -6.034  19.167 -16.920  1.00139.52     0.106 C 
HETATM   19  O24 MIQ B 502      -8.011  18.538 -15.789  1.00146.13    -0.273 OA
HETATM   20  C23 MIQ B 502      -4.892  19.757 -16.113  1.00139.15     0.045 C 
ENDBRANCH  10  12
BRANCH   5  21
HETATM   21  N6  MIQ B 502       1.579  16.220 -19.538  1.00140.95    -0.377 N 
HETATM   22  C7  MIQ B 502       2.764  15.458 -19.180  1.00142.12     0.149 C 
HETATM   23  C8  MIQ B 502       3.722  15.312 -20.355  1.00144.10     0.187 C 
HETATM   24  O9  MIQ B 502       3.084  14.906 -21.529  1.00148.65    -0.388 OA
HETATM   25  C10 MIQ B 502       1.689  14.886 -21.606  1.00147.44     0.187 C 
HETATM   26  C11 MIQ B 502       0.898  15.895 -20.779  1.00144.08     0.149 C 
ENDBRANCH   5  21
TORSDOF 2
ENDMDL
MODEL 7
REMARK VINA RESULT:      -5.9     21.266     24.298
REMARK  2 active torsions:
REMARK  status: ('A' for Active; 'I' for Inactive)
REMARK    1  A    between atoms: C5_5  and  N6_21 
REMARK    2  A    between atoms: C18_14  and  N17_19 
ROOT
HETATM    1  O1  MIQ B 502      -9.442  38.968  -0.299  1.00142.91    -0.171 OA
HETATM    2  C2  MIQ B 502      -9.613  38.315  -1.522  1.00141.17     0.195 A 
HETATM    3  C3  MIQ B 502      -8.541  37.459  -2.268  1.00141.71     0.035 A 
HETATM    4  C4  MIQ B 502      -7.138  37.090  -1.962  1.00142.86     0.046 A 
HETATM    5  C5  MIQ B 502      -6.400  36.275  -2.857  1.00139.53     0.031 A 
HETATM    6  C12 MIQ B 502      -7.024  35.799  -4.083  1.00139.38     0.030 A 
HETATM    7  C13 MIQ B 502      -8.369  36.152  -4.376  1.00141.18     0.019 A 
HETATM    8  C14 MIQ B 502      -9.140  37.005  -3.432  1.00138.77     0.033 A 
HETATM    9  C15 MIQ B 502     -10.593  37.582  -3.408  1.00142.10     0.195 A 
HETATM   10  N17 MIQ B 502     -10.691  38.278  -2.287  1.00139.42    -0.288 N 
HETATM   11  O16 MIQ B 502     -11.581  37.399  -4.377  1.00148.93    -0.171 OA
ENDROOT
BRANCH  10  12
HETATM   12  C18 MIQ B 502     -11.912  38.978  -1.934  1.00139.82     0.187 C 
HETATM   13  C19 MIQ B 502     -11.551  40.443  -1.665  1.00140.06     0.247 C 
HETATM   14  O25 MIQ B 502     -10.919  41.037  -2.465  1.00143.95    -0.271 OA
HETATM   15  N20 MIQ B 502     -11.969  41.124  -0.456  1.00140.02    -0.296 N 
HETATM   16  H13 MIQ B 502     -11.720  42.079  -0.290  1.00142.77     0.171 HD
HETATM   17  C21 MIQ B 502     -12.730  40.375   0.510  1.00142.22     0.224 C 
HETATM   18  C22 MIQ B 502     -12.407  38.899   0.636  1.00139.52     0.106 C 
HETATM   19  O24 MIQ B 502     -13.569  40.887   1.167  1.00146.13    -0.273 OA
HETATM   20  C23 MIQ B 502     -12.590  38.298  -0.746  1.00139.15     0.045 C 
ENDBRANCH  10  12
BRANCH   5  21
HETATM   21  N6  MIQ B 502      -5.022  35.934  -2.552  1.00140.95    -0.377 N 
HETATM   22  C7  MIQ B 502      -4.241  35.233  -3.557  1.00142.12     0.149 C 
HETATM   23  C8  MIQ B 502      -3.129  34.399  -2.933  1.00144.10     0.187 C 
HETATM   24  O9  MIQ B 502      -2.386  35.106  -1.986  1.00148.65    -0.388 OA
HETATM   25  C10 MIQ B 502      -2.819  36.357  -1.537  1.00147.44     0.187 C 
HETATM   26  C11 MIQ B 502      -4.317  36.640  -1.497  1.00144.08     0.149 C 
ENDBRANCH   5  21
TORSDOF 2
ENDMDL
MODEL 8
REMARK VINA RESULT:      -5.9     24.381     26.208
REMARK  2 active torsions:
REMARK  status: ('A' for Active; 'I' for Inactive)
REMARK    1  A    between atoms: C5_5  and  N6_21 
REMARK    2  A    between atoms: C18_14  and  N17_19 
ROOT
HETATM    1  O1  MIQ B 502     -17.659  25.047  -8.671  1.00142.91    -0.171 OA
HETATM    2  C2  MIQ B 502     -17.705  25.351 -10.034  1.00141.17     0.195 A 
HETATM    3  C3  MIQ B 502     -17.737  26.782 -10.658  1.00141.71     0.035 A 
HETATM    4  C4  MIQ B 502     -17.728  28.147 -10.080  1.00142.86     0.046 A 
HETATM    5  C5  MIQ B 502     -17.764  29.284 -10.927  1.00139.53     0.031 A 
HETATM    6  C12 MIQ B 502     -17.810  29.109 -12.371  1.00139.38     0.030 A 
HETATM    7  C13 MIQ B 502     -17.818  27.800 -12.926  1.00141.18     0.019 A 
HETATM    8  C14 MIQ B 502     -17.778  26.610 -12.032  1.00138.77     0.033 A 
HETATM    9  C15 MIQ B 502     -17.770  25.064 -12.262  1.00142.10     0.195 A 
HETATM   10  N17 MIQ B 502     -17.725  24.516 -11.058  1.00139.42    -0.288 N 
HETATM   11  O16 MIQ B 502     -17.805  24.401 -13.490  1.00148.93    -0.171 OA
ENDROOT
BRANCH  10  12
HETATM   12  C18 MIQ B 502     -17.721  23.076 -10.881  1.00139.82     0.187 C 
HETATM   13  C19 MIQ B 502     -16.610  22.499 -11.767  1.00140.06     0.247 C 
HETATM   14  O25 MIQ B 502     -15.524  22.954 -11.698  1.00143.95    -0.271 OA
HETATM   15  N20 MIQ B 502     -16.855  21.405 -12.684  1.00140.02    -0.296 N 
HETATM   16  H13 MIQ B 502     -16.123  21.041 -13.261  1.00142.77     0.171 HD
HETATM   17  C21 MIQ B 502     -18.191  20.873 -12.757  1.00142.22     0.224 C 
HETATM   18  C22 MIQ B 502     -19.328  21.855 -12.550  1.00139.52     0.106 C 
HETATM   19  O24 MIQ B 502     -18.389  19.726 -12.963  1.00146.13    -0.273 OA
HETATM   20  C23 MIQ B 502     -19.100  22.498 -11.194  1.00139.15     0.045 C 
ENDBRANCH  10  12
BRANCH   5  21
HETATM   21  N6  MIQ B 502     -17.769  30.615 -10.346  1.00140.95    -0.377 N 
HETATM   22  C7  MIQ B 502     -19.045  31.218 -10.003  1.00142.12     0.149 C 
HETATM   23  C8  MIQ B 502     -18.981  32.740 -10.034  1.00144.10     0.187 C 
HETATM   24  O9  MIQ B 502     -17.877  33.251  -9.350  1.00148.65    -0.388 OA
HETATM   25  C10 MIQ B 502     -16.858  32.400  -8.915  1.00147.44     0.187 C 
HETATM   26  C11 MIQ B 502     -16.567  31.138  -9.720  1.00144.08     0.149 C 
ENDBRANCH   5  21
TORSDOF 2
ENDMDL
MODEL 9
REMARK VINA RESULT:      -5.9     21.973     27.667
REMARK  2 active torsions:
REMARK  status: ('A' for Active; 'I' for Inactive)
REMARK    1  A    between atoms: C5_5  and  N6_21 
REMARK    2  A    between atoms: C18_14  and  N17_19 
ROOT
HETATM    1  O1  MIQ B 502      -3.065  26.139 -15.296  1.00142.91    -0.171 OA
HETATM    2  C2  MIQ B 502      -3.023  25.337 -16.439  1.00141.17     0.195 A 
HETATM    3  C3  MIQ B 502      -3.117  23.778 -16.475  1.00141.71     0.035 A 
HETATM    4  C4  MIQ B 502      -3.270  22.742 -15.426  1.00142.86     0.046 A 
HETATM    5  C5  MIQ B 502      -3.328  21.370 -15.778  1.00139.53     0.031 A 
HETATM    6  C12 MIQ B 502      -3.238  20.978 -17.177  1.00139.38     0.030 A 
HETATM    7  C13 MIQ B 502      -3.093  21.971 -18.183  1.00141.18     0.019 A 
HETATM    8  C14 MIQ B 502      -3.035  23.411 -17.808  1.00138.77     0.033 A 
HETATM    9  C15 MIQ B 502      -2.890  24.749 -18.604  1.00142.10     0.195 A 
HETATM   10  N17 MIQ B 502      -2.904  25.714 -17.700  1.00139.42    -0.288 N 
HETATM   11  O16 MIQ B 502      -2.768  24.889 -19.987  1.00148.93    -0.171 OA
ENDROOT
BRANCH  10  12
HETATM   12  C18 MIQ B 502      -2.772  27.109 -18.079  1.00139.82     0.187 C 
HETATM   13  C19 MIQ B 502      -3.872  27.421 -19.101  1.00140.06     0.247 C 
HETATM   14  O25 MIQ B 502      -4.989  27.137 -18.850  1.00143.95    -0.271 OA
HETATM   15  N20 MIQ B 502      -3.580  28.063 -20.367  1.00140.02    -0.296 N 
HETATM   16  H13 MIQ B 502      -4.306  28.255 -21.028  1.00142.77     0.171 HD
HETATM   17  C21 MIQ B 502      -2.208  28.391 -20.655  1.00142.22     0.224 C 
HETATM   18  C22 MIQ B 502      -1.152  27.448 -20.109  1.00139.52     0.106 C 
HETATM   19  O24 MIQ B 502      -1.920  29.350 -21.282  1.00146.13    -0.273 OA
HETATM   20  C23 MIQ B 502      -1.365  27.386 -18.608  1.00139.15     0.045 C 
ENDBRANCH  10  12
BRANCH   5  21
HETATM   21  N6  MIQ B 502      -3.462  20.364 -14.739  1.00140.95    -0.377 N 
HETATM   22  C7  MIQ B 502      -3.459  18.964 -15.124  1.00142.12     0.149 C 
HETATM   23  C8  MIQ B 502      -4.220  18.099 -14.127  1.00144.10     0.187 C 
HETATM   24  O9  MIQ B 502      -3.862  18.354 -12.802  1.00148.65    -0.388 OA
HETATM   25  C10 MIQ B 502      -3.065  19.456 -12.484  1.00147.44     0.187 C 
HETATM   26  C11 MIQ B 502      -3.160  20.702 -13.359  1.00144.08     0.149 C 
ENDBRANCH   5  21
TORSDOF 2
ENDMDL
