MODEL 1
REMARK VINA RESULT:      -7.0      0.000      0.000
REMARK  2 active torsions:
REMARK  status: ('A' for Active; 'I' for Inactive)
REMARK    1  A    between atoms: C5_5  and  N6_21 
REMARK    2  A    between atoms: C18_14  and  N17_19 
ROOT
HETATM    1  O1  MIQ B 502      -5.477 -20.280   6.295  1.00142.91    -0.171 OA
HETATM    2  C2  MIQ B 502      -4.842 -19.052   6.098  1.00141.17     0.195 A 
HETATM    3  C3  MIQ B 502      -3.767 -18.410   7.032  1.00141.71     0.035 A 
HETATM    4  C4  MIQ B 502      -3.128 -18.841   8.297  1.00142.86     0.046 A 
HETATM    5  C5  MIQ B 502      -2.158 -18.021   8.926  1.00139.53     0.031 A 
HETATM    6  C12 MIQ B 502      -1.787 -16.748   8.324  1.00139.38     0.030 A 
HETATM    7  C13 MIQ B 502      -2.399 -16.335   7.110  1.00141.18     0.019 A 
HETATM    8  C14 MIQ B 502      -3.416 -17.201   6.453  1.00138.77     0.033 A 
HETATM    9  C15 MIQ B 502      -4.277 -17.093   5.152  1.00142.10     0.195 A 
HETATM   10  N17 MIQ B 502      -5.006 -18.196   5.105  1.00139.42    -0.288 N 
HETATM   11  O16 MIQ B 502      -4.275 -16.042   4.233  1.00148.93    -0.171 OA
ENDROOT
BRANCH  10  12
HETATM   12  C18 MIQ B 502      -5.948 -18.434   4.027  1.00139.82     0.187 C 
HETATM   13  C19 MIQ B 502      -5.219 -18.180   2.703  1.00140.06     0.247 C 
HETATM   14  O25 MIQ B 502      -4.182 -18.708   2.506  1.00143.95    -0.271 OA
HETATM   15  N20 MIQ B 502      -5.770 -17.313   1.681  1.00140.02    -0.296 N 
HETATM   16  H13 MIQ B 502      -5.280 -17.150   0.823  1.00142.77     0.171 HD
HETATM   17  C21 MIQ B 502      -7.031 -16.673   1.949  1.00142.22     0.224 C 
HETATM   18  C22 MIQ B 502      -7.308 -16.289   3.390  1.00139.52     0.106 C 
HETATM   19  O24 MIQ B 502      -7.813 -16.462   1.088  1.00146.13    -0.273 OA
HETATM   20  C23 MIQ B 502      -7.191 -17.564   4.206  1.00139.15     0.045 C 
ENDBRANCH  10  12
BRANCH   5  21
HETATM   21  N6  MIQ B 502      -1.551 -18.449  10.173  1.00140.95    -0.377 N 
HETATM   22  C7  MIQ B 502      -1.532 -17.521  11.291  1.00142.12     0.149 C 
HETATM   23  C8  MIQ B 502      -0.374 -17.799  12.241  1.00144.10     0.187 C 
HETATM   24  O9  MIQ B 502      -0.264 -19.148  12.584  1.00148.65    -0.388 OA
HETATM   25  C10 MIQ B 502      -1.015 -20.113  11.908  1.00147.44     0.187 C 
HETATM   26  C11 MIQ B 502      -1.378 -19.865  10.448  1.00144.08     0.149 C 
ENDBRANCH   5  21
TORSDOF 2
ENDMDL
MODEL 2
REMARK VINA RESULT:      -6.7      2.032      2.365
REMARK  2 active torsions:
REMARK  status: ('A' for Active; 'I' for Inactive)
REMARK    1  A    between atoms: C5_5  and  N6_21 
REMARK    2  A    between atoms: C18_14  and  N17_19 
ROOT
HETATM    1  O1  MIQ B 502      -7.425 -18.582   7.504  1.00142.91    -0.171 OA
HETATM    2  C2  MIQ B 502      -6.625 -17.936   6.559  1.00141.17     0.195 A 
HETATM    3  C3  MIQ B 502      -5.148 -17.470   6.764  1.00141.71     0.035 A 
HETATM    4  C4  MIQ B 502      -4.204 -17.549   7.904  1.00142.86     0.046 A 
HETATM    5  C5  MIQ B 502      -2.892 -17.023   7.786  1.00139.53     0.031 A 
HETATM    6  C12 MIQ B 502      -2.473 -16.403   6.537  1.00139.38     0.030 A 
HETATM    7  C13 MIQ B 502      -3.377 -16.327   5.444  1.00141.18     0.019 A 
HETATM    8  C14 MIQ B 502      -4.752 -16.883   5.573  1.00138.77     0.033 A 
HETATM    9  C15 MIQ B 502      -5.989 -16.987   4.623  1.00142.10     0.195 A 
HETATM   10  N17 MIQ B 502      -6.935 -17.596   5.320  1.00139.42    -0.288 N 
HETATM   11  O16 MIQ B 502      -6.074 -16.527   3.308  1.00148.93    -0.171 OA
ENDROOT
BRANCH  10  12
HETATM   12  C18 MIQ B 502      -8.246 -17.852   4.754  1.00139.82     0.187 C 
HETATM   13  C19 MIQ B 502      -8.058 -18.750   3.525  1.00140.06     0.247 C 
HETATM   14  O25 MIQ B 502      -7.421 -19.738   3.625  1.00143.95    -0.271 OA
HETATM   15  N20 MIQ B 502      -8.646 -18.422   2.242  1.00140.02    -0.296 N 
HETATM   16  H13 MIQ B 502      -8.510 -19.013   1.446  1.00142.77     0.171 HD
HETATM   17  C21 MIQ B 502      -9.410 -17.206   2.142  1.00142.22     0.224 C 
HETATM   18  C22 MIQ B 502      -8.954 -16.042   2.999  1.00139.52     0.106 C 
HETATM   19  O24 MIQ B 502     -10.350 -17.124   1.430  1.00146.13    -0.273 OA
HETATM   20  C23 MIQ B 502      -8.954 -16.536   4.434  1.00139.15     0.045 C 
ENDBRANCH  10  12
BRANCH   5  21
HETATM   21  N6  MIQ B 502      -1.983 -17.095   8.915  1.00140.95    -0.377 N 
HETATM   22  C7  MIQ B 502      -2.484 -17.603  10.180  1.00142.12     0.149 C 
HETATM   23  C8  MIQ B 502      -1.706 -17.047  11.365  1.00144.10     0.187 C 
HETATM   24  O9  MIQ B 502      -0.322 -17.131  11.194  1.00148.65    -0.388 OA
HETATM   25  C10 MIQ B 502       0.217 -17.479   9.953  1.00147.44     0.187 C 
HETATM   26  C11 MIQ B 502      -0.548 -17.094   8.691  1.00144.08     0.149 C 
ENDBRANCH   5  21
TORSDOF 2
ENDMDL
MODEL 3
REMARK VINA RESULT:      -6.6     16.188     17.447
REMARK  2 active torsions:
REMARK  status: ('A' for Active; 'I' for Inactive)
REMARK    1  A    between atoms: C5_5  and  N6_21 
REMARK    2  A    between atoms: C18_14  and  N17_19 
ROOT
HETATM    1  O1  MIQ B 502      13.876 -18.679   1.160  1.00142.91    -0.171 OA
HETATM    2  C2  MIQ B 502      13.236 -17.440   1.236  1.00141.17     0.195 A 
HETATM    3  C3  MIQ B 502      12.172 -17.014   2.298  1.00141.71     0.035 A 
HETATM    4  C4  MIQ B 502      11.556 -17.705   3.455  1.00142.86     0.046 A 
HETATM    5  C5  MIQ B 502      10.593 -17.040   4.257  1.00139.53     0.031 A 
HETATM    6  C12 MIQ B 502      10.211 -15.671   3.940  1.00139.38     0.030 A 
HETATM    7  C13 MIQ B 502      10.803 -15.009   2.831  1.00141.18     0.019 A 
HETATM    8  C14 MIQ B 502      11.814 -15.711   1.995  1.00138.77     0.033 A 
HETATM    9  C15 MIQ B 502      12.660 -15.325   0.738  1.00142.10     0.195 A 
HETATM   10  N17 MIQ B 502      13.392 -16.388   0.450  1.00139.42    -0.288 N 
HETATM   11  O16 MIQ B 502      12.640 -14.105   0.060  1.00148.93    -0.171 OA
ENDROOT
BRANCH  10  12
HETATM   12  C18 MIQ B 502      14.300 -16.399  -0.682  1.00139.82     0.187 C 
HETATM   13  C19 MIQ B 502      15.242 -15.197  -0.537  1.00140.06     0.247 C 
HETATM   14  O25 MIQ B 502      15.812 -15.031   0.482  1.00143.95    -0.271 OA
HETATM   15  N20 MIQ B 502      15.458 -14.261  -1.622  1.00140.02    -0.296 N 
HETATM   16  H13 MIQ B 502      16.070 -13.477  -1.512  1.00142.77     0.171 HD
HETATM   17  C21 MIQ B 502      14.743 -14.479  -2.853  1.00142.22     0.224 C 
HETATM   18  C22 MIQ B 502      13.356 -15.081  -2.738  1.00139.52     0.106 C 
HETATM   19  O24 MIQ B 502      15.219 -14.206  -3.900  1.00146.13    -0.273 OA
HETATM   20  C23 MIQ B 502      13.516 -16.393  -1.993  1.00139.15     0.045 C 
ENDBRANCH  10  12
BRANCH   5  21
HETATM   21  N6  MIQ B 502       9.987 -17.733   5.379  1.00140.95    -0.377 N 
HETATM   22  C7  MIQ B 502       8.871 -17.103   6.063  1.00142.12     0.149 C 
HETATM   23  C8  MIQ B 502       8.763 -17.557   7.513  1.00144.10     0.187 C 
HETATM   24  O9  MIQ B 502       8.845 -18.943   7.656  1.00148.65    -0.388 OA
HETATM   25  C10 MIQ B 502       9.221 -19.745   6.575  1.00147.44     0.187 C 
HETATM   26  C11 MIQ B 502      10.171 -19.165   5.532  1.00144.08     0.149 C 
ENDBRANCH   5  21
TORSDOF 2
ENDMDL
MODEL 4
REMARK VINA RESULT:      -6.4      2.785      9.286
REMARK  2 active torsions:
REMARK  status: ('A' for Active; 'I' for Inactive)
REMARK    1  A    between atoms: C5_5  and  N6_21 
REMARK    2  A    between atoms: C18_14  and  N17_19 
ROOT
HETATM    1  O1  MIQ B 502      -4.617 -17.832   2.277  1.00142.91    -0.171 OA
HETATM    2  C2  MIQ B 502      -5.486 -17.453   3.302  1.00141.17     0.195 A 
HETATM    3  C3  MIQ B 502      -6.948 -16.932   3.126  1.00141.71     0.035 A 
HETATM    4  C4  MIQ B 502      -7.810 -16.694   1.944  1.00142.86     0.046 A 
HETATM    5  C5  MIQ B 502      -9.130 -16.204   2.106  1.00139.53     0.031 A 
HETATM    6  C12 MIQ B 502      -9.642 -15.935   3.442  1.00139.38     0.030 A 
HETATM    7  C13 MIQ B 502      -8.817 -16.165   4.576  1.00141.18     0.019 A 
HETATM    8  C14 MIQ B 502      -7.432 -16.681   4.400  1.00138.77     0.033 A 
HETATM    9  C15 MIQ B 502      -6.264 -17.049   5.372  1.00142.10     0.195 A 
HETATM   10  N17 MIQ B 502      -5.267 -17.459   4.606  1.00139.42    -0.288 N 
HETATM   11  O16 MIQ B 502      -6.276 -16.957   6.765  1.00148.93    -0.171 OA
ENDROOT
BRANCH  10  12
HETATM   12  C18 MIQ B 502      -3.997 -17.872   5.173  1.00139.82     0.187 C 
HETATM   13  C19 MIQ B 502      -4.279 -18.978   6.197  1.00140.06     0.247 C 
HETATM   14  O25 MIQ B 502      -4.940 -19.902   5.880  1.00143.95    -0.271 OA
HETATM   15  N20 MIQ B 502      -3.750 -18.924   7.545  1.00140.02    -0.296 N 
HETATM   16  H13 MIQ B 502      -3.947 -19.649   8.206  1.00142.77     0.171 HD
HETATM   17  C21 MIQ B 502      -2.954 -17.781   7.912  1.00142.22     0.224 C 
HETATM   18  C22 MIQ B 502      -3.327 -16.457   7.272  1.00139.52     0.106 C 
HETATM   19  O24 MIQ B 502      -2.052 -17.874   8.669  1.00146.13    -0.273 OA
HETATM   20  C23 MIQ B 502      -3.266 -16.671   5.771  1.00139.15     0.045 C 
ENDBRANCH  10  12
BRANCH   5  21
HETATM   21  N6  MIQ B 502      -9.958 -15.962   0.938  1.00140.95    -0.377 N 
HETATM   22  C7  MIQ B 502     -10.789 -17.044   0.439  1.00142.12     0.149 C 
HETATM   23  C8  MIQ B 502     -11.069 -16.903  -1.052  1.00144.10     0.187 C 
HETATM   24  O9  MIQ B 502     -11.484 -15.619  -1.408  1.00148.65    -0.388 OA
HETATM   25  C10 MIQ B 502     -11.400 -14.568  -0.491  1.00147.44     0.187 C 
HETATM   26  C11 MIQ B 502     -10.293 -14.601   0.557  1.00144.08     0.149 C 
ENDBRANCH   5  21
TORSDOF 2
ENDMDL
MODEL 5
REMARK VINA RESULT:      -6.4      2.009      2.528
REMARK  2 active torsions:
REMARK  status: ('A' for Active; 'I' for Inactive)
REMARK    1  A    between atoms: C5_5  and  N6_21 
REMARK    2  A    between atoms: C18_14  and  N17_19 
ROOT
HETATM    1  O1  MIQ B 502      -7.083 -18.368   6.490  1.00142.91    -0.171 OA
HETATM    2  C2  MIQ B 502      -5.980 -17.675   5.987  1.00141.17     0.195 A 
HETATM    3  C3  MIQ B 502      -4.646 -17.388   6.748  1.00141.71     0.035 A 
HETATM    4  C4  MIQ B 502      -4.157 -17.720   8.108  1.00142.86     0.046 A 
HETATM    5  C5  MIQ B 502      -2.864 -17.313   8.523  1.00139.53     0.031 A 
HETATM    6  C12 MIQ B 502      -2.013 -16.566   7.609  1.00139.38     0.030 A 
HETATM    7  C13 MIQ B 502      -2.481 -16.248   6.305  1.00141.18     0.019 A 
HETATM    8  C14 MIQ B 502      -3.839 -16.680   5.873  1.00138.77     0.033 A 
HETATM    9  C15 MIQ B 502      -4.675 -16.527   4.561  1.00142.10     0.195 A 
HETATM   10  N17 MIQ B 502      -5.828 -17.134   4.791  1.00139.42    -0.288 N 
HETATM   11  O16 MIQ B 502      -4.281 -15.879   3.390  1.00148.93    -0.171 OA
ENDROOT
BRANCH  10  12
HETATM   12  C18 MIQ B 502      -6.874 -17.178   3.786  1.00139.82     0.187 C 
HETATM   13  C19 MIQ B 502      -8.151 -16.605   4.413  1.00140.06     0.247 C 
HETATM   14  O25 MIQ B 502      -8.106 -15.559   4.956  1.00143.95    -0.271 OA
HETATM   15  N20 MIQ B 502      -9.414 -17.311   4.353  1.00140.02    -0.296 N 
HETATM   16  H13 MIQ B 502     -10.239 -16.929   4.772  1.00142.77     0.171 HD
HETATM   17  C21 MIQ B 502      -9.441 -18.591   3.694  1.00142.22     0.224 C 
HETATM   18  C22 MIQ B 502      -8.190 -19.442   3.807  1.00139.52     0.106 C 
HETATM   19  O24 MIQ B 502     -10.390 -18.957   3.091  1.00146.13    -0.273 OA
HETATM   20  C23 MIQ B 502      -7.048 -18.603   3.263  1.00139.15     0.045 C 
ENDBRANCH  10  12
BRANCH   5  21
HETATM   21  N6  MIQ B 502      -2.403 -17.633   9.862  1.00140.95    -0.377 N 
HETATM   22  C7  MIQ B 502      -2.988 -18.774  10.544  1.00142.12     0.149 C 
HETATM   23  C8  MIQ B 502      -2.930 -18.623  12.059  1.00144.10     0.187 C 
HETATM   24  O9  MIQ B 502      -1.670 -18.235  12.518  1.00148.65    -0.388 OA
HETATM   25  C10 MIQ B 502      -0.686 -17.819  11.618  1.00147.44     0.187 C 
HETATM   26  C11 MIQ B 502      -1.121 -17.133  10.327  1.00144.08     0.149 C 
ENDBRANCH   5  21
TORSDOF 2
ENDMDL
MODEL 6
REMARK VINA RESULT:      -6.3      2.100      8.278
REMARK  2 active torsions:
REMARK  status: ('A' for Active; 'I' for Inactive)
REMARK    1  A    between atoms: C5_5  and  N6_21 
REMARK    2  A    between atoms: C18_14  and  N17_19 
ROOT
HETATM    1  O1  MIQ B 502      -5.531 -19.829   8.219  1.00142.91    -0.171 OA
HETATM    2  C2  MIQ B 502      -4.762 -18.803   7.665  1.00141.17     0.195 A 
HETATM    3  C3  MIQ B 502      -5.097 -17.995   6.371  1.00141.71     0.035 A 
HETATM    4  C4  MIQ B 502      -6.220 -18.038   5.405  1.00142.86     0.046 A 
HETATM    5  C5  MIQ B 502      -6.248 -17.153   4.298  1.00139.53     0.031 A 
HETATM    6  C12 MIQ B 502      -5.167 -16.196   4.110  1.00139.38     0.030 A 
HETATM    7  C13 MIQ B 502      -4.090 -16.154   5.037  1.00141.18     0.019 A 
HETATM    8  C14 MIQ B 502      -4.068 -17.084   6.199  1.00138.77     0.033 A 
HETATM    9  C15 MIQ B 502      -3.088 -17.327   7.393  1.00142.10     0.195 A 
HETATM   10  N17 MIQ B 502      -3.620 -18.306   8.108  1.00139.42    -0.288 N 
HETATM   11  O16 MIQ B 502      -1.895 -16.649   7.647  1.00148.93    -0.171 OA
ENDROOT
BRANCH  10  12
HETATM   12  C18 MIQ B 502      -2.967 -18.814   9.300  1.00139.82     0.187 C 
HETATM   13  C19 MIQ B 502      -2.790 -17.641  10.272  1.00140.06     0.247 C 
HETATM   14  O25 MIQ B 502      -3.720 -16.964  10.534  1.00143.95    -0.271 OA
HETATM   15  N20 MIQ B 502      -1.511 -17.343  10.884  1.00140.02    -0.296 N 
HETATM   16  H13 MIQ B 502      -1.407 -16.571  11.512  1.00142.77     0.171 HD
HETATM   17  C21 MIQ B 502      -0.388 -18.177  10.541  1.00142.22     0.224 C 
HETATM   18  C22 MIQ B 502      -0.356 -18.728   9.128  1.00139.52     0.106 C 
HETATM   19  O24 MIQ B 502       0.461 -18.423  11.324  1.00146.13    -0.273 OA
HETATM   20  C23 MIQ B 502      -1.650 -19.496   8.935  1.00139.15     0.045 C 
ENDBRANCH  10  12
BRANCH   5  21
HETATM   21  N6  MIQ B 502      -7.347 -17.216   3.351  1.00140.95    -0.377 N 
HETATM   22  C7  MIQ B 502      -7.097 -16.837   1.971  1.00142.12     0.149 C 
HETATM   23  C8  MIQ B 502      -8.360 -16.334   1.283  1.00144.10     0.187 C 
HETATM   24  O9  MIQ B 502      -9.458 -17.172   1.482  1.00148.65    -0.388 OA
HETATM   25  C10 MIQ B 502      -9.395 -18.212   2.414  1.00147.44     0.187 C 
HETATM   26  C11 MIQ B 502      -8.509 -18.037   3.643  1.00144.08     0.149 C 
ENDBRANCH   5  21
TORSDOF 2
ENDMDL
MODEL 7
REMARK VINA RESULT:      -6.3      1.316      1.349
REMARK  2 active torsions:
REMARK  status: ('A' for Active; 'I' for Inactive)
REMARK    1  A    between atoms: C5_5  and  N6_21 
REMARK    2  A    between atoms: C18_14  and  N17_19 
ROOT
HETATM    1  O1  MIQ B 502      -4.431 -20.190   4.666  1.00142.91    -0.171 OA
HETATM    2  C2  MIQ B 502      -4.706 -18.901   5.129  1.00141.17     0.195 A 
HETATM    3  C3  MIQ B 502      -4.172 -18.263   6.451  1.00141.71     0.035 A 
HETATM    4  C4  MIQ B 502      -3.290 -18.754   7.536  1.00142.86     0.046 A 
HETATM    5  C5  MIQ B 502      -2.976 -17.919   8.637  1.00139.53     0.031 A 
HETATM    6  C12 MIQ B 502      -3.523 -16.571   8.701  1.00139.38     0.030 A 
HETATM    7  C13 MIQ B 502      -4.368 -16.099   7.661  1.00141.18     0.019 A 
HETATM    8  C14 MIQ B 502      -4.692 -16.980   6.505  1.00138.77     0.033 A 
HETATM    9  C15 MIQ B 502      -5.553 -16.821   5.210  1.00142.10     0.195 A 
HETATM   10  N17 MIQ B 502      -5.452 -17.969   4.561  1.00139.42    -0.288 N 
HETATM   11  O16 MIQ B 502      -6.282 -15.695   4.823  1.00148.93    -0.171 OA
ENDROOT
BRANCH  10  12
HETATM   12  C18 MIQ B 502      -6.143 -18.193   3.305  1.00139.82     0.187 C 
HETATM   13  C19 MIQ B 502      -5.741 -17.068   2.343  1.00140.06     0.247 C 
HETATM   14  O25 MIQ B 502      -4.597 -16.831   2.180  1.00143.95    -0.271 OA
HETATM   15  N20 MIQ B 502      -6.728 -16.290   1.623  1.00140.02    -0.296 N 
HETATM   16  H13 MIQ B 502      -6.452 -15.553   1.003  1.00142.77     0.171 HD
HETATM   17  C21 MIQ B 502      -8.118 -16.591   1.846  1.00142.22     0.224 C 
HETATM   18  C22 MIQ B 502      -8.500 -17.054   3.239  1.00139.52     0.106 C 
HETATM   19  O24 MIQ B 502      -8.919 -16.487   0.983  1.00146.13    -0.273 OA
HETATM   20  C23 MIQ B 502      -7.651 -18.277   3.535  1.00139.15     0.045 C 
ENDBRANCH  10  12
BRANCH   5  21
HETATM   21  N6  MIQ B 502      -2.122 -18.418   9.700  1.00140.95    -0.377 N 
HETATM   22  C7  MIQ B 502      -2.672 -18.520  11.041  1.00142.12     0.149 C 
HETATM   23  C8  MIQ B 502      -1.589 -18.418  12.108  1.00144.10     0.187 C 
HETATM   24  O9  MIQ B 502      -0.491 -19.240  11.849  1.00148.65    -0.388 OA
HETATM   25  C10 MIQ B 502      -0.360 -19.877  10.612  1.00147.44     0.187 C 
HETATM   26  C11 MIQ B 502      -0.941 -19.197   9.376  1.00144.08     0.149 C 
ENDBRANCH   5  21
TORSDOF 2
ENDMDL
MODEL 8
REMARK VINA RESULT:      -6.3      2.555      8.304
REMARK  2 active torsions:
REMARK  status: ('A' for Active; 'I' for Inactive)
REMARK    1  A    between atoms: C5_5  and  N6_21 
REMARK    2  A    between atoms: C18_14  and  N17_19 
ROOT
HETATM    1  O1  MIQ B 502      -6.311 -18.079   8.034  1.00142.91    -0.171 OA
HETATM    2  C2  MIQ B 502      -5.457 -17.470   7.112  1.00141.17     0.195 A 
HETATM    3  C3  MIQ B 502      -5.806 -17.100   5.635  1.00141.71     0.035 A 
HETATM    4  C4  MIQ B 502      -7.027 -17.250   4.809  1.00142.86     0.046 A 
HETATM    5  C5  MIQ B 502      -7.041 -16.805   3.463  1.00139.53     0.031 A 
HETATM    6  C12 MIQ B 502      -5.849 -16.195   2.891  1.00139.38     0.030 A 
HETATM    7  C13 MIQ B 502      -4.678 -16.049   3.684  1.00141.18     0.019 A 
HETATM    8  C14 MIQ B 502      -4.671 -16.517   5.097  1.00138.77     0.033 A 
HETATM    9  C15 MIQ B 502      -3.610 -16.525   6.246  1.00142.10     0.195 A 
HETATM   10  N17 MIQ B 502      -4.205 -17.082   7.288  1.00139.42    -0.288 N 
HETATM   11  O16 MIQ B 502      -2.302 -16.044   6.179  1.00148.93    -0.171 OA
ENDROOT
BRANCH  10  12
HETATM   12  C18 MIQ B 502      -3.508 -17.272   8.546  1.00139.82     0.187 C 
HETATM   13  C19 MIQ B 502      -3.556 -18.766   8.887  1.00140.06     0.247 C 
HETATM   14  O25 MIQ B 502      -3.221 -19.553   8.074  1.00143.95    -0.271 OA
HETATM   15  N20 MIQ B 502      -3.997 -19.241  10.182  1.00140.02    -0.296 N 
HETATM   16  H13 MIQ B 502      -4.030 -20.219  10.390  1.00142.77     0.171 HD
HETATM   17  C21 MIQ B 502      -4.411 -18.262  11.154  1.00142.22     0.224 C 
HETATM   18  C22 MIQ B 502      -5.088 -17.015  10.619  1.00139.52     0.106 C 
HETATM   19  O24 MIQ B 502      -4.227 -18.422  12.310  1.00146.13    -0.273 OA
HETATM   20  C23 MIQ B 502      -4.120 -16.388   9.632  1.00139.15     0.045 C 
ENDBRANCH  10  12
BRANCH   5  21
HETATM   21  N6  MIQ B 502      -8.239 -16.972   2.660  1.00140.95    -0.377 N 
HETATM   22  C7  MIQ B 502      -8.281 -16.365   1.341  1.00142.12     0.149 C 
HETATM   23  C8  MIQ B 502      -9.707 -16.055   0.903  1.00144.10     0.187 C 
HETATM   24  O9  MIQ B 502     -10.580 -17.127   1.096  1.00148.65    -0.388 OA
HETATM   25  C10 MIQ B 502     -10.177 -18.245   1.830  1.00147.44     0.187 C 
HETATM   26  C11 MIQ B 502      -9.163 -18.053   2.953  1.00144.08     0.149 C 
ENDBRANCH   5  21
TORSDOF 2
ENDMDL
MODEL 9
REMARK VINA RESULT:      -6.2      1.163      2.376
REMARK  2 active torsions:
REMARK  status: ('A' for Active; 'I' for Inactive)
REMARK    1  A    between atoms: C5_5  and  N6_21 
REMARK    2  A    between atoms: C18_14  and  N17_19 
ROOT
HETATM    1  O1  MIQ B 502      -4.411 -16.842   5.049  1.00142.91    -0.171 OA
HETATM    2  C2  MIQ B 502      -4.547 -18.128   5.577  1.00141.17     0.195 A 
HETATM    3  C3  MIQ B 502      -3.908 -18.654   6.902  1.00141.71     0.035 A 
HETATM    4  C4  MIQ B 502      -3.040 -18.033   7.931  1.00142.86     0.046 A 
HETATM    5  C5  MIQ B 502      -2.610 -18.785   9.053  1.00139.53     0.031 A 
HETATM    6  C12 MIQ B 502      -3.025 -20.173   9.196  1.00139.38     0.030 A 
HETATM    7  C13 MIQ B 502      -3.858 -20.768   8.210  1.00141.18     0.019 A 
HETATM    8  C14 MIQ B 502      -4.308 -19.973   7.034  1.00138.77     0.033 A 
HETATM    9  C15 MIQ B 502      -5.201 -20.268   5.786  1.00142.10     0.195 A 
HETATM   10  N17 MIQ B 502      -5.233 -19.146   5.086  1.00139.42    -0.288 N 
HETATM   11  O16 MIQ B 502      -5.833 -21.474   5.476  1.00148.93    -0.171 OA
ENDROOT
BRANCH  10  12
HETATM   12  C18 MIQ B 502      -5.966 -19.053   3.837  1.00139.82     0.187 C 
HETATM   13  C19 MIQ B 502      -5.005 -18.513   2.770  1.00140.06     0.247 C 
HETATM   14  O25 MIQ B 502      -3.954 -19.031   2.627  1.00143.95    -0.271 OA
HETATM   15  N20 MIQ B 502      -5.353 -17.388   1.928  1.00140.02    -0.296 N 
HETATM   16  H13 MIQ B 502      -4.714 -17.041   1.239  1.00142.77     0.171 HD
HETATM   17  C21 MIQ B 502      -6.637 -16.766   2.129  1.00142.22     0.224 C 
HETATM   18  C22 MIQ B 502      -7.168 -16.744   3.549  1.00139.52     0.106 C 
HETATM   19  O24 MIQ B 502      -7.246 -16.302   1.229  1.00146.13    -0.273 OA
HETATM   20  C23 MIQ B 502      -7.213 -18.188   4.015  1.00139.15     0.045 C 
ENDBRANCH  10  12
BRANCH   5  21
HETATM   21  N6  MIQ B 502      -1.748 -18.169  10.046  1.00140.95    -0.377 N 
HETATM   22  C7  MIQ B 502      -1.469 -18.897  11.271  1.00142.12     0.149 C 
HETATM   23  C8  MIQ B 502      -1.140 -17.960  12.427  1.00144.10     0.187 C 
HETATM   24  O9  MIQ B 502      -0.202 -16.984  12.086  1.00148.65    -0.388 OA
HETATM   25  C10 MIQ B 502       0.173 -16.799  10.753  1.00147.44     0.187 C 
HETATM   26  C11 MIQ B 502      -0.848 -17.096   9.660  1.00144.08     0.149 C 
ENDBRANCH   5  21
TORSDOF 2
ENDMDL
