MODEL 1
REMARK VINA RESULT:      -7.1      0.000      0.000
REMARK  2 active torsions:
REMARK  status: ('A' for Active; 'I' for Inactive)
REMARK    1  A    between atoms: C5_5  and  N6_21 
REMARK    2  A    between atoms: C18_14  and  N17_19 
ROOT
HETATM    1  O1  MIQ B 502       5.618  16.734 -12.259  1.00142.91    -0.171 OA
HETATM    2  C2  MIQ B 502       5.330  15.459 -11.766  1.00141.17     0.195 A 
HETATM    3  C3  MIQ B 502       6.355  14.300 -11.550  1.00141.71     0.035 A 
HETATM    4  C4  MIQ B 502       7.816  14.179 -11.767  1.00142.86     0.046 A 
HETATM    5  C5  MIQ B 502       8.486  12.966 -11.467  1.00139.53     0.031 A 
HETATM    6  C12 MIQ B 502       7.734  11.835 -10.943  1.00139.38     0.030 A 
HETATM    7  C13 MIQ B 502       6.333  11.952 -10.734  1.00141.18     0.019 A 
HETATM    8  C14 MIQ B 502       5.635  13.228 -11.048  1.00138.77     0.033 A 
HETATM    9  C15 MIQ B 502       4.156  13.724 -10.951  1.00142.10     0.195 A 
HETATM   10  N17 MIQ B 502       4.161  14.975 -11.383  1.00139.42    -0.288 N 
HETATM   11  O16 MIQ B 502       3.056  12.991 -10.503  1.00148.93    -0.171 OA
ENDROOT
BRANCH  10  12
HETATM   12  C18 MIQ B 502       2.941  15.758 -11.450  1.00139.82     0.187 C 
HETATM   13  C19 MIQ B 502       2.829  16.329 -12.869  1.00140.06     0.247 C 
HETATM   14  O25 MIQ B 502       2.937  15.603 -13.792  1.00143.95    -0.271 OA
HETATM   15  N20 MIQ B 502       2.588  17.737 -13.109  1.00140.02    -0.296 N 
HETATM   16  H13 MIQ B 502       2.523  18.098 -14.040  1.00142.77     0.171 HD
HETATM   17  C21 MIQ B 502       2.470  18.605 -11.965  1.00142.22     0.224 C 
HETATM   18  C22 MIQ B 502       3.313  18.255 -10.754  1.00139.52     0.106 C 
HETATM   19  O24 MIQ B 502       1.748  19.541 -11.972  1.00146.13    -0.273 OA
HETATM   20  C23 MIQ B 502       2.941  16.835 -10.367  1.00139.15     0.045 C 
ENDBRANCH  10  12
BRANCH   5  21
HETATM   21  N6  MIQ B 502       9.915  12.856 -11.699  1.00140.95    -0.377 N 
HETATM   22  C7  MIQ B 502      10.821  13.531 -10.786  1.00142.12     0.149 C 
HETATM   23  C8  MIQ B 502      12.144  13.882 -11.454  1.00144.10     0.187 C 
HETATM   24  O9  MIQ B 502      12.697  12.813 -12.160  1.00148.65    -0.388 OA
HETATM   25  C10 MIQ B 502      11.952  11.652 -12.385  1.00147.44     0.187 C 
HETATM   26  C11 MIQ B 502      10.437  11.772 -12.513  1.00144.08     0.149 C 
ENDBRANCH   5  21
TORSDOF 2
ENDMDL
MODEL 2
REMARK VINA RESULT:      -7.0      1.940      3.048
REMARK  2 active torsions:
REMARK  status: ('A' for Active; 'I' for Inactive)
REMARK    1  A    between atoms: C5_5  and  N6_21 
REMARK    2  A    between atoms: C18_14  and  N17_19 
ROOT
HETATM    1  O1  MIQ B 502       5.034  11.502 -10.991  1.00142.91    -0.171 OA
HETATM    2  C2  MIQ B 502       5.872  12.609 -11.136  1.00141.17     0.195 A 
HETATM    3  C3  MIQ B 502       7.434  12.590 -11.130  1.00141.71     0.035 A 
HETATM    4  C4  MIQ B 502       8.439  11.511 -10.988  1.00142.86     0.046 A 
HETATM    5  C5  MIQ B 502       9.824  11.812 -11.026  1.00139.53     0.031 A 
HETATM    6  C12 MIQ B 502      10.260  13.189 -11.205  1.00139.38     0.030 A 
HETATM    7  C13 MIQ B 502       9.296  14.224 -11.342  1.00141.18     0.019 A 
HETATM    8  C14 MIQ B 502       7.844  13.902 -11.304  1.00138.77     0.033 A 
HETATM    9  C15 MIQ B 502       6.529  14.740 -11.419  1.00142.10     0.195 A 
HETATM   10  N17 MIQ B 502       5.534  13.876 -11.309  1.00139.42    -0.288 N 
HETATM   11  O16 MIQ B 502       6.431  16.121 -11.600  1.00148.93    -0.171 OA
ENDROOT
BRANCH  10  12
HETATM   12  C18 MIQ B 502       4.149  14.305 -11.354  1.00139.82     0.187 C 
HETATM   13  C19 MIQ B 502       3.965  15.160 -12.614  1.00140.06     0.247 C 
HETATM   14  O25 MIQ B 502       4.330  14.740 -13.654  1.00143.95    -0.271 OA
HETATM   15  N20 MIQ B 502       3.350  16.471 -12.565  1.00140.02    -0.296 N 
HETATM   16  H13 MIQ B 502       3.242  17.022 -13.393  1.00142.77     0.171 HD
HETATM   17  C21 MIQ B 502       2.922  16.967 -11.282  1.00142.22     0.224 C 
HETATM   18  C22 MIQ B 502       3.754  16.560 -10.082  1.00139.52     0.106 C 
HETATM   19  O24 MIQ B 502       1.966  17.653 -11.173  1.00146.13    -0.273 OA
HETATM   20  C23 MIQ B 502       3.778  15.042 -10.068  1.00139.15     0.045 C 
ENDBRANCH  10  12
BRANCH   5  21
HETATM   21  N6  MIQ B 502      10.798  10.746 -10.871  1.00140.95    -0.377 N 
HETATM   22  C7  MIQ B 502      10.688   9.575 -11.724  1.00142.12     0.149 C 
HETATM   23  C8  MIQ B 502      11.291   8.338 -11.071  1.00144.10     0.187 C 
HETATM   24  O9  MIQ B 502      12.560   8.569 -10.537  1.00148.65    -0.388 OA
HETATM   25  C10 MIQ B 502      13.059   9.871 -10.436  1.00147.44     0.187 C 
HETATM   26  C11 MIQ B 502      12.073  11.016 -10.230  1.00144.08     0.149 C 
ENDBRANCH   5  21
TORSDOF 2
ENDMDL
MODEL 3
REMARK VINA RESULT:      -6.8      1.593      2.270
REMARK  2 active torsions:
REMARK  status: ('A' for Active; 'I' for Inactive)
REMARK    1  A    between atoms: C5_5  and  N6_21 
REMARK    2  A    between atoms: C18_14  and  N17_19 
ROOT
HETATM    1  O1  MIQ B 502       7.676  16.708 -12.453  1.00142.91    -0.171 OA
HETATM    2  C2  MIQ B 502       6.852  15.672 -12.007  1.00141.17     0.195 A 
HETATM    3  C3  MIQ B 502       7.320  14.252 -11.554  1.00141.71     0.035 A 
HETATM    4  C4  MIQ B 502       8.647  13.600 -11.453  1.00142.86     0.046 A 
HETATM    5  C5  MIQ B 502       8.756  12.264 -10.993  1.00139.53     0.031 A 
HETATM    6  C12 MIQ B 502       7.557  11.529 -10.618  1.00139.38     0.030 A 
HETATM    7  C13 MIQ B 502       6.284  12.153 -10.713  1.00141.18     0.019 A 
HETATM    8  C14 MIQ B 502       6.176  13.558 -11.195  1.00138.77     0.033 A 
HETATM    9  C15 MIQ B 502       4.992  14.552 -11.425  1.00142.10     0.195 A 
HETATM   10  N17 MIQ B 502       5.537  15.672 -11.871  1.00139.42    -0.288 N 
HETATM   11  O16 MIQ B 502       3.636  14.303 -11.205  1.00148.93    -0.171 OA
ENDROOT
BRANCH  10  12
HETATM   12  C18 MIQ B 502       4.726  16.826 -12.212  1.00139.82     0.187 C 
HETATM   13  C19 MIQ B 502       3.947  17.237 -10.956  1.00140.06     0.247 C 
HETATM   14  O25 MIQ B 502       4.530  17.392  -9.942  1.00143.95    -0.271 OA
HETATM   15  N20 MIQ B 502       2.514  17.447 -10.981  1.00140.02    -0.296 N 
HETATM   16  H13 MIQ B 502       2.017  17.709 -10.152  1.00142.77     0.171 HD
HETATM   17  C21 MIQ B 502       1.824  17.242 -12.228  1.00142.22     0.224 C 
HETATM   18  C22 MIQ B 502       2.369  16.158 -13.138  1.00139.52     0.106 C 
HETATM   19  O24 MIQ B 502       0.882  17.890 -12.527  1.00146.13    -0.273 OA
HETATM   20  C23 MIQ B 502       3.822  16.508 -13.402  1.00139.15     0.045 C 
ENDBRANCH  10  12
BRANCH   5  21
HETATM   21  N6  MIQ B 502      10.061  11.633 -10.913  1.00140.95    -0.377 N 
HETATM   22  C7  MIQ B 502      10.224  10.300 -11.468  1.00142.12     0.149 C 
HETATM   23  C8  MIQ B 502      11.349   9.533 -10.785  1.00144.10     0.187 C 
HETATM   24  O9  MIQ B 502      12.524  10.279 -10.672  1.00148.65    -0.388 OA
HETATM   25  C10 MIQ B 502      12.524  11.647 -10.957  1.00147.44     0.187 C 
HETATM   26  C11 MIQ B 502      11.248  12.445 -10.708  1.00144.08     0.149 C 
ENDBRANCH   5  21
TORSDOF 2
ENDMDL
MODEL 4
REMARK VINA RESULT:      -6.5      3.784      7.595
REMARK  2 active torsions:
REMARK  status: ('A' for Active; 'I' for Inactive)
REMARK    1  A    between atoms: C5_5  and  N6_21 
REMARK    2  A    between atoms: C18_14  and  N17_19 
ROOT
HETATM    1  O1  MIQ B 502       7.219  16.778 -11.283  1.00142.91    -0.171 OA
HETATM    2  C2  MIQ B 502       5.864  17.010 -11.528  1.00141.17     0.195 A 
HETATM    3  C3  MIQ B 502       5.193  18.401 -11.759  1.00141.71     0.035 A 
HETATM    4  C4  MIQ B 502       5.711  19.789 -11.795  1.00142.86     0.046 A 
HETATM    5  C5  MIQ B 502       4.834  20.876 -12.035  1.00139.53     0.031 A 
HETATM    6  C12 MIQ B 502       3.415  20.626 -12.248  1.00139.38     0.030 A 
HETATM    7  C13 MIQ B 502       2.918  19.296 -12.216  1.00141.18     0.019 A 
HETATM    8  C14 MIQ B 502       3.845  18.158 -11.965  1.00138.77     0.033 A 
HETATM    9  C15 MIQ B 502       3.678  16.607 -11.862  1.00142.10     0.195 A 
HETATM   10  N17 MIQ B 502       4.886  16.125 -11.621  1.00139.42    -0.288 N 
HETATM   11  O16 MIQ B 502       2.492  15.883 -11.996  1.00148.93    -0.171 OA
ENDROOT
BRANCH  10  12
HETATM   12  C18 MIQ B 502       5.113  14.702 -11.447  1.00139.82     0.187 C 
HETATM   13  C19 MIQ B 502       4.496  13.980 -12.651  1.00140.06     0.247 C 
HETATM   14  O25 MIQ B 502       4.769  14.339 -13.741  1.00143.95    -0.271 OA
HETATM   15  N20 MIQ B 502       3.589  12.862 -12.488  1.00140.02    -0.296 N 
HETATM   16  H13 MIQ B 502       3.188  12.403 -13.281  1.00142.77     0.171 HD
HETATM   17  C21 MIQ B 502       3.263  12.448 -11.147  1.00142.22     0.224 C 
HETATM   18  C22 MIQ B 502       3.197  13.538 -10.095  1.00139.52     0.106 C 
HETATM   19  O24 MIQ B 502       3.063  11.314 -10.882  1.00146.13    -0.273 OA
HETATM   20  C23 MIQ B 502       4.546  14.233 -10.108  1.00139.15     0.045 C 
ENDBRANCH  10  12
BRANCH   5  21
HETATM   21  N6  MIQ B 502       5.353  22.232 -12.052  1.00140.95    -0.377 N 
HETATM   22  C7  MIQ B 502       4.534  23.296 -11.497  1.00142.12     0.149 C 
HETATM   23  C8  MIQ B 502       4.854  24.646 -12.126  1.00144.10     0.187 C 
HETATM   24  O9  MIQ B 502       6.224  24.911 -12.177  1.00148.65    -0.388 OA
HETATM   25  C10 MIQ B 502       7.150  23.907 -11.885  1.00147.44     0.187 C 
HETATM   26  C11 MIQ B 502       6.780  22.460 -12.194  1.00144.08     0.149 C 
ENDBRANCH   5  21
TORSDOF 2
ENDMDL
MODEL 5
REMARK VINA RESULT:      -6.5      2.517      3.559
REMARK  2 active torsions:
REMARK  status: ('A' for Active; 'I' for Inactive)
REMARK    1  A    between atoms: C5_5  and  N6_21 
REMARK    2  A    between atoms: C18_14  and  N17_19 
ROOT
HETATM    1  O1  MIQ B 502       6.443  18.509 -12.802  1.00142.91    -0.171 OA
HETATM    2  C2  MIQ B 502       5.351  17.639 -12.766  1.00141.17     0.195 A 
HETATM    3  C3  MIQ B 502       5.400  16.111 -12.446  1.00141.71     0.035 A 
HETATM    4  C4  MIQ B 502       6.499  15.176 -12.106  1.00142.86     0.046 A 
HETATM    5  C5  MIQ B 502       6.224  13.806 -11.860  1.00139.53     0.031 A 
HETATM    6  C12 MIQ B 502       4.855  13.318 -11.942  1.00139.38     0.030 A 
HETATM    7  C13 MIQ B 502       3.801  14.215 -12.266  1.00141.18     0.019 A 
HETATM    8  C14 MIQ B 502       4.095  15.651 -12.521  1.00138.77     0.033 A 
HETATM    9  C15 MIQ B 502       3.231  16.901 -12.890  1.00142.10     0.195 A 
HETATM   10  N17 MIQ B 502       4.077  17.914 -12.985  1.00139.42    -0.288 N 
HETATM   11  O16 MIQ B 502       1.849  16.935 -13.081  1.00148.93    -0.171 OA
ENDROOT
BRANCH  10  12
HETATM   12  C18 MIQ B 502       3.624  19.248 -13.333  1.00139.82     0.187 C 
HETATM   13  C19 MIQ B 502       4.489  19.747 -14.497  1.00140.06     0.247 C 
HETATM   14  O25 MIQ B 502       4.622  19.064 -15.450  1.00143.95    -0.271 OA
HETATM   15  N20 MIQ B 502       5.146  21.038 -14.462  1.00140.02    -0.296 N 
HETATM   16  H13 MIQ B 502       5.713  21.349 -15.226  1.00142.77     0.171 HD
HETATM   17  C21 MIQ B 502       4.977  21.849 -13.284  1.00142.22     0.224 C 
HETATM   18  C22 MIQ B 502       4.850  21.113 -11.964  1.00139.52     0.106 C 
HETATM   19  O24 MIQ B 502       4.936  23.028 -13.346  1.00146.13    -0.273 OA
HETATM   20  C23 MIQ B 502       3.676  20.163 -12.111  1.00139.15     0.045 C 
ENDBRANCH  10  12
BRANCH   5  21
HETATM   21  N6  MIQ B 502       7.312  12.899 -11.543  1.00140.95    -0.377 N 
HETATM   22  C7  MIQ B 502       8.677  13.368 -11.703  1.00142.12     0.149 C 
HETATM   23  C8  MIQ B 502       9.645  12.223 -11.971  1.00144.10     0.187 C 
HETATM   24  O9  MIQ B 502       9.480  11.154 -11.087  1.00148.65    -0.388 OA
HETATM   25  C10 MIQ B 502       8.378  11.108 -10.230  1.00147.44     0.187 C 
HETATM   26  C11 MIQ B 502       7.072  11.751 -10.686  1.00144.08     0.149 C 
ENDBRANCH   5  21
TORSDOF 2
ENDMDL
MODEL 6
REMARK VINA RESULT:      -6.4      1.686      2.284
REMARK  2 active torsions:
REMARK  status: ('A' for Active; 'I' for Inactive)
REMARK    1  A    between atoms: C5_5  and  N6_21 
REMARK    2  A    between atoms: C18_14  and  N17_19 
ROOT
HETATM    1  O1  MIQ B 502       6.498  15.792 -11.817  1.00142.91    -0.171 OA
HETATM    2  C2  MIQ B 502       6.656  14.434 -11.533  1.00141.17     0.195 A 
HETATM    3  C3  MIQ B 502       8.012  13.689 -11.315  1.00141.71     0.035 A 
HETATM    4  C4  MIQ B 502       9.428  14.125 -11.331  1.00142.86     0.046 A 
HETATM    5  C5  MIQ B 502      10.468  13.192 -11.090  1.00139.53     0.031 A 
HETATM    6  C12 MIQ B 502      10.142  11.799 -10.824  1.00139.38     0.030 A 
HETATM    7  C13 MIQ B 502       8.784  11.380 -10.808  1.00141.18     0.019 A 
HETATM    8  C14 MIQ B 502       7.696  12.364 -11.060  1.00138.77     0.033 A 
HETATM    9  C15 MIQ B 502       6.135  12.287 -11.119  1.00142.10     0.195 A 
HETATM   10  N17 MIQ B 502       5.719  13.513 -11.387  1.00139.42    -0.288 N 
HETATM   11  O16 MIQ B 502       5.347  11.150 -10.929  1.00148.93    -0.171 OA
ENDROOT
BRANCH  10  12
HETATM   12  C18 MIQ B 502       4.308  13.819 -11.533  1.00139.82     0.187 C 
HETATM   13  C19 MIQ B 502       4.125  14.566 -12.860  1.00140.06     0.247 C 
HETATM   14  O25 MIQ B 502       4.581  14.107 -13.846  1.00143.95    -0.271 OA
HETATM   15  N20 MIQ B 502       3.403  15.820 -12.937  1.00140.02    -0.296 N 
HETATM   16  H13 MIQ B 502       3.297  16.301 -13.808  1.00142.77     0.171 HD
HETATM   17  C21 MIQ B 502       2.866  16.365 -11.717  1.00142.22     0.224 C 
HETATM   18  C22 MIQ B 502       3.661  16.114 -10.450  1.00139.52     0.106 C 
HETATM   19  O24 MIQ B 502       1.852  16.973 -11.706  1.00146.13    -0.273 OA
HETATM   20  C23 MIQ B 502       3.807  14.608 -10.324  1.00139.15     0.045 C 
ENDBRANCH  10  12
BRANCH   5  21
HETATM   21  N6  MIQ B 502      11.852  13.631 -11.123  1.00140.95    -0.377 N 
HETATM   22  C7  MIQ B 502      12.314  14.549 -10.097  1.00142.12     0.149 C 
HETATM   23  C8  MIQ B 502      13.485  15.397 -10.578  1.00144.10     0.187 C 
HETATM   24  O9  MIQ B 502      14.483  14.643 -11.198  1.00148.65    -0.388 OA
HETATM   25  C10 MIQ B 502      14.260  13.302 -11.519  1.00147.44     0.187 C 
HETATM   26  C11 MIQ B 502      12.840  12.858 -11.854  1.00144.08     0.149 C 
ENDBRANCH   5  21
TORSDOF 2
ENDMDL
MODEL 7
REMARK VINA RESULT:      -6.4      3.499      7.680
REMARK  2 active torsions:
REMARK  status: ('A' for Active; 'I' for Inactive)
REMARK    1  A    between atoms: C5_5  and  N6_21 
REMARK    2  A    between atoms: C18_14  and  N17_19 
ROOT
HETATM    1  O1  MIQ B 502       3.336  16.323 -12.334  1.00142.91    -0.171 OA
HETATM    2  C2  MIQ B 502       4.696  16.640 -12.299  1.00141.17     0.195 A 
HETATM    3  C3  MIQ B 502       5.325  18.038 -12.599  1.00141.71     0.035 A 
HETATM    4  C4  MIQ B 502       4.754  19.353 -12.975  1.00142.86     0.046 A 
HETATM    5  C5  MIQ B 502       5.602  20.470 -13.185  1.00139.53     0.031 A 
HETATM    6  C12 MIQ B 502       7.042  20.323 -13.027  1.00139.38     0.030 A 
HETATM    7  C13 MIQ B 502       7.590  19.063 -12.665  1.00141.18     0.019 A 
HETATM    8  C14 MIQ B 502       6.694  17.895 -12.444  1.00138.77     0.033 A 
HETATM    9  C15 MIQ B 502       6.916  16.399 -12.046  1.00142.10     0.195 A 
HETATM   10  N17 MIQ B 502       5.714  15.849 -12.008  1.00139.42    -0.288 N 
HETATM   11  O16 MIQ B 502       8.138  15.775 -11.788  1.00148.93    -0.171 OA
ENDROOT
BRANCH  10  12
HETATM   12  C18 MIQ B 502       5.533  14.446 -11.683  1.00139.82     0.187 C 
HETATM   13  C19 MIQ B 502       4.655  13.823 -12.776  1.00140.06     0.247 C 
HETATM   14  O25 MIQ B 502       4.946  13.979 -13.908  1.00143.95    -0.271 OA
HETATM   15  N20 MIQ B 502       3.478  13.042 -12.456  1.00140.02    -0.296 N 
HETATM   16  H13 MIQ B 502       2.909  12.646 -13.178  1.00142.77     0.171 HD
HETATM   17  C21 MIQ B 502       3.136  12.874 -11.067  1.00142.22     0.224 C 
HETATM   18  C22 MIQ B 502       3.457  14.032 -10.142  1.00139.52     0.106 C 
HETATM   19  O24 MIQ B 502       2.636  11.880 -10.669  1.00146.13    -0.273 OA
HETATM   20  C23 MIQ B 502       4.945  14.296 -10.281  1.00139.15     0.045 C 
ENDBRANCH  10  12
BRANCH   5  21
HETATM   21  N6  MIQ B 502       5.031  21.748 -13.568  1.00140.95    -0.377 N 
HETATM   22  C7  MIQ B 502       4.682  22.694 -12.522  1.00142.12     0.149 C 
HETATM   23  C8  MIQ B 502       3.565  23.635 -12.956  1.00144.10     0.187 C 
HETATM   24  O9  MIQ B 502       3.783  24.192 -14.217  1.00148.65    -0.388 OA
HETATM   25  C10 MIQ B 502       4.811  23.715 -15.034  1.00147.44     0.187 C 
HETATM   26  C11 MIQ B 502       5.212  22.248 -14.920  1.00144.08     0.149 C 
ENDBRANCH   5  21
TORSDOF 2
ENDMDL
MODEL 8
REMARK VINA RESULT:      -6.3      1.672      2.325
REMARK  2 active torsions:
REMARK  status: ('A' for Active; 'I' for Inactive)
REMARK    1  A    between atoms: C5_5  and  N6_21 
REMARK    2  A    between atoms: C18_14  and  N17_19 
ROOT
HETATM    1  O1  MIQ B 502       4.775  14.047 -13.763  1.00142.91    -0.171 OA
HETATM    2  C2  MIQ B 502       5.357  14.844 -12.774  1.00141.17     0.195 A 
HETATM    3  C3  MIQ B 502       6.707  14.563 -12.039  1.00141.71     0.035 A 
HETATM    4  C4  MIQ B 502       7.713  13.479 -12.136  1.00142.86     0.046 A 
HETATM    5  C5  MIQ B 502       8.870  13.500 -11.316  1.00139.53     0.031 A 
HETATM    6  C12 MIQ B 502       9.068  14.593 -10.375  1.00139.38     0.030 A 
HETATM    7  C13 MIQ B 502       8.104  15.633 -10.283  1.00141.18     0.019 A 
HETATM    8  C14 MIQ B 502       6.893  15.607 -11.148  1.00138.77     0.033 A 
HETATM    9  C15 MIQ B 502       5.653  16.541 -11.331  1.00142.10     0.195 A 
HETATM   10  N17 MIQ B 502       4.906  15.977 -12.266  1.00139.42    -0.288 N 
HETATM   11  O16 MIQ B 502       5.391  17.727 -10.642  1.00148.93    -0.171 OA
ENDROOT
BRANCH  10  12
HETATM   12  C18 MIQ B 502       3.650  16.567 -12.689  1.00139.82     0.187 C 
HETATM   13  C19 MIQ B 502       3.917  18.037 -13.038  1.00140.06     0.247 C 
HETATM   14  O25 MIQ B 502       4.799  18.302 -13.775  1.00143.95    -0.271 OA
HETATM   15  N20 MIQ B 502       3.112  19.110 -12.492  1.00140.02    -0.296 N 
HETATM   16  H13 MIQ B 502       3.302  20.066 -12.723  1.00142.77     0.171 HD
HETATM   17  C21 MIQ B 502       2.048  18.762 -11.586  1.00142.22     0.224 C 
HETATM   18  C22 MIQ B 502       2.283  17.562 -10.689  1.00139.52     0.106 C 
HETATM   19  O24 MIQ B 502       1.041  19.379 -11.550  1.00146.13    -0.273 OA
HETATM   20  C23 MIQ B 502       2.587  16.391 -11.606  1.00139.15     0.045 C 
ENDBRANCH  10  12
BRANCH   5  21
HETATM   21  N6  MIQ B 502       9.840  12.425 -11.410  1.00140.95    -0.377 N 
HETATM   22  C7  MIQ B 502      11.253  12.762 -11.418  1.00142.12     0.149 C 
HETATM   23  C8  MIQ B 502      12.085  11.711 -12.141  1.00144.10     0.187 C 
HETATM   24  O9  MIQ B 502      11.785  10.408 -11.736  1.00148.65    -0.388 OA
HETATM   25  C10 MIQ B 502      10.672  10.156 -10.930  1.00147.44     0.187 C 
HETATM   26  C11 MIQ B 502       9.456  11.068 -11.059  1.00144.08     0.149 C 
ENDBRANCH   5  21
TORSDOF 2
ENDMDL
MODEL 9
REMARK VINA RESULT:      -6.3     12.896     15.979
REMARK  2 active torsions:
REMARK  status: ('A' for Active; 'I' for Inactive)
REMARK    1  A    between atoms: C5_5  and  N6_21 
REMARK    2  A    between atoms: C18_14  and  N17_19 
ROOT
HETATM    1  O1  MIQ B 502       7.178   3.489 -18.358  1.00142.91    -0.171 OA
HETATM    2  C2  MIQ B 502       7.800   3.831 -19.561  1.00141.17     0.195 A 
HETATM    3  C3  MIQ B 502       7.176   3.713 -20.988  1.00141.71     0.035 A 
HETATM    4  C4  MIQ B 502       5.859   3.253 -21.489  1.00142.86     0.046 A 
HETATM    5  C5  MIQ B 502       5.578   3.265 -22.879  1.00139.53     0.031 A 
HETATM    6  C12 MIQ B 502       6.588   3.731 -23.817  1.00139.38     0.030 A 
HETATM    7  C13 MIQ B 502       7.851   4.173 -23.337  1.00141.18     0.019 A 
HETATM    8  C14 MIQ B 502       8.140   4.161 -21.877  1.00138.77     0.033 A 
HETATM    9  C15 MIQ B 502       9.369   4.560 -20.996  1.00142.10     0.195 A 
HETATM   10  N17 MIQ B 502       9.015   4.318 -19.745  1.00139.42    -0.288 N 
HETATM   11  O16 MIQ B 502      10.590   5.064 -21.446  1.00148.93    -0.171 OA
ENDROOT
BRANCH  10  12
HETATM   12  C18 MIQ B 502       9.926   4.559 -18.641  1.00139.82     0.187 C 
HETATM   13  C19 MIQ B 502      10.087   3.241 -17.872  1.00140.06     0.247 C 
HETATM   14  O25 MIQ B 502      10.363   2.259 -18.464  1.00143.95    -0.271 OA
HETATM   15  N20 MIQ B 502       9.916   3.170 -16.435  1.00140.02    -0.296 N 
HETATM   16  H13 MIQ B 502      10.017   2.302 -15.946  1.00142.77     0.171 HD
HETATM   17  C21 MIQ B 502       9.569   4.380 -15.736  1.00142.22     0.224 C 
HETATM   18  C22 MIQ B 502       8.690   5.368 -16.478  1.00139.52     0.106 C 
HETATM   19  O24 MIQ B 502       9.957   4.593 -14.640  1.00146.13    -0.273 OA
HETATM   20  C23 MIQ B 502       9.414   5.705 -17.769  1.00139.15     0.045 C 
ENDBRANCH  10  12
BRANCH   5  21
HETATM   21  N6  MIQ B 502       4.289   2.798 -23.357  1.00140.95    -0.377 N 
HETATM   22  C7  MIQ B 502       4.174   2.375 -24.742  1.00142.12     0.149 C 
HETATM   23  C8  MIQ B 502       2.754   2.536 -25.270  1.00144.10     0.187 C 
HETATM   24  O9  MIQ B 502       1.790   2.015 -24.404  1.00148.65    -0.388 OA
HETATM   25  C10 MIQ B 502       2.140   1.620 -23.111  1.00147.44     0.187 C 
HETATM   26  C11 MIQ B 502       3.284   2.345 -22.411  1.00144.08     0.149 C 
ENDBRANCH   5  21
TORSDOF 2
ENDMDL
