MODEL 1
REMARK VINA RESULT:      -6.7      0.000      0.000
REMARK  2 active torsions:
REMARK  status: ('A' for Active; 'I' for Inactive)
REMARK    1  A    between atoms: C5_5  and  N6_21 
REMARK    2  A    between atoms: C18_14  and  N17_19 
ROOT
HETATM    1  O1  MIQ B 502      10.116  16.307 -14.847  1.00142.91    -0.171 OA
HETATM    2  C2  MIQ B 502       9.060  15.902 -14.027  1.00141.17     0.195 A 
HETATM    3  C3  MIQ B 502       7.683  15.342 -14.506  1.00141.71     0.035 A 
HETATM    4  C4  MIQ B 502       7.099  15.078 -15.843  1.00142.86     0.046 A 
HETATM    5  C5  MIQ B 502       5.788  14.552 -15.961  1.00139.53     0.031 A 
HETATM    6  C12 MIQ B 502       5.012  14.268 -14.762  1.00139.38     0.030 A 
HETATM    7  C13 MIQ B 502       5.572  14.520 -13.481  1.00141.18     0.019 A 
HETATM    8  C14 MIQ B 502       6.950  15.071 -13.362  1.00138.77     0.033 A 
HETATM    9  C15 MIQ B 502       7.877  15.464 -12.167  1.00142.10     0.195 A 
HETATM   10  N17 MIQ B 502       9.003  15.901 -12.706  1.00139.42    -0.288 N 
HETATM   11  O16 MIQ B 502       7.573  15.373 -10.807  1.00148.93    -0.171 OA
ENDROOT
BRANCH  10  12
HETATM   12  C18 MIQ B 502      10.103  16.372 -11.886  1.00139.82     0.187 C 
HETATM   13  C19 MIQ B 502      10.508  17.760 -12.399  1.00140.06     0.247 C 
HETATM   14  O25 MIQ B 502       9.679  18.586 -12.539  1.00143.95    -0.271 OA
HETATM   15  N20 MIQ B 502      11.885  18.087 -12.710  1.00140.02    -0.296 N 
HETATM   16  H13 MIQ B 502      12.135  18.995 -13.050  1.00142.77     0.171 HD
HETATM   17  C21 MIQ B 502      12.878  17.058 -12.540  1.00142.22     0.224 C 
HETATM   18  C22 MIQ B 502      12.437  15.634 -12.816  1.00139.52     0.106 C 
HETATM   19  O24 MIQ B 502      13.979  17.314 -12.197  1.00146.13    -0.273 OA
HETATM   20  C23 MIQ B 502      11.252  15.365 -11.907  1.00139.15     0.045 C 
ENDBRANCH  10  12
BRANCH   5  21
HETATM   21  N6  MIQ B 502       5.224  14.312 -17.277  1.00140.95    -0.377 N 
HETATM   22  C7  MIQ B 502       6.091  13.793 -18.321  1.00142.12     0.149 C 
HETATM   23  C8  MIQ B 502       5.607  14.188 -19.710  1.00144.10     0.187 C 
HETATM   24  O9  MIQ B 502       4.243  13.955 -19.897  1.00148.65    -0.388 OA
HETATM   25  C10 MIQ B 502       3.427  13.620 -18.813  1.00147.44     0.187 C 
HETATM   26  C11 MIQ B 502       3.788  14.162 -17.434  1.00144.08     0.149 C 
ENDBRANCH   5  21
TORSDOF 2
ENDMDL
MODEL 2
REMARK VINA RESULT:      -6.6     17.844     20.094
REMARK  2 active torsions:
REMARK  status: ('A' for Active; 'I' for Inactive)
REMARK    1  A    between atoms: C5_5  and  N6_21 
REMARK    2  A    between atoms: C18_14  and  N17_19 
ROOT
HETATM    1  O1  MIQ B 502      -6.520  23.559  -8.030  1.00142.91    -0.171 OA
HETATM    2  C2  MIQ B 502      -7.357  22.700  -7.314  1.00141.17     0.195 A 
HETATM    3  C3  MIQ B 502      -7.130  22.197  -5.853  1.00141.71     0.035 A 
HETATM    4  C4  MIQ B 502      -6.069  22.437  -4.846  1.00142.86     0.046 A 
HETATM    5  C5  MIQ B 502      -6.140  21.823  -3.570  1.00139.53     0.031 A 
HETATM    6  C12 MIQ B 502      -7.262  20.954  -3.248  1.00139.38     0.030 A 
HETATM    7  C13 MIQ B 502      -8.280  20.724  -4.213  1.00141.18     0.019 A 
HETATM    8  C14 MIQ B 502      -8.201  21.373  -5.550  1.00138.77     0.033 A 
HETATM    9  C15 MIQ B 502      -9.100  21.365  -6.830  1.00142.10     0.195 A 
HETATM   10  N17 MIQ B 502      -8.493  22.149  -7.706  1.00139.42    -0.288 N 
HETATM   11  O16 MIQ B 502     -10.296  20.669  -7.007  1.00148.93    -0.171 OA
ENDROOT
BRANCH  10  12
HETATM   12  C18 MIQ B 502      -9.040  22.368  -9.032  1.00139.82     0.187 C 
HETATM   13  C19 MIQ B 502      -7.932  22.073 -10.050  1.00140.06     0.247 C 
HETATM   14  O25 MIQ B 502      -7.342  21.054  -9.981  1.00143.95    -0.271 OA
HETATM   15  N20 MIQ B 502      -7.592  23.010 -11.102  1.00140.02    -0.296 N 
HETATM   16  H13 MIQ B 502      -6.862  22.808 -11.756  1.00142.77     0.171 HD
HETATM   17  C21 MIQ B 502      -8.318  24.252 -11.160  1.00142.22     0.224 C 
HETATM   18  C22 MIQ B 502      -8.761  24.845  -9.836  1.00139.52     0.106 C 
HETATM   19  O24 MIQ B 502      -8.561  24.778 -12.190  1.00146.13    -0.273 OA
HETATM   20  C23 MIQ B 502      -9.601  23.785  -9.148  1.00139.15     0.045 C 
ENDBRANCH  10  12
BRANCH   5  21
HETATM   21  N6  MIQ B 502      -5.087  22.056  -2.599  1.00140.95    -0.377 N 
HETATM   22  C7  MIQ B 502      -5.279  23.092  -1.599  1.00142.12     0.149 C 
HETATM   23  C8  MIQ B 502      -3.955  23.660  -1.106  1.00144.10     0.187 C 
HETATM   24  O9  MIQ B 502      -3.031  22.668  -0.767  1.00148.65    -0.388 OA
HETATM   25  C10 MIQ B 502      -3.276  21.332  -1.094  1.00147.44     0.187 C 
HETATM   26  C11 MIQ B 502      -4.096  21.025  -2.343  1.00144.08     0.149 C 
ENDBRANCH   5  21
TORSDOF 2
ENDMDL
MODEL 3
REMARK VINA RESULT:      -6.5      2.690      4.091
REMARK  2 active torsions:
REMARK  status: ('A' for Active; 'I' for Inactive)
REMARK    1  A    between atoms: C5_5  and  N6_21 
REMARK    2  A    between atoms: C18_14  and  N17_19 
ROOT
HETATM    1  O1  MIQ B 502      10.545  16.832 -10.746  1.00142.91    -0.171 OA
HETATM    2  C2  MIQ B 502      10.916  15.840 -11.656  1.00141.17     0.195 A 
HETATM    3  C3  MIQ B 502       9.984  15.160 -12.710  1.00141.71     0.035 A 
HETATM    4  C4  MIQ B 502       8.554  15.324 -13.062  1.00142.86     0.046 A 
HETATM    5  C5  MIQ B 502       7.976  14.543 -14.095  1.00139.53     0.031 A 
HETATM    6  C12 MIQ B 502       8.793  13.576 -14.813  1.00139.38     0.030 A 
HETATM    7  C13 MIQ B 502      10.165  13.419 -14.476  1.00141.18     0.019 A 
HETATM    8  C14 MIQ B 502      10.767  14.243 -13.393  1.00138.77     0.033 A 
HETATM    9  C15 MIQ B 502      12.192  14.355 -12.759  1.00142.10     0.195 A 
HETATM   10  N17 MIQ B 502      12.103  15.281 -11.819  1.00139.42    -0.288 N 
HETATM   11  O16 MIQ B 502      13.325  13.621 -13.116  1.00148.93    -0.171 OA
ENDROOT
BRANCH  10  12
HETATM   12  C18 MIQ B 502      13.245  15.643 -11.002  1.00139.82     0.187 C 
HETATM   13  C19 MIQ B 502      12.842  15.471  -9.532  1.00140.06     0.247 C 
HETATM   14  O25 MIQ B 502      12.356  14.455  -9.184  1.00143.95    -0.271 OA
HETATM   15  N20 MIQ B 502      13.047  16.522  -8.556  1.00140.02    -0.296 N 
HETATM   16  H13 MIQ B 502      12.774  16.400  -7.601  1.00142.77     0.171 HD
HETATM   17  C21 MIQ B 502      13.633  17.758  -9.008  1.00142.22     0.224 C 
HETATM   18  C22 MIQ B 502      13.294  18.196 -10.420  1.00139.52     0.106 C 
HETATM   19  O24 MIQ B 502      14.347  18.394  -8.313  1.00146.13    -0.273 OA
HETATM   20  C23 MIQ B 502      13.710  17.060 -11.336  1.00139.15     0.045 C 
ENDBRANCH  10  12
BRANCH   5  21
HETATM   21  N6  MIQ B 502       6.570  14.704 -14.419  1.00140.95    -0.377 N 
HETATM   22  C7  MIQ B 502       6.134  14.424 -15.776  1.00142.12     0.149 C 
HETATM   23  C8  MIQ B 502       4.881  15.208 -16.144  1.00144.10     0.187 C 
HETATM   24  O9  MIQ B 502       3.885  15.129 -15.169  1.00148.65    -0.388 OA
HETATM   25  C10 MIQ B 502       4.162  14.574 -13.917  1.00147.44     0.187 C 
HETATM   26  C11 MIQ B 502       5.576  14.701 -13.360  1.00144.08     0.149 C 
ENDBRANCH   5  21
TORSDOF 2
ENDMDL
MODEL 4
REMARK VINA RESULT:      -6.5     18.885     21.046
REMARK  2 active torsions:
REMARK  status: ('A' for Active; 'I' for Inactive)
REMARK    1  A    between atoms: C5_5  and  N6_21 
REMARK    2  A    between atoms: C18_14  and  N17_19 
ROOT
HETATM    1  O1  MIQ B 502      -8.987  18.702  -1.585  1.00142.91    -0.171 OA
HETATM    2  C2  MIQ B 502      -7.926  19.600  -1.447  1.00141.17     0.195 A 
HETATM    3  C3  MIQ B 502      -7.396  20.577  -2.544  1.00141.71     0.035 A 
HETATM    4  C4  MIQ B 502      -7.798  20.853  -3.944  1.00142.86     0.046 A 
HETATM    5  C5  MIQ B 502      -7.108  21.826  -4.710  1.00139.53     0.031 A 
HETATM    6  C12 MIQ B 502      -5.998  22.558  -4.116  1.00139.38     0.030 A 
HETATM    7  C13 MIQ B 502      -5.613  22.295  -2.774  1.00141.18     0.019 A 
HETATM    8  C14 MIQ B 502      -6.343  21.274  -1.974  1.00138.77     0.033 A 
HETATM    9  C15 MIQ B 502      -6.219  20.727  -0.515  1.00142.10     0.195 A 
HETATM   10  N17 MIQ B 502      -7.167  19.813  -0.386  1.00139.42    -0.288 N 
HETATM   11  O16 MIQ B 502      -5.293  21.124   0.451  1.00148.93    -0.171 OA
ENDROOT
BRANCH  10  12
HETATM   12  C18 MIQ B 502      -7.342  19.073   0.850  1.00139.82     0.187 C 
HETATM   13  C19 MIQ B 502      -7.269  17.578   0.515  1.00140.06     0.247 C 
HETATM   14  O25 MIQ B 502      -6.357  17.173  -0.115  1.00143.95    -0.271 OA
HETATM   15  N20 MIQ B 502      -8.286  16.645   0.955  1.00140.02    -0.296 N 
HETATM   16  H13 MIQ B 502      -8.229  15.673   0.724  1.00142.77     0.171 HD
HETATM   17  C21 MIQ B 502      -9.395  17.165   1.713  1.00142.22     0.224 C 
HETATM   18  C22 MIQ B 502      -9.859  18.567   1.367  1.00139.52     0.106 C 
HETATM   19  O24 MIQ B 502      -9.911  16.531   2.566  1.00146.13    -0.273 OA
HETATM   20  C23 MIQ B 502      -8.652  19.473   1.527  1.00139.15     0.045 C 
ENDBRANCH  10  12
BRANCH   5  21
HETATM   21  N6  MIQ B 502      -7.503  22.075  -6.084  1.00140.95    -0.377 N 
HETATM   22  C7  MIQ B 502      -6.692  22.973  -6.888  1.00142.12     0.149 C 
HETATM   23  C8  MIQ B 502      -7.502  23.634  -7.995  1.00144.10     0.187 C 
HETATM   24  O9  MIQ B 502      -8.280  22.725  -8.716  1.00148.65    -0.388 OA
HETATM   25  C10 MIQ B 502      -8.432  21.411  -8.266  1.00147.44     0.187 C 
HETATM   26  C11 MIQ B 502      -8.384  21.143  -6.766  1.00144.08     0.149 C 
ENDBRANCH   5  21
TORSDOF 2
ENDMDL
MODEL 5
REMARK VINA RESULT:      -6.5      2.253      8.535
REMARK  2 active torsions:
REMARK  status: ('A' for Active; 'I' for Inactive)
REMARK    1  A    between atoms: C5_5  and  N6_21 
REMARK    2  A    between atoms: C18_14  and  N17_19 
ROOT
HETATM    1  O1  MIQ B 502       7.504  13.976 -11.371  1.00142.91    -0.171 OA
HETATM    2  C2  MIQ B 502       7.981  14.799 -12.394  1.00141.17     0.195 A 
HETATM    3  C3  MIQ B 502       9.192  15.780 -12.300  1.00141.71     0.035 A 
HETATM    4  C4  MIQ B 502      10.141  16.126 -11.215  1.00142.86     0.046 A 
HETATM    5  C5  MIQ B 502      11.166  17.080 -11.437  1.00139.53     0.031 A 
HETATM    6  C12 MIQ B 502      11.287  17.721 -12.739  1.00139.38     0.030 A 
HETATM    7  C13 MIQ B 502      10.379  17.388 -13.779  1.00141.18     0.019 A 
HETATM    8  C14 MIQ B 502       9.306  16.385 -13.541  1.00138.77     0.033 A 
HETATM    9  C15 MIQ B 502       8.158  15.775 -14.411  1.00142.10     0.195 A 
HETATM   10  N17 MIQ B 502       7.524  14.917 -13.629  1.00139.42    -0.288 N 
HETATM   11  O16 MIQ B 502       7.865  16.081 -15.741  1.00148.93    -0.171 OA
ENDROOT
BRANCH  10  12
HETATM   12  C18 MIQ B 502       6.376  14.166 -14.103  1.00139.82     0.187 C 
HETATM   13  C19 MIQ B 502       6.714  13.627 -15.499  1.00140.06     0.247 C 
HETATM   14  O25 MIQ B 502       7.723  13.037 -15.660  1.00143.95    -0.271 OA
HETATM   15  N20 MIQ B 502       5.825  13.816 -16.627  1.00140.02    -0.296 N 
HETATM   16  H13 MIQ B 502       6.060  13.465 -17.534  1.00142.77     0.171 HD
HETATM   17  C21 MIQ B 502       4.604  14.548 -16.407  1.00142.22     0.224 C 
HETATM   18  C22 MIQ B 502       4.655  15.666 -15.384  1.00139.52     0.106 C 
HETATM   19  O24 MIQ B 502       3.612  14.284 -16.993  1.00146.13    -0.273 OA
HETATM   20  C23 MIQ B 502       5.124  15.040 -14.084  1.00139.15     0.045 C 
ENDBRANCH  10  12
BRANCH   5  21
HETATM   21  N6  MIQ B 502      12.079  17.420 -10.361  1.00140.95    -0.377 N 
HETATM   22  C7  MIQ B 502      12.182  16.520  -9.226  1.00142.12     0.149 C 
HETATM   23  C8  MIQ B 502      12.617  17.247  -7.960  1.00144.10     0.187 C 
HETATM   24  O9  MIQ B 502      13.719  18.079  -8.163  1.00148.65    -0.388 OA
HETATM   25  C10 MIQ B 502      14.174  18.349  -9.457  1.00147.44     0.187 C 
HETATM   26  C11 MIQ B 502      13.162  18.359 -10.598  1.00144.08     0.149 C 
ENDBRANCH   5  21
TORSDOF 2
ENDMDL
MODEL 6
REMARK VINA RESULT:      -6.4     18.055     20.387
REMARK  2 active torsions:
REMARK  status: ('A' for Active; 'I' for Inactive)
REMARK    1  A    between atoms: C5_5  and  N6_21 
REMARK    2  A    between atoms: C18_14  and  N17_19 
ROOT
HETATM    1  O1  MIQ B 502     -10.099  20.536  -6.951  1.00142.91    -0.171 OA
HETATM    2  C2  MIQ B 502      -8.936  21.299  -6.827  1.00141.17     0.195 A 
HETATM    3  C3  MIQ B 502      -8.000  21.359  -5.578  1.00141.71     0.035 A 
HETATM    4  C4  MIQ B 502      -8.026  20.697  -4.253  1.00142.86     0.046 A 
HETATM    5  C5  MIQ B 502      -7.008  20.957  -3.301  1.00139.53     0.031 A 
HETATM    6  C12 MIQ B 502      -5.931  21.880  -3.629  1.00139.38     0.030 A 
HETATM    7  C13 MIQ B 502      -5.905  22.514  -4.900  1.00141.18     0.019 A 
HETATM    8  C14 MIQ B 502      -6.975  22.235  -5.896  1.00138.77     0.033 A 
HETATM    9  C15 MIQ B 502      -7.276  22.722  -7.352  1.00142.10     0.195 A 
HETATM   10  N17 MIQ B 502      -8.390  22.109  -7.718  1.00139.42    -0.288 N 
HETATM   11  O16 MIQ B 502      -6.521  23.622  -8.105  1.00148.93    -0.171 OA
ENDROOT
BRANCH  10  12
HETATM   12  C18 MIQ B 502      -8.984  22.335  -9.022  1.00139.82     0.187 C 
HETATM   13  C19 MIQ B 502      -7.915  22.043 -10.082  1.00140.06     0.247 C 
HETATM   14  O25 MIQ B 502      -7.325  21.023 -10.038  1.00143.95    -0.271 OA
HETATM   15  N20 MIQ B 502      -7.611  22.984 -11.140  1.00140.02    -0.296 N 
HETATM   16  H13 MIQ B 502      -6.906  22.784 -11.822  1.00142.77     0.171 HD
HETATM   17  C21 MIQ B 502      -8.337  24.228 -11.166  1.00142.22     0.224 C 
HETATM   18  C22 MIQ B 502      -8.730  24.815  -9.824  1.00139.52     0.106 C 
HETATM   19  O24 MIQ B 502      -8.616  24.759 -12.184  1.00146.13    -0.273 OA
HETATM   20  C23 MIQ B 502      -9.547  23.753  -9.111  1.00139.15     0.045 C 
ENDBRANCH  10  12
BRANCH   5  21
HETATM   21  N6  MIQ B 502      -7.055  20.313  -2.001  1.00140.95    -0.377 N 
HETATM   22  C7  MIQ B 502      -6.827  18.880  -1.927  1.00142.12     0.149 C 
HETATM   23  C8  MIQ B 502      -7.510  18.256  -0.717  1.00144.10     0.187 C 
HETATM   24  O9  MIQ B 502      -7.270  18.960   0.465  1.00148.65    -0.388 OA
HETATM   25  C10 MIQ B 502      -6.661  20.217   0.429  1.00147.44     0.187 C 
HETATM   26  C11 MIQ B 502      -6.886  21.102  -0.793  1.00144.08     0.149 C 
ENDBRANCH   5  21
TORSDOF 2
ENDMDL
MODEL 7
REMARK VINA RESULT:      -6.4     17.815     19.177
REMARK  2 active torsions:
REMARK  status: ('A' for Active; 'I' for Inactive)
REMARK    1  A    between atoms: C5_5  and  N6_21 
REMARK    2  A    between atoms: C18_14  and  N17_19 
ROOT
HETATM    1  O1  MIQ B 502      -4.706  21.257  -3.899  1.00142.91    -0.171 OA
HETATM    2  C2  MIQ B 502      -5.781  22.106  -3.626  1.00141.17     0.195 A 
HETATM    3  C3  MIQ B 502      -6.734  22.756  -4.679  1.00141.71     0.035 A 
HETATM    4  C4  MIQ B 502      -6.812  22.694  -6.158  1.00142.86     0.046 A 
HETATM    5  C5  MIQ B 502      -7.817  23.412  -6.853  1.00139.53     0.031 A 
HETATM    6  C12 MIQ B 502      -8.779  24.213  -6.109  1.00139.38     0.030 A 
HETATM    7  C13 MIQ B 502      -8.705  24.271  -4.691  1.00141.18     0.019 A 
HETATM    8  C14 MIQ B 502      -7.649  23.514  -3.966  1.00138.77     0.033 A 
HETATM    9  C15 MIQ B 502      -7.262  23.333  -2.462  1.00142.10     0.195 A 
HETATM   10  N17 MIQ B 502      -6.214  22.526  -2.449  1.00139.42    -0.288 N 
HETATM   11  O16 MIQ B 502      -7.896  23.911  -1.361  1.00148.93    -0.171 OA
ENDROOT
BRANCH  10  12
HETATM   12  C18 MIQ B 502      -5.567  22.144  -1.208  1.00139.82     0.187 C 
HETATM   13  C19 MIQ B 502      -4.107  22.609  -1.279  1.00140.06     0.247 C 
HETATM   14  O25 MIQ B 502      -3.873  23.727  -1.572  1.00143.95    -0.271 OA
HETATM   15  N20 MIQ B 502      -3.006  21.714  -0.990  1.00140.02    -0.296 N 
HETATM   16  H13 MIQ B 502      -2.057  22.028  -1.046  1.00142.77     0.171 HD
HETATM   17  C21 MIQ B 502      -3.317  20.351  -0.644  1.00142.22     0.224 C 
HETATM   18  C22 MIQ B 502      -4.534  19.740  -1.312  1.00139.52     0.106 C 
HETATM   19  O24 MIQ B 502      -2.658  19.743   0.125  1.00146.13    -0.273 OA
HETATM   20  C23 MIQ B 502      -5.709  20.641  -0.975  1.00139.15     0.045 C 
ENDBRANCH  10  12
BRANCH   5  21
HETATM   21  N6  MIQ B 502      -7.873  23.355  -8.303  1.00140.95    -0.377 N 
HETATM   22  C7  MIQ B 502      -7.349  24.477  -9.063  1.00142.12     0.149 C 
HETATM   23  C8  MIQ B 502      -8.016  24.600 -10.427  1.00144.10     0.187 C 
HETATM   24  O9  MIQ B 502      -8.073  23.387 -11.116  1.00148.65    -0.388 OA
HETATM   25  C10 MIQ B 502      -7.751  22.191 -10.470  1.00147.44     0.187 C 
HETATM   26  C11 MIQ B 502      -8.019  22.075  -8.973  1.00144.08     0.149 C 
ENDBRANCH   5  21
TORSDOF 2
ENDMDL
MODEL 8
REMARK VINA RESULT:      -6.3     18.194     19.997
REMARK  2 active torsions:
REMARK  status: ('A' for Active; 'I' for Inactive)
REMARK    1  A    between atoms: C5_5  and  N6_21 
REMARK    2  A    between atoms: C18_14  and  N17_19 
ROOT
HETATM    1  O1  MIQ B 502      -6.588  19.430  -3.560  1.00142.91    -0.171 OA
HETATM    2  C2  MIQ B 502      -7.074  20.702  -3.252  1.00141.17     0.195 A 
HETATM    3  C3  MIQ B 502      -7.443  21.821  -4.277  1.00141.71     0.035 A 
HETATM    4  C4  MIQ B 502      -7.410  21.899  -5.757  1.00142.86     0.046 A 
HETATM    5  C5  MIQ B 502      -7.820  23.082  -6.422  1.00139.53     0.031 A 
HETATM    6  C12 MIQ B 502      -8.277  24.226  -5.646  1.00139.38     0.030 A 
HETATM    7  C13 MIQ B 502      -8.310  24.151  -4.227  1.00141.18     0.019 A 
HETATM    8  C14 MIQ B 502      -7.881  22.906  -3.534  1.00138.77     0.033 A 
HETATM    9  C15 MIQ B 502      -7.782  22.458  -2.040  1.00142.10     0.195 A 
HETATM   10  N17 MIQ B 502      -7.323  21.217  -2.060  1.00139.42    -0.288 N 
HETATM   11  O16 MIQ B 502      -8.112  23.217  -0.916  1.00148.93    -0.171 OA
ENDROOT
BRANCH  10  12
HETATM   12  C18 MIQ B 502      -7.088  20.477  -0.834  1.00139.82     0.187 C 
HETATM   13  C19 MIQ B 502      -5.680  19.873  -0.916  1.00140.06     0.247 C 
HETATM   14  O25 MIQ B 502      -4.769  20.571  -1.190  1.00143.95    -0.271 OA
HETATM   15  N20 MIQ B 502      -5.435  18.469  -0.658  1.00140.02    -0.296 N 
HETATM   16  H13 MIQ B 502      -4.513  18.086  -0.721  1.00142.77     0.171 HD
HETATM   17  C21 MIQ B 502      -6.565  17.635  -0.335  1.00142.22     0.224 C 
HETATM   18  C22 MIQ B 502      -7.882  17.987  -0.998  1.00139.52     0.106 C 
HETATM   19  O24 MIQ B 502      -6.467  16.727   0.414  1.00146.13    -0.273 OA
HETATM   20  C23 MIQ B 502      -8.180  19.429  -0.628  1.00139.15     0.045 C 
ENDBRANCH  10  12
BRANCH   5  21
HETATM   21  N6  MIQ B 502      -7.768  23.149  -7.871  1.00140.95    -0.377 N 
HETATM   22  C7  MIQ B 502      -8.259  22.016  -8.637  1.00142.12     0.149 C 
HETATM   23  C8  MIQ B 502      -7.590  21.921 -10.002  1.00144.10     0.187 C 
HETATM   24  O9  MIQ B 502      -7.571  23.139 -10.684  1.00148.65    -0.388 OA
HETATM   25  C10 MIQ B 502      -7.928  24.321 -10.031  1.00147.44     0.187 C 
HETATM   26  C11 MIQ B 502      -7.662  24.437  -8.534  1.00144.08     0.149 C 
ENDBRANCH   5  21
TORSDOF 2
ENDMDL
MODEL 9
REMARK VINA RESULT:      -6.3     18.691     19.686
REMARK  2 active torsions:
REMARK  status: ('A' for Active; 'I' for Inactive)
REMARK    1  A    between atoms: C5_5  and  N6_21 
REMARK    2  A    between atoms: C18_14  and  N17_19 
ROOT
HETATM    1  O1  MIQ B 502      -4.877  22.589  -1.894  1.00142.91    -0.171 OA
HETATM    2  C2  MIQ B 502      -5.797  21.631  -2.325  1.00141.17     0.195 A 
HETATM    3  C3  MIQ B 502      -6.641  21.688  -3.638  1.00141.71     0.035 A 
HETATM    4  C4  MIQ B 502      -6.736  22.667  -4.747  1.00142.86     0.046 A 
HETATM    5  C5  MIQ B 502      -7.616  22.436  -5.833  1.00139.53     0.031 A 
HETATM    6  C12 MIQ B 502      -8.431  21.229  -5.859  1.00139.38     0.030 A 
HETATM    7  C13 MIQ B 502      -8.339  20.290  -4.797  1.00141.18     0.019 A 
HETATM    8  C14 MIQ B 502      -7.411  20.537  -3.660  1.00138.77     0.033 A 
HETATM    9  C15 MIQ B 502      -7.043  19.760  -2.353  1.00142.10     0.195 A 
HETATM   10  N17 MIQ B 502      -6.138  20.499  -1.733  1.00139.42    -0.288 N 
HETATM   11  O16 MIQ B 502      -7.568  18.538  -1.931  1.00148.93    -0.171 OA
ENDROOT
BRANCH  10  12
HETATM   12  C18 MIQ B 502      -5.571  20.092  -0.460  1.00139.82     0.187 C 
HETATM   13  C19 MIQ B 502      -5.832  21.217   0.549  1.00140.06     0.247 C 
HETATM   14  O25 MIQ B 502      -6.927  21.640   0.670  1.00143.95    -0.271 OA
HETATM   15  N20 MIQ B 502      -4.772  21.772   1.365  1.00140.02    -0.296 N 
HETATM   16  H13 MIQ B 502      -4.954  22.510   2.015  1.00142.77     0.171 HD
HETATM   17  C21 MIQ B 502      -3.442  21.246   1.192  1.00142.22     0.224 C 
HETATM   18  C22 MIQ B 502      -3.063  20.799  -0.207  1.00139.52     0.106 C 
HETATM   19  O24 MIQ B 502      -2.688  21.162   2.098  1.00146.13    -0.273 OA
HETATM   20  C23 MIQ B 502      -4.089  19.760  -0.621  1.00139.15     0.045 C 
ENDBRANCH  10  12
BRANCH   5  21
HETATM   21  N6  MIQ B 502      -7.710  23.410  -6.905  1.00140.95    -0.377 N 
HETATM   22  C7  MIQ B 502      -7.265  23.026  -8.234  1.00142.12     0.149 C 
HETATM   23  C8  MIQ B 502      -6.813  24.230  -9.052  1.00144.10     0.187 C 
HETATM   24  O9  MIQ B 502      -7.723  25.288  -9.009  1.00148.65    -0.388 OA
HETATM   25  C10 MIQ B 502      -8.791  25.268  -8.109  1.00147.44     0.187 C 
HETATM   26  C11 MIQ B 502      -8.610  24.543  -6.779  1.00144.08     0.149 C 
ENDBRANCH   5  21
TORSDOF 2
ENDMDL
