MODEL 1
REMARK VINA RESULT:      -6.4      0.000      0.000
REMARK  2 active torsions:
REMARK  status: ('A' for Active; 'I' for Inactive)
REMARK    1  A    between atoms: C5_5  and  N6_21 
REMARK    2  A    between atoms: C18_14  and  N17_19 
ROOT
HETATM    1  O1  MIQ B 502      19.114   8.099  -1.127  1.00142.91    -0.171 OA
HETATM    2  C2  MIQ B 502      18.817   8.611   0.138  1.00141.17     0.195 A 
HETATM    3  C3  MIQ B 502      17.416   9.094   0.632  1.00141.71     0.035 A 
HETATM    4  C4  MIQ B 502      16.079   9.162  -0.004  1.00142.86     0.046 A 
HETATM    5  C5  MIQ B 502      14.966   9.661   0.719  1.00139.53     0.031 A 
HETATM    6  C12 MIQ B 502      15.139  10.109   2.093  1.00139.38     0.030 A 
HETATM    7  C13 MIQ B 502      16.420  10.044   2.703  1.00141.18     0.019 A 
HETATM    8  C14 MIQ B 502      17.585   9.516   1.941  1.00138.77     0.033 A 
HETATM    9  C15 MIQ B 502      19.099   9.293   2.262  1.00142.10     0.195 A 
HETATM   10  N17 MIQ B 502      19.634   8.786   1.163  1.00139.42    -0.288 N 
HETATM   11  O16 MIQ B 502      19.749   9.576   3.464  1.00148.93    -0.171 OA
ENDROOT
BRANCH  10  12
HETATM   12  C18 MIQ B 502      21.046   8.463   1.088  1.00139.82     0.187 C 
HETATM   13  C19 MIQ B 502      21.632   9.204  -0.120  1.00140.06     0.247 C 
HETATM   14  O25 MIQ B 502      21.439  10.362  -0.234  1.00143.95    -0.271 OA
HETATM   15  N20 MIQ B 502      22.424   8.523  -1.124  1.00140.02    -0.296 N 
HETATM   16  H13 MIQ B 502      22.795   9.017  -1.911  1.00142.77     0.171 HD
HETATM   17  C21 MIQ B 502      22.637   7.107  -0.968  1.00142.22     0.224 C 
HETATM   18  C22 MIQ B 502      21.510   6.314  -0.334  1.00139.52     0.106 C 
HETATM   19  O24 MIQ B 502      23.644   6.592  -1.312  1.00146.13    -0.273 OA
HETATM   20  C23 MIQ B 502      21.243   6.950   1.018  1.00139.15     0.045 C 
ENDBRANCH  10  12
BRANCH   5  21
HETATM   21  N6  MIQ B 502      13.665   9.735   0.078  1.00140.95    -0.377 N 
HETATM   22  C7  MIQ B 502      13.536   9.263  -1.289  1.00142.12     0.149 C 
HETATM   23  C8  MIQ B 502      12.395   9.953  -2.024  1.00144.10     0.187 C 
HETATM   24  O9  MIQ B 502      11.209   9.977  -1.287  1.00148.65    -0.388 OA
HETATM   25  C10 MIQ B 502      11.206   9.604   0.060  1.00147.44     0.187 C 
HETATM   26  C11 MIQ B 502      12.464   9.846   0.887  1.00144.08     0.149 C 
ENDBRANCH   5  21
TORSDOF 2
ENDMDL
MODEL 2
REMARK VINA RESULT:      -6.4      1.898      7.812
REMARK  2 active torsions:
REMARK  status: ('A' for Active; 'I' for Inactive)
REMARK    1  A    between atoms: C5_5  and  N6_21 
REMARK    2  A    between atoms: C18_14  and  N17_19 
ROOT
HETATM    1  O1  MIQ B 502      16.080   8.778  -1.484  1.00142.91    -0.171 OA
HETATM    2  C2  MIQ B 502      16.791   9.063  -0.316  1.00141.17     0.195 A 
HETATM    3  C3  MIQ B 502      18.311   8.795  -0.072  1.00141.71     0.035 A 
HETATM    4  C4  MIQ B 502      19.390   8.215  -0.907  1.00142.86     0.046 A 
HETATM    5  C5  MIQ B 502      20.707   8.100  -0.396  1.00139.53     0.031 A 
HETATM    6  C12 MIQ B 502      21.000   8.554   0.956  1.00139.38     0.030 A 
HETATM    7  C13 MIQ B 502      19.966   9.111   1.756  1.00141.18     0.019 A 
HETATM    8  C14 MIQ B 502      18.586   9.232   1.213  1.00138.77     0.033 A 
HETATM    9  C15 MIQ B 502      17.229   9.775   1.770  1.00142.10     0.195 A 
HETATM   10  N17 MIQ B 502      16.344   9.611   0.801  1.00139.42    -0.288 N 
HETATM   11  O16 MIQ B 502      17.004  10.320   3.036  1.00148.93    -0.171 OA
ENDROOT
BRANCH  10  12
HETATM   12  C18 MIQ B 502      14.955   9.994   0.971  1.00139.82     0.187 C 
HETATM   13  C19 MIQ B 502      14.089   8.774   0.636  1.00140.06     0.247 C 
HETATM   14  O25 MIQ B 502      14.327   7.739   1.151  1.00143.95    -0.271 OA
HETATM   15  N20 MIQ B 502      12.981   8.856  -0.294  1.00140.02    -0.296 N 
HETATM   16  H13 MIQ B 502      12.427   8.050  -0.509  1.00142.77     0.171 HD
HETATM   17  C21 MIQ B 502      12.717  10.127  -0.918  1.00142.22     0.224 C 
HETATM   18  C22 MIQ B 502      13.918  11.004  -1.211  1.00139.52     0.106 C 
HETATM   19  O24 MIQ B 502      11.617  10.469  -1.182  1.00146.13    -0.273 OA
HETATM   20  C23 MIQ B 502      14.632  11.215   0.112  1.00139.15     0.045 C 
ENDBRANCH  10  12
BRANCH   5  21
HETATM   21  N6  MIQ B 502      21.751   7.516  -1.219  1.00140.95    -0.377 N 
HETATM   22  C7  MIQ B 502      21.364   6.699  -2.356  1.00142.12     0.149 C 
HETATM   23  C8  MIQ B 502      22.434   5.675  -2.711  1.00144.10     0.187 C 
HETATM   24  O9  MIQ B 502      23.714   6.228  -2.782  1.00148.65    -0.388 OA
HETATM   25  C10 MIQ B 502      23.947   7.531  -2.334  1.00147.44     0.187 C 
HETATM   26  C11 MIQ B 502      23.091   8.075  -1.195  1.00144.08     0.149 C 
ENDBRANCH   5  21
TORSDOF 2
ENDMDL
MODEL 3
REMARK VINA RESULT:      -6.2     15.891     17.329
REMARK  2 active torsions:
REMARK  status: ('A' for Active; 'I' for Inactive)
REMARK    1  A    between atoms: C5_5  and  N6_21 
REMARK    2  A    between atoms: C18_14  and  N17_19 
ROOT
HETATM    1  O1  MIQ B 502      17.786  -3.100 -11.175  1.00142.91    -0.171 OA
HETATM    2  C2  MIQ B 502      16.549  -3.608 -10.772  1.00141.17     0.195 A 
HETATM    3  C3  MIQ B 502      15.166  -3.295 -11.426  1.00141.71     0.035 A 
HETATM    4  C4  MIQ B 502      14.747  -2.451 -12.570  1.00142.86     0.046 A 
HETATM    5  C5  MIQ B 502      13.380  -2.366 -12.936  1.00139.53     0.031 A 
HETATM    6  C12 MIQ B 502      12.383  -3.114 -12.184  1.00139.38     0.030 A 
HETATM    7  C13 MIQ B 502      12.784  -3.924 -11.088  1.00141.18     0.019 A 
HETATM    8  C14 MIQ B 502      14.221  -4.011 -10.709  1.00138.77     0.033 A 
HETATM    9  C15 MIQ B 502      15.022  -4.773  -9.604  1.00142.10     0.195 A 
HETATM   10  N17 MIQ B 502      16.291  -4.443  -9.780  1.00139.42    -0.288 N 
HETATM   11  O16 MIQ B 502      14.499  -5.625  -8.630  1.00148.93    -0.171 OA
ENDROOT
BRANCH  10  12
HETATM   12  C18 MIQ B 502      17.335  -4.958  -8.914  1.00139.82     0.187 C 
HETATM   13  C19 MIQ B 502      18.054  -3.759  -8.284  1.00140.06     0.247 C 
HETATM   14  O25 MIQ B 502      17.418  -2.918  -7.755  1.00143.95    -0.271 OA
HETATM   15  N20 MIQ B 502      19.497  -3.631  -8.315  1.00140.02    -0.296 N 
HETATM   16  H13 MIQ B 502      19.954  -2.840  -7.906  1.00142.77     0.171 HD
HETATM   17  C21 MIQ B 502      20.252  -4.665  -8.976  1.00142.22     0.224 C 
HETATM   18  C22 MIQ B 502      19.600  -5.322 -10.177  1.00139.52     0.106 C 
HETATM   19  O24 MIQ B 502      21.323  -4.986  -8.595  1.00146.13    -0.273 OA
HETATM   20  C23 MIQ B 502      18.271  -5.877  -9.697  1.00139.15     0.045 C 
ENDBRANCH  10  12
BRANCH   5  21
HETATM   21  N6  MIQ B 502      12.983  -1.524 -14.050  1.00140.95    -0.377 N 
HETATM   22  C7  MIQ B 502      12.823  -2.133 -15.359  1.00142.12     0.149 C 
HETATM   23  C8  MIQ B 502      13.049  -1.130 -16.484  1.00144.10     0.187 C 
HETATM   24  O9  MIQ B 502      12.354   0.066 -16.293  1.00148.65    -0.388 OA
HETATM   25  C10 MIQ B 502      11.732   0.336 -15.071  1.00147.44     0.187 C 
HETATM   26  C11 MIQ B 502      12.339  -0.246 -13.799  1.00144.08     0.149 C 
ENDBRANCH   5  21
TORSDOF 2
ENDMDL
MODEL 4
REMARK VINA RESULT:      -6.2      4.503      6.468
REMARK  2 active torsions:
REMARK  status: ('A' for Active; 'I' for Inactive)
REMARK    1  A    between atoms: C5_5  and  N6_21 
REMARK    2  A    between atoms: C18_14  and  N17_19 
ROOT
HETATM    1  O1  MIQ B 502      13.601  10.159   1.365  1.00142.91    -0.171 OA
HETATM    2  C2  MIQ B 502      14.672  10.415   2.224  1.00141.17     0.195 A 
HETATM    3  C3  MIQ B 502      14.658  11.374   3.457  1.00141.71     0.035 A 
HETATM    4  C4  MIQ B 502      13.616  12.236   4.064  1.00142.86     0.046 A 
HETATM    5  C5  MIQ B 502      13.910  13.012   5.214  1.00139.53     0.031 A 
HETATM    6  C12 MIQ B 502      15.242  12.960   5.800  1.00139.38     0.030 A 
HETATM    7  C13 MIQ B 502      16.240  12.133   5.219  1.00141.18     0.019 A 
HETATM    8  C14 MIQ B 502      15.925  11.318   4.013  1.00138.77     0.033 A 
HETATM    9  C15 MIQ B 502      16.731  10.319   3.121  1.00142.10     0.195 A 
HETATM   10  N17 MIQ B 502      15.894   9.910   2.182  1.00139.42    -0.288 N 
HETATM   11  O16 MIQ B 502      18.065   9.941   3.285  1.00148.93    -0.171 OA
ENDROOT
BRANCH  10  12
HETATM   12  C18 MIQ B 502      16.308   8.975   1.152  1.00139.82     0.187 C 
HETATM   13  C19 MIQ B 502      15.867   9.545  -0.202  1.00140.06     0.247 C 
HETATM   14  O25 MIQ B 502      16.148  10.657  -0.478  1.00143.95    -0.271 OA
HETATM   15  N20 MIQ B 502      15.118   8.753  -1.156  1.00140.02    -0.296 N 
HETATM   16  H13 MIQ B 502      14.830   9.138  -2.034  1.00142.77     0.171 HD
HETATM   17  C21 MIQ B 502      14.778   7.402  -0.791  1.00142.22     0.224 C 
HETATM   18  C22 MIQ B 502      14.500   7.141   0.677  1.00139.52     0.106 C 
HETATM   19  O24 MIQ B 502      14.723   6.539  -1.598  1.00146.13    -0.273 OA
HETATM   20  C23 MIQ B 502      15.737   7.587   1.435  1.00139.15     0.045 C 
ENDBRANCH  10  12
BRANCH   5  21
HETATM   21  N6  MIQ B 502      12.885  13.864   5.790  1.00140.95    -0.377 N 
HETATM   22  C7  MIQ B 502      11.870  13.256   6.633  1.00142.12     0.149 C 
HETATM   23  C8  MIQ B 502      10.573  14.055   6.628  1.00144.10     0.187 C 
HETATM   24  O9  MIQ B 502      10.776  15.422   6.830  1.00148.65    -0.388 OA
HETATM   25  C10 MIQ B 502      12.066  15.958   6.795  1.00147.44     0.187 C 
HETATM   26  C11 MIQ B 502      13.108  15.294   5.901  1.00144.08     0.149 C 
ENDBRANCH   5  21
TORSDOF 2
ENDMDL
MODEL 5
REMARK VINA RESULT:      -6.0     19.491     20.857
REMARK  2 active torsions:
REMARK  status: ('A' for Active; 'I' for Inactive)
REMARK    1  A    between atoms: C5_5  and  N6_21 
REMARK    2  A    between atoms: C18_14  and  N17_19 
ROOT
HETATM    1  O1  MIQ B 502      18.564   3.004 -18.741  1.00142.91    -0.171 OA
HETATM    2  C2  MIQ B 502      17.513   3.627 -19.418  1.00141.17     0.195 A 
HETATM    3  C3  MIQ B 502      16.001   3.248 -19.321  1.00141.71     0.035 A 
HETATM    4  C4  MIQ B 502      15.255   2.218 -18.560  1.00142.86     0.046 A 
HETATM    5  C5  MIQ B 502      13.846   2.118 -18.680  1.00139.53     0.031 A 
HETATM    6  C12 MIQ B 502      13.129   3.033 -19.556  1.00139.38     0.030 A 
HETATM    7  C13 MIQ B 502      13.843   4.022 -20.285  1.00141.18     0.019 A 
HETATM    8  C14 MIQ B 502      15.323   4.124 -20.152  1.00138.77     0.033 A 
HETATM    9  C15 MIQ B 502      16.420   5.052 -20.769  1.00142.10     0.195 A 
HETATM   10  N17 MIQ B 502      17.571   4.646 -20.258  1.00139.42    -0.288 N 
HETATM   11  O16 MIQ B 502      16.220   6.094 -21.676  1.00148.93    -0.171 OA
ENDROOT
BRANCH  10  12
HETATM   12  C18 MIQ B 502      18.825   5.276 -20.623  1.00139.82     0.187 C 
HETATM   13  C19 MIQ B 502      19.783   4.175 -21.094  1.00140.06     0.247 C 
HETATM   14  O25 MIQ B 502      19.420   3.408 -21.914  1.00143.95    -0.271 OA
HETATM   15  N20 MIQ B 502      21.125   4.051 -20.563  1.00140.02    -0.296 N 
HETATM   16  H13 MIQ B 502      21.738   3.323 -20.874  1.00142.77     0.171 HD
HETATM   17  C21 MIQ B 502      21.541   4.992 -19.555  1.00142.22     0.224 C 
HETATM   18  C22 MIQ B 502      20.472   5.481 -18.597  1.00139.52     0.106 C 
HETATM   19  O24 MIQ B 502      22.660   5.367 -19.484  1.00146.13    -0.273 OA
HETATM   20  C23 MIQ B 502      19.373   6.088 -19.450  1.00139.15     0.045 C 
ENDBRANCH  10  12
BRANCH   5  21
HETATM   21  N6  MIQ B 502      13.131   1.094 -17.941  1.00140.95    -0.377 N 
HETATM   22  C7  MIQ B 502      12.185   1.509 -16.919  1.00142.12     0.149 C 
HETATM   23  C8  MIQ B 502      12.013   0.448 -15.839  1.00144.10     0.187 C 
HETATM   24  O9  MIQ B 502      11.807  -0.830 -16.360  1.00148.65    -0.388 OA
HETATM   25  C10 MIQ B 502      11.986  -1.076 -17.724  1.00147.44     0.187 C 
HETATM   26  C11 MIQ B 502      13.015  -0.248 -18.485  1.00144.08     0.149 C 
ENDBRANCH   5  21
TORSDOF 2
ENDMDL
MODEL 6
REMARK VINA RESULT:      -6.0     17.271     19.404
REMARK  2 active torsions:
REMARK  status: ('A' for Active; 'I' for Inactive)
REMARK    1  A    between atoms: C5_5  and  N6_21 
REMARK    2  A    between atoms: C18_14  and  N17_19 
ROOT
HETATM    1  O1  MIQ B 502      15.049  -1.994 -13.773  1.00142.91    -0.171 OA
HETATM    2  C2  MIQ B 502      14.661  -2.890 -12.776  1.00141.17     0.195 A 
HETATM    3  C3  MIQ B 502      15.610  -3.805 -11.937  1.00141.71     0.035 A 
HETATM    4  C4  MIQ B 502      17.078  -4.004 -11.918  1.00142.86     0.046 A 
HETATM    5  C5  MIQ B 502      17.664  -4.929 -11.018  1.00139.53     0.031 A 
HETATM    6  C12 MIQ B 502      16.818  -5.688 -10.108  1.00139.38     0.030 A 
HETATM    7  C13 MIQ B 502      15.410  -5.496 -10.126  1.00141.18     0.019 A 
HETATM    8  C14 MIQ B 502      14.800  -4.521 -11.071  1.00138.77     0.033 A 
HETATM    9  C15 MIQ B 502      13.341  -4.049 -11.373  1.00142.10     0.195 A 
HETATM   10  N17 MIQ B 502      13.441  -3.147 -12.336  1.00139.42    -0.288 N 
HETATM   11  O16 MIQ B 502      12.173  -4.494 -10.752  1.00148.93    -0.171 OA
ENDROOT
BRANCH  10  12
HETATM   12  C18 MIQ B 502      12.268  -2.495 -12.888  1.00139.82     0.187 C 
HETATM   13  C19 MIQ B 502      12.468  -2.377 -14.404  1.00140.06     0.247 C 
HETATM   14  O25 MIQ B 502      12.771  -3.336 -15.021  1.00143.95    -0.271 OA
HETATM   15  N20 MIQ B 502      12.291  -1.121 -15.102  1.00140.02    -0.296 N 
HETATM   16  H13 MIQ B 502      12.431  -1.056 -16.091  1.00142.77     0.171 HD
HETATM   17  C21 MIQ B 502      11.932   0.038 -14.326  1.00142.22     0.224 C 
HETATM   18  C22 MIQ B 502      12.490   0.114 -12.918  1.00139.52     0.106 C 
HETATM   19  O24 MIQ B 502      11.232   0.883 -14.764  1.00146.13    -0.273 OA
HETATM   20  C23 MIQ B 502      12.038  -1.148 -12.205  1.00139.15     0.045 C 
ENDBRANCH  10  12
BRANCH   5  21
HETATM   21  N6  MIQ B 502      19.103  -5.125 -11.020  1.00140.95    -0.377 N 
HETATM   22  C7  MIQ B 502      19.925  -4.225 -11.810  1.00142.12     0.149 C 
HETATM   23  C8  MIQ B 502      21.230  -4.879 -12.243  1.00144.10     0.187 C 
HETATM   24  O9  MIQ B 502      21.889  -5.524 -11.194  1.00148.65    -0.388 OA
HETATM   25  C10 MIQ B 502      21.250  -5.711  -9.966  1.00147.44     0.187 C 
HETATM   26  C11 MIQ B 502      19.734  -5.877  -9.950  1.00144.08     0.149 C 
ENDBRANCH   5  21
TORSDOF 2
ENDMDL
MODEL 7
REMARK VINA RESULT:      -5.8     21.365     25.230
REMARK  2 active torsions:
REMARK  status: ('A' for Active; 'I' for Inactive)
REMARK    1  A    between atoms: C5_5  and  N6_21 
REMARK    2  A    between atoms: C18_14  and  N17_19 
ROOT
HETATM    1  O1  MIQ B 502       8.969   7.996 -20.769  1.00142.91    -0.171 OA
HETATM    2  C2  MIQ B 502       7.822   7.260 -21.075  1.00141.17     0.195 A 
HETATM    3  C3  MIQ B 502       7.768   5.946 -21.917  1.00141.71     0.035 A 
HETATM    4  C4  MIQ B 502       8.800   5.128 -22.598  1.00142.86     0.046 A 
HETATM    5  C5  MIQ B 502       8.434   3.954 -23.303  1.00139.53     0.031 A 
HETATM    6  C12 MIQ B 502       7.036   3.550 -23.357  1.00139.38     0.030 A 
HETATM    7  C13 MIQ B 502       6.047   4.333 -22.704  1.00141.18     0.019 A 
HETATM    8  C14 MIQ B 502       6.437   5.564 -21.964  1.00138.77     0.033 A 
HETATM    9  C15 MIQ B 502       5.661   6.646 -21.144  1.00142.10     0.195 A 
HETATM   10  N17 MIQ B 502       6.572   7.507 -20.722  1.00139.42    -0.288 N 
HETATM   11  O16 MIQ B 502       4.285   6.691 -20.912  1.00148.93    -0.171 OA
ENDROOT
BRANCH  10  12
HETATM   12  C18 MIQ B 502       6.208   8.668 -19.932  1.00139.82     0.187 C 
HETATM   13  C19 MIQ B 502       6.909   9.888 -20.543  1.00140.06     0.247 C 
HETATM   14  O25 MIQ B 502       6.804  10.092 -21.700  1.00143.95    -0.271 OA
HETATM   15  N20 MIQ B 502       7.692  10.802 -19.738  1.00140.02    -0.296 N 
HETATM   16  H13 MIQ B 502       8.150  11.591 -20.150  1.00142.77     0.171 HD
HETATM   17  C21 MIQ B 502       7.814  10.526 -18.330  1.00142.22     0.224 C 
HETATM   18  C22 MIQ B 502       7.839   9.066 -17.921  1.00139.52     0.106 C 
HETATM   19  O24 MIQ B 502       7.885  11.396 -17.533  1.00146.13    -0.273 OA
HETATM   20  C23 MIQ B 502       6.564   8.445 -18.463  1.00139.15     0.045 C 
ENDBRANCH  10  12
BRANCH   5  21
HETATM   21  N6  MIQ B 502       9.453   3.170 -23.977  1.00140.95    -0.377 N 
HETATM   22  C7  MIQ B 502      10.680   3.832 -24.386  1.00142.12     0.149 C 
HETATM   23  C8  MIQ B 502      11.329   3.140 -25.578  1.00144.10     0.187 C 
HETATM   24  O9  MIQ B 502      11.422   1.756 -25.419  1.00148.65    -0.388 OA
HETATM   25  C10 MIQ B 502      10.760   1.119 -24.366  1.00147.44     0.187 C 
HETATM   26  C11 MIQ B 502       9.458   1.723 -23.851  1.00144.08     0.149 C 
ENDBRANCH   5  21
TORSDOF 2
ENDMDL
MODEL 8
REMARK VINA RESULT:      -5.7      3.193      8.058
REMARK  2 active torsions:
REMARK  status: ('A' for Active; 'I' for Inactive)
REMARK    1  A    between atoms: C5_5  and  N6_21 
REMARK    2  A    between atoms: C18_14  and  N17_19 
ROOT
HETATM    1  O1  MIQ B 502      15.419   9.369   3.385  1.00142.91    -0.171 OA
HETATM    2  C2  MIQ B 502      16.163   9.576   2.222  1.00141.17     0.195 A 
HETATM    3  C3  MIQ B 502      17.684   9.926   2.150  1.00141.71     0.035 A 
HETATM    4  C4  MIQ B 502      18.732  10.129   3.177  1.00142.86     0.046 A 
HETATM    5  C5  MIQ B 502      20.060  10.444   2.794  1.00139.53     0.031 A 
HETATM    6  C12 MIQ B 502      20.394  10.567   1.382  1.00139.38     0.030 A 
HETATM    7  C13 MIQ B 502      19.390  10.371   0.396  1.00141.18     0.019 A 
HETATM    8  C14 MIQ B 502      17.998  10.038   0.805  1.00138.77     0.033 A 
HETATM    9  C15 MIQ B 502      16.665   9.756   0.038  1.00142.10     0.195 A 
HETATM   10  N17 MIQ B 502      15.753   9.517   0.966  1.00139.42    -0.288 N 
HETATM   11  O16 MIQ B 502      16.479   9.761  -1.345  1.00148.93    -0.171 OA
ENDROOT
BRANCH  10  12
HETATM   12  C18 MIQ B 502      14.374   9.228   0.617  1.00139.82     0.187 C 
HETATM   13  C19 MIQ B 502      14.383   8.109  -0.432  1.00140.06     0.247 C 
HETATM   14  O25 MIQ B 502      14.999   7.126  -0.220  1.00143.95    -0.271 OA
HETATM   15  N20 MIQ B 502      13.649   8.223  -1.675  1.00140.02    -0.296 N 
HETATM   16  H13 MIQ B 502      13.668   7.488  -2.355  1.00142.77     0.171 HD
HETATM   17  C21 MIQ B 502      12.912   9.437  -1.915  1.00142.22     0.224 C 
HETATM   18  C22 MIQ B 502      13.505  10.715  -1.355  1.00139.52     0.106 C 
HETATM   19  O24 MIQ B 502      11.894   9.434  -2.515  1.00146.13    -0.273 OA
HETATM   20  C23 MIQ B 502      13.670  10.496   0.138  1.00139.15     0.045 C 
ENDBRANCH  10  12
BRANCH   5  21
HETATM   21  N6  MIQ B 502      21.074  10.655   3.811  1.00140.95    -0.377 N 
HETATM   22  C7  MIQ B 502      21.151   9.720   4.919  1.00142.12     0.149 C 
HETATM   23  C8  MIQ B 502      21.745  10.362   6.166  1.00144.10     0.187 C 
HETATM   24  O9  MIQ B 502      22.917  11.075   5.904  1.00148.65    -0.388 OA
HETATM   25  C10 MIQ B 502      23.313  11.327   4.588  1.00147.44     0.187 C 
HETATM   26  C11 MIQ B 502      22.235  11.476   3.518  1.00144.08     0.149 C 
ENDBRANCH   5  21
TORSDOF 2
ENDMDL
MODEL 9
REMARK VINA RESULT:      -5.6     21.828     25.708
REMARK  2 active torsions:
REMARK  status: ('A' for Active; 'I' for Inactive)
REMARK    1  A    between atoms: C5_5  and  N6_21 
REMARK    2  A    between atoms: C18_14  and  N17_19 
ROOT
HETATM    1  O1  MIQ B 502       8.353   6.452 -20.161  1.00142.91    -0.171 OA
HETATM    2  C2  MIQ B 502       7.489   6.635 -21.243  1.00141.17     0.195 A 
HETATM    3  C3  MIQ B 502       7.219   5.612 -22.392  1.00141.71     0.035 A 
HETATM    4  C4  MIQ B 502       7.730   4.252 -22.686  1.00142.86     0.046 A 
HETATM    5  C5  MIQ B 502       7.286   3.552 -23.836  1.00139.53     0.031 A 
HETATM    6  C12 MIQ B 502       6.322   4.174 -24.733  1.00139.38     0.030 A 
HETATM    7  C13 MIQ B 502       5.831   5.478 -24.451  1.00141.18     0.019 A 
HETATM    8  C14 MIQ B 502       6.300   6.207 -23.240  1.00138.77     0.033 A 
HETATM    9  C15 MIQ B 502       5.996   7.607 -22.614  1.00142.10     0.195 A 
HETATM   10  N17 MIQ B 502       6.731   7.683 -21.517  1.00139.42    -0.288 N 
HETATM   11  O16 MIQ B 502       5.127   8.577 -23.117  1.00148.93    -0.171 OA
ENDROOT
BRANCH  10  12
HETATM   12  C18 MIQ B 502       6.717   8.866 -20.676  1.00139.82     0.187 C 
HETATM   13  C19 MIQ B 502       8.163   9.353 -20.529  1.00140.06     0.247 C 
HETATM   14  O25 MIQ B 502       8.820   9.508 -21.496  1.00143.95    -0.271 OA
HETATM   15  N20 MIQ B 502       8.746   9.634 -19.233  1.00140.02    -0.296 N 
HETATM   16  H13 MIQ B 502       9.694   9.945 -19.150  1.00142.77     0.171 HD
HETATM   17  C21 MIQ B 502       7.928   9.427 -18.066  1.00142.22     0.224 C 
HETATM   18  C22 MIQ B 502       6.925   8.291 -18.130  1.00139.52     0.106 C 
HETATM   19  O24 MIQ B 502       8.031  10.112 -17.109  1.00146.13    -0.273 OA
HETATM   20  C23 MIQ B 502       6.046   8.559 -19.338  1.00139.15     0.045 C 
ENDBRANCH  10  12
BRANCH   5  21
HETATM   21  N6  MIQ B 502       7.806   2.227 -24.119  1.00140.95    -0.377 N 
HETATM   22  C7  MIQ B 502       7.076   1.379 -25.046  1.00142.12     0.149 C 
HETATM   23  C8  MIQ B 502       7.315  -0.101 -24.772  1.00144.10     0.187 C 
HETATM   24  O9  MIQ B 502       8.667  -0.413 -24.614  1.00148.65    -0.388 OA
HETATM   25  C10 MIQ B 502       9.619   0.603 -24.497  1.00147.44     0.187 C 
HETATM   26  C11 MIQ B 502       9.202   1.924 -23.858  1.00144.08     0.149 C 
ENDBRANCH   5  21
TORSDOF 2
ENDMDL
