MODEL 1
REMARK VINA RESULT:      -7.0      0.000      0.000
REMARK  2 active torsions:
REMARK  status: ('A' for Active; 'I' for Inactive)
REMARK    1  A    between atoms: C5_5  and  N6_21 
REMARK    2  A    between atoms: C18_14  and  N17_19 
ROOT
HETATM    1  O1  MIQ B 502      13.911 -16.443  -8.004  1.00142.91    -0.171 OA
HETATM    2  C2  MIQ B 502      15.004 -15.692  -8.441  1.00141.17     0.195 A 
HETATM    3  C3  MIQ B 502      16.461 -16.216  -8.643  1.00141.71     0.035 A 
HETATM    4  C4  MIQ B 502      17.103 -17.540  -8.463  1.00142.86     0.046 A 
HETATM    5  C5  MIQ B 502      18.483 -17.711  -8.736  1.00139.53     0.031 A 
HETATM    6  C12 MIQ B 502      19.274 -16.579  -9.197  1.00139.38     0.030 A 
HETATM    7  C13 MIQ B 502      18.660 -15.309  -9.370  1.00141.18     0.019 A 
HETATM    8  C14 MIQ B 502      17.209 -15.136  -9.084  1.00138.77     0.033 A 
HETATM    9  C15 MIQ B 502      16.210 -13.936  -9.157  1.00142.10     0.195 A 
HETATM   10  N17 MIQ B 502      15.038 -14.413  -8.772  1.00139.42    -0.288 N 
HETATM   11  O16 MIQ B 502      16.502 -12.628  -9.547  1.00148.93    -0.171 OA
ENDROOT
BRANCH  10  12
HETATM   12  C18 MIQ B 502      13.862 -13.565  -8.700  1.00139.82     0.187 C 
HETATM   13  C19 MIQ B 502      13.391 -13.542  -7.241  1.00140.06     0.247 C 
HETATM   14  O25 MIQ B 502      14.167 -13.291  -6.389  1.00143.95    -0.271 OA
HETATM   15  N20 MIQ B 502      12.015 -13.814  -6.878  1.00140.02    -0.296 N 
HETATM   16  H13 MIQ B 502      11.722 -13.802  -5.922  1.00142.77     0.171 HD
HETATM   17  C21 MIQ B 502      11.088 -14.128  -7.935  1.00142.22     0.224 C 
HETATM   18  C22 MIQ B 502      11.643 -14.889  -9.124  1.00139.52     0.106 C 
HETATM   19  O24 MIQ B 502       9.954 -13.802  -7.879  1.00146.13    -0.273 OA
HETATM   20  C23 MIQ B 502      12.790 -14.059  -9.671  1.00139.15     0.045 C 
ENDBRANCH  10  12
BRANCH   5  21
HETATM   21  N6  MIQ B 502      19.101 -19.010  -8.541  1.00140.95    -0.377 N 
HETATM   22  C7  MIQ B 502      20.517 -19.064  -8.221  1.00142.12     0.149 C 
HETATM   23  C8  MIQ B 502      21.152 -20.374  -8.669  1.00144.10     0.187 C 
HETATM   24  O9  MIQ B 502      20.411 -21.495  -8.289  1.00148.65    -0.388 OA
HETATM   25  C10 MIQ B 502      19.123 -21.348  -7.768  1.00147.44     0.187 C 
HETATM   26  C11 MIQ B 502      18.278 -20.166  -8.231  1.00144.08     0.149 C 
ENDBRANCH   5  21
TORSDOF 2
ENDMDL
MODEL 2
REMARK VINA RESULT:      -6.9      1.381      2.541
REMARK  2 active torsions:
REMARK  status: ('A' for Active; 'I' for Inactive)
REMARK    1  A    between atoms: C5_5  and  N6_21 
REMARK    2  A    between atoms: C18_14  and  N17_19 
ROOT
HETATM    1  O1  MIQ B 502      16.560 -13.179  -9.195  1.00142.91    -0.171 OA
HETATM    2  C2  MIQ B 502      16.087 -14.448  -8.855  1.00141.17     0.195 A 
HETATM    3  C3  MIQ B 502      16.950 -15.740  -8.689  1.00141.71     0.035 A 
HETATM    4  C4  MIQ B 502      18.400 -16.020  -8.818  1.00142.86     0.046 A 
HETATM    5  C5  MIQ B 502      18.899 -17.329  -8.598  1.00139.53     0.031 A 
HETATM    6  C12 MIQ B 502      17.982 -18.402  -8.243  1.00139.38     0.030 A 
HETATM    7  C13 MIQ B 502      16.592 -18.133  -8.118  1.00141.18     0.019 A 
HETATM    8  C14 MIQ B 502      16.074 -16.757  -8.347  1.00138.77     0.033 A 
HETATM    9  C15 MIQ B 502      14.659 -16.093  -8.301  1.00142.10     0.195 A 
HETATM   10  N17 MIQ B 502      14.844 -14.818  -8.603  1.00139.42    -0.288 N 
HETATM   11  O16 MIQ B 502      13.449 -16.723  -8.004  1.00148.93    -0.171 OA
ENDROOT
BRANCH  10  12
HETATM   12  C18 MIQ B 502      13.732 -13.888  -8.671  1.00139.82     0.187 C 
HETATM   13  C19 MIQ B 502      13.272 -13.602  -7.237  1.00140.06     0.247 C 
HETATM   14  O25 MIQ B 502      14.068 -13.278  -6.430  1.00143.95    -0.271 OA
HETATM   15  N20 MIQ B 502      11.882 -13.715  -6.844  1.00140.02    -0.296 N 
HETATM   16  H13 MIQ B 502      11.595 -13.532  -5.903  1.00142.77     0.171 HD
HETATM   17  C21 MIQ B 502      10.929 -14.123  -7.845  1.00142.22     0.224 C 
HETATM   18  C22 MIQ B 502      11.421 -15.099  -8.896  1.00139.52     0.106 C 
HETATM   19  O24 MIQ B 502       9.821 -13.712  -7.847  1.00146.13    -0.273 OA
HETATM   20  C23 MIQ B 502      12.623 -14.449  -9.559  1.00139.15     0.045 C 
ENDBRANCH  10  12
BRANCH   5  21
HETATM   21  N6  MIQ B 502      20.319 -17.592  -8.743  1.00140.95    -0.377 N 
HETATM   22  C7  MIQ B 502      21.164 -16.555  -9.309  1.00142.12     0.149 C 
HETATM   23  C8  MIQ B 502      22.401 -17.134  -9.984  1.00144.10     0.187 C 
HETATM   24  O9  MIQ B 502      23.061 -18.076  -9.192  1.00148.65    -0.388 OA
HETATM   25  C10 MIQ B 502      22.467 -18.559  -8.024  1.00147.44     0.187 C 
HETATM   26  C11 MIQ B 502      20.946 -18.643  -7.959  1.00144.08     0.149 C 
ENDBRANCH   5  21
TORSDOF 2
ENDMDL
MODEL 3
REMARK VINA RESULT:      -6.8     18.943     20.491
REMARK  2 active torsions:
REMARK  status: ('A' for Active; 'I' for Inactive)
REMARK    1  A    between atoms: C5_5  and  N6_21 
REMARK    2  A    between atoms: C18_14  and  N17_19 
ROOT
HETATM    1  O1  MIQ B 502      12.094 -12.214   9.806  1.00142.91    -0.171 OA
HETATM    2  C2  MIQ B 502      12.695 -12.206  11.067  1.00141.17     0.195 A 
HETATM    3  C3  MIQ B 502      13.475 -13.389  11.724  1.00141.71     0.035 A 
HETATM    4  C4  MIQ B 502      13.807 -14.763  11.279  1.00142.86     0.046 A 
HETATM    5  C5  MIQ B 502      14.552 -15.629  12.120  1.00139.53     0.031 A 
HETATM    6  C12 MIQ B 502      14.993 -15.164  13.427  1.00139.38     0.030 A 
HETATM    7  C13 MIQ B 502      14.676 -13.846  13.854  1.00141.18     0.019 A 
HETATM    8  C14 MIQ B 502      13.896 -12.941  12.966  1.00138.77     0.033 A 
HETATM    9  C15 MIQ B 502      13.374 -11.471  13.080  1.00142.10     0.195 A 
HETATM   10  N17 MIQ B 502      12.735 -11.222  11.949  1.00139.42    -0.288 N 
HETATM   11  O16 MIQ B 502      13.547 -10.604  14.160  1.00148.93    -0.171 OA
ENDROOT
BRANCH  10  12
HETATM   12  C18 MIQ B 502      12.098  -9.941  11.705  1.00139.82     0.187 C 
HETATM   13  C19 MIQ B 502      10.644 -10.212  11.301  1.00140.06     0.247 C 
HETATM   14  O25 MIQ B 502       9.979 -10.913  11.977  1.00143.95    -0.271 OA
HETATM   15  N20 MIQ B 502      10.060  -9.625  10.112  1.00140.02    -0.296 N 
HETATM   16  H13 MIQ B 502       9.111  -9.815   9.855  1.00142.77     0.171 HD
HETATM   17  C21 MIQ B 502      10.895  -8.781   9.297  1.00142.22     0.224 C 
HETATM   18  C22 MIQ B 502      12.366  -9.142   9.226  1.00139.52     0.106 C 
HETATM   19  O24 MIQ B 502      10.453  -7.850   8.717  1.00146.13    -0.273 OA
HETATM   20  C23 MIQ B 502      12.877  -9.150  10.655  1.00139.15     0.045 C 
ENDBRANCH  10  12
BRANCH   5  21
HETATM   21  N6  MIQ B 502      14.857 -16.977  11.677  1.00140.95    -0.377 N 
HETATM   22  C7  MIQ B 502      15.721 -17.150  10.523  1.00142.12     0.149 C 
HETATM   23  C8  MIQ B 502      15.448 -18.463   9.799  1.00144.10     0.187 C 
HETATM   24  O9  MIQ B 502      15.382 -19.557  10.664  1.00148.65    -0.388 OA
HETATM   25  C10 MIQ B 502      15.342 -19.363  12.048  1.00147.44     0.187 C 
HETATM   26  C11 MIQ B 502      14.689 -18.095  12.589  1.00144.08     0.149 C 
ENDBRANCH   5  21
TORSDOF 2
ENDMDL
MODEL 4
REMARK VINA RESULT:      -6.8      1.977      7.825
REMARK  2 active torsions:
REMARK  status: ('A' for Active; 'I' for Inactive)
REMARK    1  A    between atoms: C5_5  and  N6_21 
REMARK    2  A    between atoms: C18_14  and  N17_19 
ROOT
HETATM    1  O1  MIQ B 502      17.228 -17.391  -7.595  1.00142.91    -0.171 OA
HETATM    2  C2  MIQ B 502      17.094 -16.365  -8.534  1.00141.17     0.195 A 
HETATM    3  C3  MIQ B 502      15.847 -15.443  -8.720  1.00141.71     0.035 A 
HETATM    4  C4  MIQ B 502      14.535 -15.354  -8.036  1.00142.86     0.046 A 
HETATM    5  C5  MIQ B 502      13.581 -14.385  -8.439  1.00139.53     0.031 A 
HETATM    6  C12 MIQ B 502      13.894 -13.473  -9.530  1.00139.38     0.030 A 
HETATM    7  C13 MIQ B 502      15.153 -13.557 -10.185  1.00141.18     0.019 A 
HETATM    8  C14 MIQ B 502      16.151 -14.575  -9.756  1.00138.77     0.033 A 
HETATM    9  C15 MIQ B 502      17.595 -14.960 -10.216  1.00142.10     0.195 A 
HETATM   10  N17 MIQ B 502      17.970 -15.963  -9.438  1.00139.42    -0.288 N 
HETATM   11  O16 MIQ B 502      18.332 -14.366 -11.241  1.00148.93    -0.171 OA
ENDROOT
BRANCH  10  12
HETATM   12  C18 MIQ B 502      19.267 -16.595  -9.591  1.00139.82     0.187 C 
HETATM   13  C19 MIQ B 502      19.041 -18.108  -9.696  1.00140.06     0.247 C 
HETATM   14  O25 MIQ B 502      18.256 -18.521 -10.473  1.00143.95    -0.271 OA
HETATM   15  N20 MIQ B 502      19.769 -19.048  -8.869  1.00140.02    -0.296 N 
HETATM   16  H13 MIQ B 502      19.607 -20.033  -8.942  1.00142.77     0.171 HD
HETATM   17  C21 MIQ B 502      20.715 -18.520  -7.919  1.00142.22     0.224 C 
HETATM   18  C22 MIQ B 502      20.375 -17.182  -7.292  1.00139.52     0.106 C 
HETATM   19  O24 MIQ B 502      21.708 -19.100  -7.649  1.00146.13    -0.273 OA
HETATM   20  C23 MIQ B 502      20.189 -16.203  -8.437  1.00139.15     0.045 C 
ENDBRANCH  10  12
BRANCH   5  21
HETATM   21  N6  MIQ B 502      12.294 -14.318  -7.771  1.00140.95    -0.377 N 
HETATM   22  C7  MIQ B 502      12.026 -13.193  -6.891  1.00142.12     0.149 C 
HETATM   23  C8  MIQ B 502      11.008 -13.545  -5.814  1.00144.10     0.187 C 
HETATM   24  O9  MIQ B 502       9.878 -14.187  -6.323  1.00148.65    -0.388 OA
HETATM   25  C10 MIQ B 502       9.856 -14.638  -7.645  1.00147.44     0.187 C 
HETATM   26  C11 MIQ B 502      11.168 -15.074  -8.289  1.00144.08     0.149 C 
ENDBRANCH   5  21
TORSDOF 2
ENDMDL
MODEL 5
REMARK VINA RESULT:      -6.7     18.687     21.370
REMARK  2 active torsions:
REMARK  status: ('A' for Active; 'I' for Inactive)
REMARK    1  A    between atoms: C5_5  and  N6_21 
REMARK    2  A    between atoms: C18_14  and  N17_19 
ROOT
HETATM    1  O1  MIQ B 502      10.573 -16.113  11.574  1.00142.91    -0.171 OA
HETATM    2  C2  MIQ B 502      11.844 -15.589  11.328  1.00141.17     0.195 A 
HETATM    3  C3  MIQ B 502      12.225 -14.075  11.282  1.00141.71     0.035 A 
HETATM    4  C4  MIQ B 502      11.451 -12.824  11.467  1.00142.86     0.046 A 
HETATM    5  C5  MIQ B 502      12.092 -11.564  11.364  1.00139.53     0.031 A 
HETATM    6  C12 MIQ B 502      13.518 -11.499  11.076  1.00139.38     0.030 A 
HETATM    7  C13 MIQ B 502      14.259 -12.698  10.899  1.00141.18     0.019 A 
HETATM    8  C14 MIQ B 502      13.582 -14.019  11.011  1.00138.77     0.033 A 
HETATM    9  C15 MIQ B 502      14.047 -15.507  10.888  1.00142.10     0.195 A 
HETATM   10  N17 MIQ B 502      12.968 -16.244  11.092  1.00139.42    -0.288 N 
HETATM   11  O16 MIQ B 502      15.339 -15.958  10.615  1.00148.93    -0.171 OA
ENDROOT
BRANCH  10  12
HETATM   12  C18 MIQ B 502      13.020 -17.693  11.038  1.00139.82     0.187 C 
HETATM   13  C19 MIQ B 502      14.214 -18.151  11.885  1.00140.06     0.247 C 
HETATM   14  O25 MIQ B 502      14.326 -17.747  12.988  1.00143.95    -0.271 OA
HETATM   15  N20 MIQ B 502      15.208 -19.071  11.370  1.00140.02    -0.296 N 
HETATM   16  H13 MIQ B 502      15.986 -19.356  11.931  1.00142.77     0.171 HD
HETATM   17  C21 MIQ B 502      15.055 -19.541  10.018  1.00142.22     0.224 C 
HETATM   18  C22 MIQ B 502      14.445 -18.571   9.024  1.00139.52     0.106 C 
HETATM   19  O24 MIQ B 502      15.385 -20.631   9.702  1.00146.13    -0.273 OA
HETATM   20  C23 MIQ B 502      13.095 -18.169   9.588  1.00139.15     0.045 C 
ENDBRANCH  10  12
BRANCH   5  21
HETATM   21  N6  MIQ B 502      11.320 -10.346  11.533  1.00140.95    -0.377 N 
HETATM   22  C7  MIQ B 502      10.722  -9.734  10.359  1.00142.12     0.149 C 
HETATM   23  C8  MIQ B 502      10.528  -8.234  10.537  1.00144.10     0.187 C 
HETATM   24  O9  MIQ B 502       9.926  -7.904  11.753  1.00148.65    -0.388 OA
HETATM   25  C10 MIQ B 502       9.765  -8.871  12.748  1.00147.44     0.187 C 
HETATM   26  C11 MIQ B 502      10.786 -10.001  12.839  1.00144.08     0.149 C 
ENDBRANCH   5  21
TORSDOF 2
ENDMDL
MODEL 6
REMARK VINA RESULT:      -6.7      3.831      8.703
REMARK  2 active torsions:
REMARK  status: ('A' for Active; 'I' for Inactive)
REMARK    1  A    between atoms: C5_5  and  N6_21 
REMARK    2  A    between atoms: C18_14  and  N17_19 
ROOT
HETATM    1  O1  MIQ B 502      12.052 -12.250  -6.711  1.00142.91    -0.171 OA
HETATM    2  C2  MIQ B 502      12.155 -13.541  -7.234  1.00141.17     0.195 A 
HETATM    3  C3  MIQ B 502      11.120 -14.696  -7.047  1.00141.71     0.035 A 
HETATM    4  C4  MIQ B 502       9.825 -14.799  -6.334  1.00142.86     0.046 A 
HETATM    5  C5  MIQ B 502       9.094 -16.014  -6.346  1.00139.53     0.031 A 
HETATM    6  C12 MIQ B 502       9.620 -17.166  -7.064  1.00139.38     0.030 A 
HETATM    7  C13 MIQ B 502      10.862 -17.068  -7.748  1.00141.18     0.019 A 
HETATM    8  C14 MIQ B 502      11.623 -15.789  -7.734  1.00138.77     0.033 A 
HETATM    9  C15 MIQ B 502      12.977 -15.309  -8.352  1.00142.10     0.195 A 
HETATM   10  N17 MIQ B 502      13.119 -14.047  -7.983  1.00139.42    -0.288 N 
HETATM   11  O16 MIQ B 502      13.855 -16.065  -9.131  1.00148.93    -0.171 OA
ENDROOT
BRANCH  10  12
HETATM   12  C18 MIQ B 502      14.285 -13.273  -8.366  1.00139.82     0.187 C 
HETATM   13  C19 MIQ B 502      14.431 -13.370  -9.890  1.00140.06     0.247 C 
HETATM   14  O25 MIQ B 502      13.500 -13.132 -10.574  1.00143.95    -0.271 OA
HETATM   15  N20 MIQ B 502      15.684 -13.741 -10.515  1.00140.02    -0.296 N 
HETATM   16  H13 MIQ B 502      15.764 -13.808 -11.511  1.00142.77     0.171 HD
HETATM   17  C21 MIQ B 502      16.803 -14.038  -9.659  1.00142.22     0.224 C 
HETATM   18  C22 MIQ B 502      16.488 -14.689  -8.326  1.00139.52     0.106 C 
HETATM   19  O24 MIQ B 502      17.911 -13.780  -9.980  1.00146.13    -0.273 OA
HETATM   20  C23 MIQ B 502      15.520 -13.763  -7.612  1.00139.15     0.045 C 
ENDBRANCH  10  12
BRANCH   5  21
HETATM   21  N6  MIQ B 502       7.834 -16.105  -5.631  1.00140.95    -0.377 N 
HETATM   22  C7  MIQ B 502       6.773 -16.921  -6.195  1.00142.12     0.149 C 
HETATM   23  C8  MIQ B 502       5.394 -16.443  -5.757  1.00144.10     0.187 C 
HETATM   24  O9  MIQ B 502       5.308 -16.219  -4.382  1.00148.65    -0.388 OA
HETATM   25  C10 MIQ B 502       6.460 -16.223  -3.591  1.00147.44     0.187 C 
HETATM   26  C11 MIQ B 502       7.777 -15.778  -4.217  1.00144.08     0.149 C 
ENDBRANCH   5  21
TORSDOF 2
ENDMDL
MODEL 7
REMARK VINA RESULT:      -6.7      4.410      9.597
REMARK  2 active torsions:
REMARK  status: ('A' for Active; 'I' for Inactive)
REMARK    1  A    between atoms: C5_5  and  N6_21 
REMARK    2  A    between atoms: C18_14  and  N17_19 
ROOT
HETATM    1  O1  MIQ B 502      11.634 -19.709  -7.220  1.00142.91    -0.171 OA
HETATM    2  C2  MIQ B 502      11.630 -18.357  -7.571  1.00141.17     0.195 A 
HETATM    3  C3  MIQ B 502      10.453 -17.353  -7.361  1.00141.71     0.035 A 
HETATM    4  C4  MIQ B 502       9.095 -17.482  -6.781  1.00142.86     0.046 A 
HETATM    5  C5  MIQ B 502       8.230 -16.360  -6.726  1.00139.53     0.031 A 
HETATM    6  C12 MIQ B 502       8.679 -15.075  -7.242  1.00139.38     0.030 A 
HETATM    7  C13 MIQ B 502       9.981 -14.951  -7.797  1.00141.18     0.019 A 
HETATM    8  C14 MIQ B 502      10.886 -16.132  -7.850  1.00138.77     0.033 A 
HETATM    9  C15 MIQ B 502      12.341 -16.379  -8.366  1.00142.10     0.195 A 
HETATM   10  N17 MIQ B 502      12.598 -17.656  -8.135  1.00139.42    -0.288 N 
HETATM   11  O16 MIQ B 502      13.191 -15.440  -8.953  1.00148.93    -0.171 OA
ENDROOT
BRANCH  10  12
HETATM   12  C18 MIQ B 502      13.869 -18.251  -8.504  1.00139.82     0.187 C 
HETATM   13  C19 MIQ B 502      13.576 -19.586  -9.199  1.00140.06     0.247 C 
HETATM   14  O25 MIQ B 502      12.802 -19.614 -10.089  1.00143.95    -0.271 OA
HETATM   15  N20 MIQ B 502      14.229 -20.816  -8.798  1.00140.02    -0.296 N 
HETATM   16  H13 MIQ B 502      14.024 -21.682  -9.255  1.00142.77     0.171 HD
HETATM   17  C21 MIQ B 502      15.162 -20.757  -7.702  1.00142.22     0.224 C 
HETATM   18  C22 MIQ B 502      14.862 -19.756  -6.604  1.00139.52     0.106 C 
HETATM   19  O24 MIQ B 502      16.116 -21.454  -7.666  1.00146.13    -0.273 OA
HETATM   20  C23 MIQ B 502      14.765 -18.397  -7.274  1.00139.15     0.045 C 
ENDBRANCH  10  12
BRANCH   5  21
HETATM   21  N6  MIQ B 502       6.897 -16.504  -6.169  1.00140.95    -0.377 N 
HETATM   22  C7  MIQ B 502       6.039 -17.558  -6.682  1.00142.12     0.149 C 
HETATM   23  C8  MIQ B 502       4.563 -17.218  -6.524  1.00144.10     0.187 C 
HETATM   24  O9  MIQ B 502       4.245 -16.761  -5.243  1.00148.65    -0.388 OA
HETATM   25  C10 MIQ B 502       5.257 -16.449  -4.332  1.00147.44     0.187 C 
HETATM   26  C11 MIQ B 502       6.589 -15.936  -4.868  1.00144.08     0.149 C 
ENDBRANCH   5  21
TORSDOF 2
ENDMDL
MODEL 8
REMARK VINA RESULT:      -6.6     19.052     21.159
REMARK  2 active torsions:
REMARK  status: ('A' for Active; 'I' for Inactive)
REMARK    1  A    between atoms: C5_5  and  N6_21 
REMARK    2  A    between atoms: C18_14  and  N17_19 
ROOT
HETATM    1  O1  MIQ B 502      15.452 -16.866  11.090  1.00142.91    -0.171 OA
HETATM    2  C2  MIQ B 502      14.082 -16.597  11.115  1.00141.17     0.195 A 
HETATM    3  C3  MIQ B 502      13.420 -15.182  11.157  1.00141.71     0.035 A 
HETATM    4  C4  MIQ B 502      13.964 -13.804  11.179  1.00142.86     0.046 A 
HETATM    5  C5  MIQ B 502      13.088 -12.689  11.216  1.00139.53     0.031 A 
HETATM    6  C12 MIQ B 502      11.648 -12.901  11.233  1.00139.38     0.030 A 
HETATM    7  C13 MIQ B 502      11.127 -14.223  11.211  1.00141.18     0.019 A 
HETATM    8  C14 MIQ B 502      12.051 -15.389  11.169  1.00138.77     0.033 A 
HETATM    9  C15 MIQ B 502      11.861 -16.941  11.134  1.00142.10     0.195 A 
HETATM   10  N17 MIQ B 502      13.078 -17.457  11.103  1.00139.42    -0.288 N 
HETATM   11  O16 MIQ B 502      10.649 -17.635  11.136  1.00148.93    -0.171 OA
ENDROOT
BRANCH  10  12
HETATM   12  C18 MIQ B 502      13.292 -18.892  11.081  1.00139.82     0.187 C 
HETATM   13  C19 MIQ B 502      14.279 -19.236  12.203  1.00140.06     0.247 C 
HETATM   14  O25 MIQ B 502      14.072 -18.839  13.294  1.00143.95    -0.271 OA
HETATM   15  N20 MIQ B 502      15.459 -20.041  11.962  1.00140.02    -0.296 N 
HETATM   16  H13 MIQ B 502      16.099 -20.253  12.702  1.00142.77     0.171 HD
HETATM   17  C21 MIQ B 502      15.696 -20.505  10.620  1.00142.22     0.224 C 
HETATM   18  C22 MIQ B 502      15.255 -19.590   9.494  1.00139.52     0.106 C 
HETATM   19  O24 MIQ B 502      16.205 -21.551  10.408  1.00146.13    -0.273 OA
HETATM   20  C23 MIQ B 502      13.772 -19.337   9.700  1.00139.15     0.045 C 
ENDBRANCH  10  12
BRANCH   5  21
HETATM   21  N6  MIQ B 502      13.635 -11.344  11.252  1.00140.95    -0.377 N 
HETATM   22  C7  MIQ B 502      12.987 -10.310  10.463  1.00142.12     0.149 C 
HETATM   23  C8  MIQ B 502      13.956  -9.201  10.075  1.00144.10     0.187 C 
HETATM   24  O9  MIQ B 502      14.717  -8.742  11.152  1.00148.65    -0.388 OA
HETATM   25  C10 MIQ B 502      14.708  -9.429  12.368  1.00147.44     0.187 C 
HETATM   26  C11 MIQ B 502      14.493 -10.939  12.352  1.00144.08     0.149 C 
ENDBRANCH   5  21
TORSDOF 2
ENDMDL
MODEL 9
REMARK VINA RESULT:      -6.6     19.157     20.820
REMARK  2 active torsions:
REMARK  status: ('A' for Active; 'I' for Inactive)
REMARK    1  A    between atoms: C5_5  and  N6_21 
REMARK    2  A    between atoms: C18_14  and  N17_19 
ROOT
HETATM    1  O1  MIQ B 502      15.014 -11.127  10.867  1.00142.91    -0.171 OA
HETATM    2  C2  MIQ B 502      13.743 -11.563  11.247  1.00141.17     0.195 A 
HETATM    3  C3  MIQ B 502      13.260 -13.047  11.319  1.00141.71     0.035 A 
HETATM    4  C4  MIQ B 502      13.917 -14.347  11.043  1.00142.86     0.046 A 
HETATM    5  C5  MIQ B 502      13.201 -15.560  11.205  1.00139.53     0.031 A 
HETATM    6  C12 MIQ B 502      11.814 -15.527  11.645  1.00139.38     0.030 A 
HETATM    7  C13 MIQ B 502      11.184 -14.281  11.911  1.00141.18     0.019 A 
HETATM    8  C14 MIQ B 502      11.941 -13.011  11.741  1.00138.77     0.033 A 
HETATM    9  C15 MIQ B 502      11.603 -11.496  11.933  1.00142.10     0.195 A 
HETATM   10  N17 MIQ B 502      12.705 -10.834  11.621  1.00139.42    -0.288 N 
HETATM   11  O16 MIQ B 502      10.384 -10.958  12.347  1.00148.93    -0.171 OA
ENDROOT
BRANCH  10  12
HETATM   12  C18 MIQ B 502      12.757  -9.385  11.668  1.00139.82     0.187 C 
HETATM   13  C19 MIQ B 502      12.371  -8.949  13.087  1.00140.06     0.247 C 
HETATM   14  O25 MIQ B 502      12.919  -9.440  14.010  1.00143.95    -0.271 OA
HETATM   15  N20 MIQ B 502      11.354  -7.946  13.328  1.00140.02    -0.296 N 
HETATM   16  H13 MIQ B 502      11.107  -7.675  14.260  1.00142.77     0.171 HD
HETATM   17  C21 MIQ B 502      10.692  -7.369  12.187  1.00142.22     0.224 C 
HETATM   18  C22 MIQ B 502      10.483  -8.277  10.990  1.00139.52     0.106 C 
HETATM   19  O24 MIQ B 502      10.334  -6.243  12.184  1.00146.13    -0.273 OA
HETATM   20  C23 MIQ B 502      11.857  -8.785  10.590  1.00139.15     0.045 C 
ENDBRANCH  10  12
BRANCH   5  21
HETATM   21  N6  MIQ B 502      13.852 -16.825  10.918  1.00140.95    -0.377 N 
HETATM   22  C7  MIQ B 502      13.024 -17.983  10.630  1.00142.12     0.149 C 
HETATM   23  C8  MIQ B 502      13.727 -19.287  10.982  1.00144.10     0.187 C 
HETATM   24  O9  MIQ B 502      15.033 -19.350  10.491  1.00148.65    -0.388 OA
HETATM   25  C10 MIQ B 502      15.642 -18.215   9.951  1.00147.44     0.187 C 
HETATM   26  C11 MIQ B 502      15.241 -16.846  10.491  1.00144.08     0.149 C 
ENDBRANCH   5  21
TORSDOF 2
ENDMDL
