MODEL 1
REMARK VINA RESULT:      -6.3      0.000      0.000
REMARK  2 active torsions:
REMARK  status: ('A' for Active; 'I' for Inactive)
REMARK    1  A    between atoms: C5_5  and  N6_21 
REMARK    2  A    between atoms: C18_14  and  N17_19 
ROOT
HETATM    1  O1  MIQ B 502      -7.482  27.928  -4.129  1.00142.91    -0.171 OA
HETATM    2  C2  MIQ B 502      -8.090  27.855  -5.384  1.00141.17     0.195 A 
HETATM    3  C3  MIQ B 502      -7.943  28.894  -6.542  1.00141.71     0.035 A 
HETATM    4  C4  MIQ B 502      -7.189  30.162  -6.683  1.00142.86     0.046 A 
HETATM    5  C5  MIQ B 502      -7.254  30.903  -7.890  1.00139.53     0.031 A 
HETATM    6  C12 MIQ B 502      -8.065  30.415  -8.996  1.00139.38     0.030 A 
HETATM    7  C13 MIQ B 502      -8.787  29.198  -8.861  1.00141.18     0.019 A 
HETATM    8  C14 MIQ B 502      -8.714  28.423  -7.592  1.00138.77     0.033 A 
HETATM    9  C15 MIQ B 502      -9.342  27.084  -7.084  1.00142.10     0.195 A 
HETATM   10  N17 MIQ B 502      -8.895  26.916  -5.851  1.00139.42    -0.288 N 
HETATM   11  O16 MIQ B 502     -10.202  26.243  -7.793  1.00148.93    -0.171 OA
ENDROOT
BRANCH  10  12
HETATM   12  C18 MIQ B 502      -9.289  25.771  -5.052  1.00139.82     0.187 C 
HETATM   13  C19 MIQ B 502      -9.999  26.296  -3.798  1.00140.06     0.247 C 
HETATM   14  O25 MIQ B 502     -10.878  27.074  -3.917  1.00143.95    -0.271 OA
HETATM   15  N20 MIQ B 502      -9.623  25.861  -2.469  1.00140.02    -0.296 N 
HETATM   16  H13 MIQ B 502     -10.090  26.217  -1.658  1.00142.77     0.171 HD
HETATM   17  C21 MIQ B 502      -8.540  24.919  -2.348  1.00142.22     0.224 C 
HETATM   18  C22 MIQ B 502      -7.424  25.031  -3.369  1.00139.52     0.106 C 
HETATM   19  O24 MIQ B 502      -8.526  24.098  -1.498  1.00146.13    -0.273 OA
HETATM   20  C23 MIQ B 502      -8.074  24.900  -4.735  1.00139.15     0.045 C 
ENDBRANCH  10  12
BRANCH   5  21
HETATM   21  N6  MIQ B 502      -6.522  32.151  -8.009  1.00140.95    -0.377 N 
HETATM   22  C7  MIQ B 502      -6.822  33.224  -7.077  1.00142.12     0.149 C 
HETATM   23  C8  MIQ B 502      -6.512  34.594  -7.667  1.00144.10     0.187 C 
HETATM   24  O9  MIQ B 502      -5.251  34.656  -8.263  1.00148.65    -0.388 OA
HETATM   25  C10 MIQ B 502      -4.507  33.491  -8.468  1.00147.44     0.187 C 
HETATM   26  C11 MIQ B 502      -5.253  32.184  -8.714  1.00144.08     0.149 C 
ENDBRANCH   5  21
TORSDOF 2
ENDMDL
MODEL 2
REMARK VINA RESULT:      -6.0     17.727     20.292
REMARK  2 active torsions:
REMARK  status: ('A' for Active; 'I' for Inactive)
REMARK    1  A    between atoms: C5_5  and  N6_21 
REMARK    2  A    between atoms: C18_14  and  N17_19 
ROOT
HETATM    1  O1  MIQ B 502       7.310  22.253  -0.263  1.00142.91    -0.171 OA
HETATM    2  C2  MIQ B 502       8.198  21.852   0.738  1.00141.17     0.195 A 
HETATM    3  C3  MIQ B 502       7.916  21.846   2.274  1.00141.71     0.035 A 
HETATM    4  C4  MIQ B 502       6.740  22.219   3.095  1.00142.86     0.046 A 
HETATM    5  C5  MIQ B 502       6.785  22.100   4.507  1.00139.53     0.031 A 
HETATM    6  C12 MIQ B 502       7.994  21.608   5.153  1.00139.38     0.030 A 
HETATM    7  C13 MIQ B 502       9.121  21.249   4.366  1.00141.18     0.019 A 
HETATM    8  C14 MIQ B 502       9.067  21.374   2.883  1.00138.77     0.033 A 
HETATM    9  C15 MIQ B 502      10.069  21.084   1.719  1.00142.10     0.195 A 
HETATM   10  N17 MIQ B 502       9.433  21.399   0.602  1.00139.42    -0.288 N 
HETATM   11  O16 MIQ B 502      11.371  20.596   1.839  1.00148.93    -0.171 OA
ENDROOT
BRANCH  10  12
HETATM   12  C18 MIQ B 502      10.070  21.271  -0.695  1.00139.82     0.187 C 
HETATM   13  C19 MIQ B 502      10.043  22.648  -1.368  1.00140.06     0.247 C 
HETATM   14  O25 MIQ B 502      10.438  23.588  -0.774  1.00143.95    -0.271 OA
HETATM   15  N20 MIQ B 502       9.549  22.829  -2.717  1.00140.02    -0.296 N 
HETATM   16  H13 MIQ B 502       9.530  23.735  -3.143  1.00142.77     0.171 HD
HETATM   17  C21 MIQ B 502       9.062  21.669  -3.419  1.00142.22     0.224 C 
HETATM   18  C22 MIQ B 502       8.381  20.603  -2.582  1.00139.52     0.106 C 
HETATM   19  O24 MIQ B 502       9.191  21.554  -4.588  1.00146.13    -0.273 OA
HETATM   20  C23 MIQ B 502       9.382  20.184  -1.520  1.00139.15     0.045 C 
ENDBRANCH  10  12
BRANCH   5  21
HETATM   21  N6  MIQ B 502       5.631  22.483   5.300  1.00140.95    -0.377 N 
HETATM   22  C7  MIQ B 502       4.312  22.071   4.852  1.00142.12     0.149 C 
HETATM   23  C8  MIQ B 502       3.224  23.017   5.341  1.00144.10     0.187 C 
HETATM   24  O9  MIQ B 502       3.327  23.308   6.703  1.00148.65    -0.388 OA
HETATM   25  C10 MIQ B 502       4.463  22.929   7.423  1.00147.44     0.187 C 
HETATM   26  C11 MIQ B 502       5.801  22.861   6.693  1.00144.08     0.149 C 
ENDBRANCH   5  21
TORSDOF 2
ENDMDL
MODEL 3
REMARK VINA RESULT:      -5.9     16.417     18.294
REMARK  2 active torsions:
REMARK  status: ('A' for Active; 'I' for Inactive)
REMARK    1  A    between atoms: C5_5  and  N6_21 
REMARK    2  A    between atoms: C18_14  and  N17_19 
ROOT
HETATM    1  O1  MIQ B 502     -16.608  18.513   0.936  1.00142.91    -0.171 OA
HETATM    2  C2  MIQ B 502     -17.498  17.469   1.197  1.00141.17     0.195 A 
HETATM    3  C3  MIQ B 502     -18.202  16.569   0.133  1.00141.71     0.035 A 
HETATM    4  C4  MIQ B 502     -18.163  16.522  -1.348  1.00142.86     0.046 A 
HETATM    5  C5  MIQ B 502     -18.932  15.563  -2.056  1.00139.53     0.031 A 
HETATM    6  C12 MIQ B 502     -19.763  14.620  -1.322  1.00139.38     0.030 A 
HETATM    7  C13 MIQ B 502     -19.800  14.664   0.098  1.00141.18     0.019 A 
HETATM    8  C14 MIQ B 502     -18.989  15.671   0.835  1.00138.77     0.033 A 
HETATM    9  C15 MIQ B 502     -18.773  16.016   2.345  1.00142.10     0.195 A 
HETATM   10  N17 MIQ B 502     -17.921  17.028   2.370  1.00139.42    -0.288 N 
HETATM   11  O16 MIQ B 502     -19.363  15.383   3.440  1.00148.93    -0.171 OA
ENDROOT
BRANCH  10  12
HETATM   12  C18 MIQ B 502     -17.496  17.630   3.620  1.00139.82     0.187 C 
HETATM   13  C19 MIQ B 502     -16.946  16.513   4.514  1.00140.06     0.247 C 
HETATM   14  O25 MIQ B 502     -16.132  15.777   4.080  1.00143.95    -0.271 OA
HETATM   15  N20 MIQ B 502     -17.393  16.337   5.880  1.00140.02    -0.296 N 
HETATM   16  H13 MIQ B 502     -17.030  15.599   6.451  1.00142.77     0.171 HD
HETATM   17  C21 MIQ B 502     -18.395  17.241   6.383  1.00142.22     0.224 C 
HETATM   18  C22 MIQ B 502     -19.425  17.738   5.388  1.00139.52     0.106 C 
HETATM   19  O24 MIQ B 502     -18.408  17.581   7.515  1.00146.13    -0.273 OA
HETATM   20  C23 MIQ B 502     -18.652  18.398   4.260  1.00139.15     0.045 C 
ENDBRANCH  10  12
BRANCH   5  21
HETATM   21  N6  MIQ B 502     -18.895  15.538  -3.507  1.00140.95    -0.377 N 
HETATM   22  C7  MIQ B 502     -18.352  16.689  -4.208  1.00142.12     0.149 C 
HETATM   23  C8  MIQ B 502     -18.935  16.829  -5.608  1.00144.10     0.187 C 
HETATM   24  O9  MIQ B 502     -18.920  15.632  -6.325  1.00148.65    -0.388 OA
HETATM   25  C10 MIQ B 502     -18.611  14.428  -5.687  1.00147.44     0.187 C 
HETATM   26  C11 MIQ B 502     -18.969  14.271  -4.212  1.00144.08     0.149 C 
ENDBRANCH   5  21
TORSDOF 2
ENDMDL
MODEL 4
REMARK VINA RESULT:      -5.9     17.696     19.789
REMARK  2 active torsions:
REMARK  status: ('A' for Active; 'I' for Inactive)
REMARK    1  A    between atoms: C5_5  and  N6_21 
REMARK    2  A    between atoms: C18_14  and  N17_19 
ROOT
HETATM    1  O1  MIQ B 502       8.037  22.097   6.149  1.00142.91    -0.171 OA
HETATM    2  C2  MIQ B 502       6.901  21.992   5.343  1.00141.17     0.195 A 
HETATM    3  C3  MIQ B 502       6.881  21.909   3.784  1.00141.71     0.035 A 
HETATM    4  C4  MIQ B 502       7.943  21.910   2.749  1.00142.86     0.046 A 
HETATM    5  C5  MIQ B 502       7.605  21.819   1.375  1.00139.53     0.031 A 
HETATM    6  C12 MIQ B 502       6.207  21.722   0.980  1.00139.38     0.030 A 
HETATM    7  C13 MIQ B 502       5.189  21.720   1.971  1.00141.18     0.019 A 
HETATM    8  C14 MIQ B 502       5.550  21.814   3.412  1.00138.77     0.033 A 
HETATM    9  C15 MIQ B 502       4.739  21.838   4.749  1.00142.10     0.195 A 
HETATM   10  N17 MIQ B 502       5.635  21.937   5.717  1.00139.42    -0.288 N 
HETATM   11  O16 MIQ B 502       3.352  21.771   4.886  1.00148.93    -0.171 OA
ENDROOT
BRANCH  10  12
HETATM   12  C18 MIQ B 502       5.238  22.002   7.112  1.00139.82     0.187 C 
HETATM   13  C19 MIQ B 502       5.926  23.222   7.737  1.00140.06     0.247 C 
HETATM   14  O25 MIQ B 502       5.836  24.270   7.204  1.00143.95    -0.271 OA
HETATM   15  N20 MIQ B 502       6.681  23.124   8.970  1.00140.02    -0.296 N 
HETATM   16  H13 MIQ B 502       7.131  23.926   9.364  1.00142.77     0.171 HD
HETATM   17  C21 MIQ B 502       6.785  21.831   9.596  1.00142.22     0.224 C 
HETATM   18  C22 MIQ B 502       6.829  20.629   8.673  1.00139.52     0.106 C 
HETATM   19  O24 MIQ B 502       6.829  21.716  10.772  1.00146.13    -0.273 OA
HETATM   20  C23 MIQ B 502       5.574  20.692   7.822  1.00139.15     0.045 C 
ENDBRANCH  10  12
BRANCH   5  21
HETATM   21  N6  MIQ B 502       8.654  21.836   0.373  1.00140.95    -0.377 N 
HETATM   22  C7  MIQ B 502       8.488  21.024  -0.820  1.00142.12     0.149 C 
HETATM   23  C8  MIQ B 502       9.827  20.624  -1.427  1.00144.10     0.187 C 
HETATM   24  O9  MIQ B 502      10.708  21.700  -1.556  1.00148.65    -0.388 OA
HETATM   25  C10 MIQ B 502      10.418  22.928  -0.956  1.00147.44     0.187 C 
HETATM   26  C11 MIQ B 502       9.602  22.936   0.333  1.00144.08     0.149 C 
ENDBRANCH   5  21
TORSDOF 2
ENDMDL
MODEL 5
REMARK VINA RESULT:      -5.9     17.116     19.536
REMARK  2 active torsions:
REMARK  status: ('A' for Active; 'I' for Inactive)
REMARK    1  A    between atoms: C5_5  and  N6_21 
REMARK    2  A    between atoms: C18_14  and  N17_19 
ROOT
HETATM    1  O1  MIQ B 502     -19.744  17.842   2.682  1.00142.91    -0.171 OA
HETATM    2  C2  MIQ B 502     -18.704  17.493   3.546  1.00141.17     0.195 A 
HETATM    3  C3  MIQ B 502     -18.487  18.035   4.995  1.00141.71     0.035 A 
HETATM    4  C4  MIQ B 502     -19.231  18.994   5.846  1.00142.86     0.046 A 
HETATM    5  C5  MIQ B 502     -18.777  19.292   7.155  1.00139.53     0.031 A 
HETATM    6  C12 MIQ B 502     -17.573  18.652   7.666  1.00139.38     0.030 A 
HETATM    7  C13 MIQ B 502     -16.860  17.732   6.851  1.00141.18     0.019 A 
HETATM    8  C14 MIQ B 502     -17.343  17.421   5.478  1.00138.77     0.033 A 
HETATM    9  C15 MIQ B 502     -16.847  16.491   4.322  1.00142.10     0.195 A 
HETATM   10  N17 MIQ B 502     -17.710  16.647   3.332  1.00139.42    -0.288 N 
HETATM   11  O16 MIQ B 502     -15.720  15.668   4.337  1.00148.93    -0.171 OA
ENDROOT
BRANCH  10  12
HETATM   12  C18 MIQ B 502     -17.555  15.941   2.074  1.00139.82     0.187 C 
HETATM   13  C19 MIQ B 502     -17.630  16.976   0.944  1.00140.06     0.247 C 
HETATM   14  O25 MIQ B 502     -16.947  17.936   0.997  1.00143.95    -0.271 OA
HETATM   15  N20 MIQ B 502     -18.513  16.804  -0.191  1.00140.02    -0.296 N 
HETATM   16  H13 MIQ B 502     -18.557  17.490  -0.919  1.00142.77     0.171 HD
HETATM   17  C21 MIQ B 502     -19.344  15.629  -0.228  1.00142.22     0.224 C 
HETATM   18  C22 MIQ B 502     -19.839  15.103   1.105  1.00139.52     0.106 C 
HETATM   19  O24 MIQ B 502     -19.620  15.099  -1.248  1.00146.13    -0.273 OA
HETATM   20  C23 MIQ B 502     -18.606  14.839   1.950  1.00139.15     0.045 C 
ENDBRANCH  10  12
BRANCH   5  21
HETATM   21  N6  MIQ B 502     -19.507  20.244   7.972  1.00140.95    -0.377 N 
HETATM   22  C7  MIQ B 502     -20.278  21.281   7.309  1.00142.12     0.149 C 
HETATM   23  C8  MIQ B 502     -20.434  22.520   8.182  1.00144.10     0.187 C 
HETATM   24  O9  MIQ B 502     -20.836  22.219   9.485  1.00148.65    -0.388 OA
HETATM   25  C10 MIQ B 502     -20.844  20.896   9.935  1.00147.44     0.187 C 
HETATM   26  C11 MIQ B 502     -19.828  19.921   9.351  1.00144.08     0.149 C 
ENDBRANCH   5  21
TORSDOF 2
ENDMDL
MODEL 6
REMARK VINA RESULT:      -5.9      1.600      2.203
REMARK  2 active torsions:
REMARK  status: ('A' for Active; 'I' for Inactive)
REMARK    1  A    between atoms: C5_5  and  N6_21 
REMARK    2  A    between atoms: C18_14  and  N17_19 
ROOT
HETATM    1  O1  MIQ B 502      -7.865  29.387  -4.338  1.00142.91    -0.171 OA
HETATM    2  C2  MIQ B 502      -7.729  29.297  -5.725  1.00141.17     0.195 A 
HETATM    3  C3  MIQ B 502      -7.343  30.461  -6.691  1.00141.71     0.035 A 
HETATM    4  C4  MIQ B 502      -7.023  31.894  -6.484  1.00142.86     0.046 A 
HETATM    5  C5  MIQ B 502      -6.701  32.723  -7.588  1.00139.53     0.031 A 
HETATM    6  C12 MIQ B 502      -6.682  32.162  -8.932  1.00139.38     0.030 A 
HETATM    7  C13 MIQ B 502      -6.987  30.789  -9.130  1.00141.18     0.019 A 
HETATM    8  C14 MIQ B 502      -7.323  29.923  -7.967  1.00138.77     0.033 A 
HETATM    9  C15 MIQ B 502      -7.699  28.415  -7.792  1.00142.10     0.195 A 
HETATM   10  N17 MIQ B 502      -7.888  28.234  -6.495  1.00139.42    -0.288 N 
HETATM   11  O16 MIQ B 502      -7.813  27.459  -8.803  1.00148.93    -0.171 OA
ENDROOT
BRANCH  10  12
HETATM   12  C18 MIQ B 502      -8.270  26.941  -5.959  1.00139.82     0.187 C 
HETATM   13  C19 MIQ B 502      -9.525  27.143  -5.101  1.00140.06     0.247 C 
HETATM   14  O25 MIQ B 502     -10.447  27.721  -5.557  1.00143.95    -0.271 OA
HETATM   15  N20 MIQ B 502      -9.613  26.639  -3.746  1.00140.02    -0.296 N 
HETATM   16  H13 MIQ B 502     -10.436  26.783  -3.194  1.00142.77     0.171 HD
HETATM   17  C21 MIQ B 502      -8.471  25.947  -3.208  1.00142.22     0.224 C 
HETATM   18  C22 MIQ B 502      -7.107  26.421  -3.671  1.00139.52     0.106 C 
HETATM   19  O24 MIQ B 502      -8.593  25.050  -2.448  1.00146.13    -0.273 OA
HETATM   20  C23 MIQ B 502      -7.106  26.322  -5.185  1.00139.15     0.045 C 
ENDBRANCH  10  12
BRANCH   5  21
HETATM   21  N6  MIQ B 502      -6.405  34.127  -7.373  1.00140.95    -0.377 N 
HETATM   22  C7  MIQ B 502      -5.765  34.875  -8.442  1.00142.12     0.149 C 
HETATM   23  C8  MIQ B 502      -4.957  36.051  -7.909  1.00144.10     0.187 C 
HETATM   24  O9  MIQ B 502      -5.664  36.821  -6.983  1.00148.65    -0.388 OA
HETATM   25  C10 MIQ B 502      -6.883  36.369  -6.472  1.00147.44     0.187 C 
HETATM   26  C11 MIQ B 502      -7.106  34.866  -6.338  1.00144.08     0.149 C 
ENDBRANCH   5  21
TORSDOF 2
ENDMDL
MODEL 7
REMARK VINA RESULT:      -5.8      1.886      3.076
REMARK  2 active torsions:
REMARK  status: ('A' for Active; 'I' for Inactive)
REMARK    1  A    between atoms: C5_5  and  N6_21 
REMARK    2  A    between atoms: C18_14  and  N17_19 
ROOT
HETATM    1  O1  MIQ B 502     -10.176  26.195  -7.873  1.00142.91    -0.171 OA
HETATM    2  C2  MIQ B 502      -9.346  27.060  -7.155  1.00141.17     0.195 A 
HETATM    3  C3  MIQ B 502      -8.720  28.388  -7.685  1.00141.71     0.035 A 
HETATM    4  C4  MIQ B 502      -8.789  29.101  -8.983  1.00142.86     0.046 A 
HETATM    5  C5  MIQ B 502      -8.094  30.323  -9.168  1.00139.53     0.031 A 
HETATM    6  C12 MIQ B 502      -7.308  30.880  -8.076  1.00139.38     0.030 A 
HETATM    7  C13 MIQ B 502      -7.242  30.197  -6.832  1.00141.18     0.019 A 
HETATM    8  C14 MIQ B 502      -7.976  28.916  -6.642  1.00138.77     0.033 A 
HETATM    9  C15 MIQ B 502      -8.143  27.910  -5.457  1.00142.10     0.195 A 
HETATM   10  N17 MIQ B 502      -8.930  26.945  -5.905  1.00139.42    -0.288 N 
HETATM   11  O16 MIQ B 502      -7.573  28.012  -4.187  1.00148.93    -0.171 OA
ENDROOT
BRANCH  10  12
HETATM   12  C18 MIQ B 502      -9.293  25.816  -5.071  1.00139.82     0.187 C 
HETATM   13  C19 MIQ B 502     -10.004  26.363  -3.827  1.00140.06     0.247 C 
HETATM   14  O25 MIQ B 502     -10.901  27.117  -3.961  1.00143.95    -0.271 OA
HETATM   15  N20 MIQ B 502      -9.610  25.974  -2.489  1.00140.02    -0.296 N 
HETATM   16  H13 MIQ B 502     -10.078  26.343  -1.684  1.00142.77     0.171 HD
HETATM   17  C21 MIQ B 502      -8.505  25.059  -2.350  1.00142.22     0.224 C 
HETATM   18  C22 MIQ B 502      -7.400  25.164  -3.383  1.00139.52     0.106 C 
HETATM   19  O24 MIQ B 502      -8.468  24.264  -1.477  1.00146.13    -0.273 OA
HETATM   20  C23 MIQ B 502      -8.058  24.981  -4.738  1.00139.15     0.045 C 
ENDBRANCH  10  12
BRANCH   5  21
HETATM   21  N6  MIQ B 502      -8.159  31.002 -10.449  1.00140.95    -0.377 N 
HETATM   22  C7  MIQ B 502      -6.925  31.497 -11.036  1.00142.12     0.149 C 
HETATM   23  C8  MIQ B 502      -7.172  32.682 -11.962  1.00144.10     0.187 C 
HETATM   24  O9  MIQ B 502      -8.214  32.459 -12.864  1.00148.65    -0.388 OA
HETATM   25  C10 MIQ B 502      -9.049  31.348 -12.720  1.00147.44     0.187 C 
HETATM   26  C11 MIQ B 502      -9.306  30.805 -11.318  1.00144.08     0.149 C 
ENDBRANCH   5  21
TORSDOF 2
ENDMDL
MODEL 8
REMARK VINA RESULT:      -5.8      1.975      8.028
REMARK  2 active torsions:
REMARK  status: ('A' for Active; 'I' for Inactive)
REMARK    1  A    between atoms: C5_5  and  N6_21 
REMARK    2  A    between atoms: C18_14  and  N17_19 
ROOT
HETATM    1  O1  MIQ B 502      -6.391  30.806  -3.895  1.00142.91    -0.171 OA
HETATM    2  C2  MIQ B 502      -6.964  30.341  -5.080  1.00141.17     0.195 A 
HETATM    3  C3  MIQ B 502      -7.633  28.946  -5.296  1.00141.71     0.035 A 
HETATM    4  C4  MIQ B 502      -7.862  27.778  -4.412  1.00142.86     0.046 A 
HETATM    5  C5  MIQ B 502      -8.516  26.622  -4.907  1.00139.53     0.031 A 
HETATM    6  C12 MIQ B 502      -8.966  26.583  -6.291  1.00139.38     0.030 A 
HETATM    7  C13 MIQ B 502      -8.747  27.703  -7.138  1.00141.18     0.019 A 
HETATM    8  C14 MIQ B 502      -8.062  28.915  -6.612  1.00138.77     0.033 A 
HETATM    9  C15 MIQ B 502      -7.658  30.299  -7.218  1.00142.10     0.195 A 
HETATM   10  N17 MIQ B 502      -7.065  30.965  -6.241  1.00139.42    -0.288 N 
HETATM   11  O16 MIQ B 502      -7.878  30.735  -8.525  1.00148.93    -0.171 OA
ENDROOT
BRANCH  10  12
HETATM   12  C18 MIQ B 502      -6.538  32.301  -6.447  1.00139.82     0.187 C 
HETATM   13  C19 MIQ B 502      -7.667  33.166  -7.020  1.00140.06     0.247 C 
HETATM   14  O25 MIQ B 502      -8.713  33.185  -6.474  1.00143.95    -0.271 OA
HETATM   15  N20 MIQ B 502      -7.485  33.968  -8.213  1.00140.02    -0.296 N 
HETATM   16  H13 MIQ B 502      -8.233  34.523  -8.581  1.00142.77     0.171 HD
HETATM   17  C21 MIQ B 502      -6.204  33.921  -8.868  1.00142.22     0.224 C 
HETATM   18  C22 MIQ B 502      -5.459  32.601  -8.815  1.00139.52     0.106 C 
HETATM   19  O24 MIQ B 502      -5.754  34.867  -9.415  1.00146.13    -0.273 OA
HETATM   20  C23 MIQ B 502      -5.303  32.253  -7.345  1.00139.15     0.045 C 
ENDBRANCH  10  12
BRANCH   5  21
HETATM   21  N6  MIQ B 502      -8.721  25.480  -4.034  1.00140.95    -0.377 N 
HETATM   22  C7  MIQ B 502      -9.515  24.366  -4.523  1.00142.12     0.149 C 
HETATM   23  C8  MIQ B 502     -10.174  23.596  -3.386  1.00144.10     0.187 C 
HETATM   24  O9  MIQ B 502      -9.287  23.288  -2.352  1.00148.65    -0.388 OA
HETATM   25  C10 MIQ B 502      -8.012  23.860  -2.320  1.00147.44     0.187 C 
HETATM   26  C11 MIQ B 502      -7.820  25.249  -2.918  1.00144.08     0.149 C 
ENDBRANCH   5  21
TORSDOF 2
ENDMDL
MODEL 9
REMARK VINA RESULT:      -5.7     25.592     27.657
REMARK  2 active torsions:
REMARK  status: ('A' for Active; 'I' for Inactive)
REMARK    1  A    between atoms: C5_5  and  N6_21 
REMARK    2  A    between atoms: C18_14  and  N17_19 
ROOT
HETATM    1  O1  MIQ B 502      -2.392  18.710  20.268  1.00142.91    -0.171 OA
HETATM    2  C2  MIQ B 502      -1.966  19.844  19.571  1.00141.17     0.195 A 
HETATM    3  C3  MIQ B 502      -2.860  21.050  19.139  1.00141.71     0.035 A 
HETATM    4  C4  MIQ B 502      -4.299  21.363  19.306  1.00142.86     0.046 A 
HETATM    5  C5  MIQ B 502      -4.833  22.571  18.790  1.00139.53     0.031 A 
HETATM    6  C12 MIQ B 502      -3.963  23.508  18.094  1.00139.38     0.030 A 
HETATM    7  C13 MIQ B 502      -2.583  23.208  17.935  1.00141.18     0.019 A 
HETATM    8  C14 MIQ B 502      -2.027  21.939  18.480  1.00138.77     0.033 A 
HETATM    9  C15 MIQ B 502      -0.608  21.283  18.505  1.00142.10     0.195 A 
HETATM   10  N17 MIQ B 502      -0.749  20.134  19.146  1.00139.42    -0.288 N 
HETATM   11  O16 MIQ B 502       0.565  21.806  17.957  1.00148.93    -0.171 OA
ENDROOT
BRANCH  10  12
HETATM   12  C18 MIQ B 502       0.374  19.237  19.347  1.00139.82     0.187 C 
HETATM   13  C19 MIQ B 502      -0.007  17.872  18.760  1.00140.06     0.247 C 
HETATM   14  O25 MIQ B 502      -0.424  17.815  17.658  1.00143.95    -0.271 OA
HETATM   15  N20 MIQ B 502       0.136  16.647  19.520  1.00140.02    -0.296 N 
HETATM   16  H13 MIQ B 502      -0.122  15.763  19.127  1.00142.77     0.171 HD
HETATM   17  C21 MIQ B 502       0.638  16.743  20.867  1.00142.22     0.224 C 
HETATM   18  C22 MIQ B 502       0.261  17.988  21.646  1.00139.52     0.106 C 
HETATM   19  O24 MIQ B 502       1.313  15.895  21.337  1.00146.13    -0.273 OA
HETATM   20  C23 MIQ B 502       0.744  19.172  20.828  1.00139.15     0.045 C 
ENDBRANCH  10  12
BRANCH   5  21
HETATM   21  N6  MIQ B 502      -6.248  22.858  18.948  1.00140.95    -0.377 N 
HETATM   22  C7  MIQ B 502      -7.015  22.070  19.897  1.00142.12     0.149 C 
HETATM   23  C8  MIQ B 502      -8.489  22.004  19.521  1.00144.10     0.187 C 
HETATM   24  O9  MIQ B 502      -9.028  23.255  19.210  1.00148.65    -0.388 OA
HETATM   25  C10 MIQ B 502      -8.194  24.364  19.052  1.00147.44     0.187 C 
HETATM   26  C11 MIQ B 502      -6.778  24.144  18.530  1.00144.08     0.149 C 
ENDBRANCH   5  21
TORSDOF 2
ENDMDL
