MODEL 1
REMARK VINA RESULT:      -6.7      0.000      0.000
REMARK  2 active torsions:
REMARK  status: ('A' for Active; 'I' for Inactive)
REMARK    1  A    between atoms: C5_5  and  N6_21 
REMARK    2  A    between atoms: C18_14  and  N17_19 
ROOT
HETATM    1  O1  MIQ B 502       2.686   4.399  14.822  1.00142.91    -0.171 OA
HETATM    2  C2  MIQ B 502       3.881   4.452  15.542  1.00141.17     0.195 A 
HETATM    3  C3  MIQ B 502       4.938   3.308  15.660  1.00141.71     0.035 A 
HETATM    4  C4  MIQ B 502       5.020   1.936  15.106  1.00142.86     0.046 A 
HETATM    5  C5  MIQ B 502       6.136   1.111  15.396  1.00139.53     0.031 A 
HETATM    6  C12 MIQ B 502       7.207   1.616  16.243  1.00139.38     0.030 A 
HETATM    7  C13 MIQ B 502       7.129   2.932  16.774  1.00141.18     0.019 A 
HETATM    8  C14 MIQ B 502       5.956   3.794  16.464  1.00138.77     0.033 A 
HETATM    9  C15 MIQ B 502       5.529   5.249  16.846  1.00142.10     0.195 A 
HETATM   10  N17 MIQ B 502       4.364   5.455  16.255  1.00139.42    -0.288 N 
HETATM   11  O16 MIQ B 502       6.237   6.143  17.652  1.00148.93    -0.171 OA
ENDROOT
BRANCH  10  12
HETATM   12  C18 MIQ B 502       3.651   6.710  16.404  1.00139.82     0.187 C 
HETATM   13  C19 MIQ B 502       2.235   6.388  16.898  1.00140.06     0.247 C 
HETATM   14  O25 MIQ B 502       2.099   5.690  17.839  1.00143.95    -0.271 OA
HETATM   15  N20 MIQ B 502       1.058   6.923  16.244  1.00140.02    -0.296 N 
HETATM   16  H13 MIQ B 502       0.139   6.699  16.572  1.00142.77     0.171 HD
HETATM   17  C21 MIQ B 502       1.251   7.764  15.091  1.00142.22     0.224 C 
HETATM   18  C22 MIQ B 502       2.436   7.441  14.202  1.00139.52     0.106 C 
HETATM   19  O24 MIQ B 502       0.522   8.664  14.855  1.00146.13    -0.273 OA
HETATM   20  C23 MIQ B 502       3.666   7.489  15.089  1.00139.15     0.045 C 
ENDBRANCH  10  12
BRANCH   5  21
HETATM   21  N6  MIQ B 502       6.197  -0.236  14.859  1.00140.95    -0.377 N 
HETATM   22  C7  MIQ B 502       6.938  -1.245  15.595  1.00142.12     0.149 C 
HETATM   23  C8  MIQ B 502       7.459  -2.347  14.682  1.00144.10     0.187 C 
HETATM   24  O9  MIQ B 502       6.484  -2.839  13.812  1.00148.65    -0.388 OA
HETATM   25  C10 MIQ B 502       5.256  -2.186  13.684  1.00147.44     0.187 C 
HETATM   26  C11 MIQ B 502       5.208  -0.675  13.889  1.00144.08     0.149 C 
ENDBRANCH   5  21
TORSDOF 2
ENDMDL
MODEL 2
REMARK VINA RESULT:      -6.7      2.109      8.128
REMARK  2 active torsions:
REMARK  status: ('A' for Active; 'I' for Inactive)
REMARK    1  A    between atoms: C5_5  and  N6_21 
REMARK    2  A    between atoms: C18_14  and  N17_19 
ROOT
HETATM    1  O1  MIQ B 502       2.372   0.358  15.020  1.00142.91    -0.171 OA
HETATM    2  C2  MIQ B 502       3.586   1.044  15.103  1.00141.17     0.195 A 
HETATM    3  C3  MIQ B 502       3.768   2.596  15.112  1.00141.71     0.035 A 
HETATM    4  C4  MIQ B 502       2.821   3.734  15.046  1.00142.86     0.046 A 
HETATM    5  C5  MIQ B 502       3.301   5.068  15.077  1.00139.53     0.031 A 
HETATM    6  C12 MIQ B 502       4.731   5.319  15.175  1.00139.38     0.030 A 
HETATM    7  C13 MIQ B 502       5.639   4.229  15.240  1.00141.18     0.019 A 
HETATM    8  C14 MIQ B 502       5.130   2.830  15.209  1.00138.77     0.033 A 
HETATM    9  C15 MIQ B 502       5.797   1.417  15.261  1.00142.10     0.195 A 
HETATM   10  N17 MIQ B 502       4.805   0.543  15.195  1.00139.42    -0.288 N 
HETATM   11  O16 MIQ B 502       7.161   1.139  15.355  1.00148.93    -0.171 OA
ENDROOT
BRANCH  10  12
HETATM   12  C18 MIQ B 502       5.054  -0.886  15.202  1.00139.82     0.187 C 
HETATM   13  C19 MIQ B 502       6.032  -1.186  16.345  1.00140.06     0.247 C 
HETATM   14  O25 MIQ B 502       5.798  -0.774  17.426  1.00143.95    -0.271 OA
HETATM   15  N20 MIQ B 502       7.235  -1.966  16.137  1.00140.02    -0.296 N 
HETATM   16  H13 MIQ B 502       7.868  -2.148  16.890  1.00142.77     0.171 HD
HETATM   17  C21 MIQ B 502       7.503  -2.448  14.806  1.00142.22     0.224 C 
HETATM   18  C22 MIQ B 502       7.057  -1.564  13.658  1.00139.52     0.106 C 
HETATM   19  O24 MIQ B 502       8.040  -3.485  14.622  1.00146.13    -0.273 OA
HETATM   20  C23 MIQ B 502       5.566  -1.344  13.837  1.00139.15     0.045 C 
ENDBRANCH  10  12
BRANCH   5  21
HETATM   21  N6  MIQ B 502       2.363   6.173  14.997  1.00140.95    -0.377 N 
HETATM   22  C7  MIQ B 502       1.222   6.182  15.896  1.00142.12     0.149 C 
HETATM   23  C8  MIQ B 502       0.047   6.959  15.315  1.00144.10     0.187 C 
HETATM   24  O9  MIQ B 502       0.417   8.206  14.808  1.00148.65    -0.388 OA
HETATM   25  C10 MIQ B 502       1.766   8.539  14.665  1.00147.44     0.187 C 
HETATM   26  C11 MIQ B 502       2.767   7.425  14.381  1.00144.08     0.149 C 
ENDBRANCH   5  21
TORSDOF 2
ENDMDL
MODEL 3
REMARK VINA RESULT:      -6.5      2.053      8.346
REMARK  2 active torsions:
REMARK  status: ('A' for Active; 'I' for Inactive)
REMARK    1  A    between atoms: C5_5  and  N6_21 
REMARK    2  A    between atoms: C18_14  and  N17_19 
ROOT
HETATM    1  O1  MIQ B 502       4.472   0.890  12.261  1.00142.91    -0.171 OA
HETATM    2  C2  MIQ B 502       4.975   0.809  13.561  1.00141.17     0.195 A 
HETATM    3  C3  MIQ B 502       5.015   1.968  14.608  1.00141.71     0.035 A 
HETATM    4  C4  MIQ B 502       4.577   3.384  14.579  1.00142.86     0.046 A 
HETATM    5  C5  MIQ B 502       4.748   4.211  15.717  1.00139.53     0.031 A 
HETATM    6  C12 MIQ B 502       5.357   3.665  16.922  1.00139.38     0.030 A 
HETATM    7  C13 MIQ B 502       5.776   2.308  16.951  1.00141.18     0.019 A 
HETATM    8  C14 MIQ B 502       5.592   1.443  15.753  1.00138.77     0.033 A 
HETATM    9  C15 MIQ B 502       5.912  -0.049  15.416  1.00142.10     0.195 A 
HETATM   10  N17 MIQ B 502       5.507  -0.237  14.170  1.00139.42    -0.288 N 
HETATM   11  O16 MIQ B 502       6.506  -0.988  16.260  1.00148.93    -0.171 OA
ENDROOT
BRANCH  10  12
HETATM   12  C18 MIQ B 502       5.662  -1.519  13.508  1.00139.82     0.187 C 
HETATM   13  C19 MIQ B 502       4.998  -2.584  14.390  1.00140.06     0.247 C 
HETATM   14  O25 MIQ B 502       3.893  -2.413  14.766  1.00143.95    -0.271 OA
HETATM   15  N20 MIQ B 502       5.689  -3.799  14.771  1.00140.02    -0.296 N 
HETATM   16  H13 MIQ B 502       5.247  -4.483  15.352  1.00142.77     0.171 HD
HETATM   17  C21 MIQ B 502       7.041  -3.979  14.308  1.00142.22     0.224 C 
HETATM   18  C22 MIQ B 502       7.888  -2.728  14.172  1.00139.52     0.106 C 
HETATM   19  O24 MIQ B 502       7.465  -5.050  14.042  1.00146.13    -0.273 OA
HETATM   20  C23 MIQ B 502       7.138  -1.800  13.234  1.00139.15     0.045 C 
ENDBRANCH  10  12
BRANCH   5  21
HETATM   21  N6  MIQ B 502       4.328   5.600  15.669  1.00140.95    -0.377 N 
HETATM   22  C7  MIQ B 502       4.483   6.414  16.862  1.00142.12     0.149 C 
HETATM   23  C8  MIQ B 502       3.476   7.556  16.906  1.00144.10     0.187 C 
HETATM   24  O9  MIQ B 502       3.405   8.264  15.705  1.00148.65    -0.388 OA
HETATM   25  C10 MIQ B 502       4.040   7.779  14.558  1.00147.44     0.187 C 
HETATM   26  C11 MIQ B 502       4.186   6.271  14.389  1.00144.08     0.149 C 
ENDBRANCH   5  21
TORSDOF 2
ENDMDL
MODEL 4
REMARK VINA RESULT:      -6.5      2.480      3.136
REMARK  2 active torsions:
REMARK  status: ('A' for Active; 'I' for Inactive)
REMARK    1  A    between atoms: C5_5  and  N6_21 
REMARK    2  A    between atoms: C18_14  and  N17_19 
ROOT
HETATM    1  O1  MIQ B 502       2.779   2.071  14.919  1.00142.91    -0.171 OA
HETATM    2  C2  MIQ B 502       3.572   3.037  15.543  1.00141.17     0.195 A 
HETATM    3  C3  MIQ B 502       4.797   2.764  16.473  1.00141.71     0.035 A 
HETATM    4  C4  MIQ B 502       5.458   1.527  16.952  1.00142.86     0.046 A 
HETATM    5  C5  MIQ B 502       6.582   1.601  17.812  1.00139.53     0.031 A 
HETATM    6  C12 MIQ B 502       7.090   2.901  18.226  1.00139.38     0.030 A 
HETATM    7  C13 MIQ B 502       6.458   4.088  17.766  1.00141.18     0.019 A 
HETATM    8  C14 MIQ B 502       5.279   4.003  16.862  1.00138.77     0.033 A 
HETATM    9  C15 MIQ B 502       4.349   5.051  16.168  1.00142.10     0.195 A 
HETATM   10  N17 MIQ B 502       3.463   4.353  15.477  1.00139.42    -0.288 N 
HETATM   11  O16 MIQ B 502       4.437   6.441  16.264  1.00148.93    -0.171 OA
ENDROOT
BRANCH  10  12
HETATM   12  C18 MIQ B 502       2.419   5.003  14.708  1.00139.82     0.187 C 
HETATM   13  C19 MIQ B 502       3.080   6.073  13.831  1.00140.06     0.247 C 
HETATM   14  O25 MIQ B 502       4.003   5.776  13.158  1.00143.95    -0.271 OA
HETATM   15  N20 MIQ B 502       2.601   7.440  13.801  1.00140.02    -0.296 N 
HETATM   16  H13 MIQ B 502       3.046   8.130  13.229  1.00142.77     0.171 HD
HETATM   17  C21 MIQ B 502       1.480   7.780  14.639  1.00142.22     0.224 C 
HETATM   18  C22 MIQ B 502       1.374   7.050  15.964  1.00139.52     0.106 C 
HETATM   19  O24 MIQ B 502       0.681   8.585  14.306  1.00146.13    -0.273 OA
HETATM   20  C23 MIQ B 502       1.346   5.567  15.639  1.00139.15     0.045 C 
ENDBRANCH  10  12
BRANCH   5  21
HETATM   21  N6  MIQ B 502       7.210   0.381  18.284  1.00140.95    -0.377 N 
HETATM   22  C7  MIQ B 502       7.736   0.350  19.638  1.00142.12     0.149 C 
HETATM   23  C8  MIQ B 502       8.874  -0.652  19.784  1.00144.10     0.187 C 
HETATM   24  O9  MIQ B 502       8.574  -1.899  19.232  1.00148.65    -0.388 OA
HETATM   25  C10 MIQ B 502       7.434  -2.067  18.441  1.00147.44     0.187 C 
HETATM   26  C11 MIQ B 502       6.933  -0.881  17.622  1.00144.08     0.149 C 
ENDBRANCH   5  21
TORSDOF 2
ENDMDL
MODEL 5
REMARK VINA RESULT:      -6.5      1.278      1.780
REMARK  2 active torsions:
REMARK  status: ('A' for Active; 'I' for Inactive)
REMARK    1  A    between atoms: C5_5  and  N6_21 
REMARK    2  A    between atoms: C18_14  and  N17_19 
ROOT
HETATM    1  O1  MIQ B 502       3.449   3.484  14.492  1.00142.91    -0.171 OA
HETATM    2  C2  MIQ B 502       4.492   3.325  15.408  1.00141.17     0.195 A 
HETATM    3  C3  MIQ B 502       5.283   2.008  15.686  1.00141.71     0.035 A 
HETATM    4  C4  MIQ B 502       5.205   0.636  15.130  1.00142.86     0.046 A 
HETATM    5  C5  MIQ B 502       6.083  -0.376  15.594  1.00139.53     0.031 A 
HETATM    6  C12 MIQ B 502       7.066  -0.065  16.622  1.00139.38     0.030 A 
HETATM    7  C13 MIQ B 502       7.142   1.251  17.154  1.00141.18     0.019 A 
HETATM    8  C14 MIQ B 502       6.220   2.310  16.661  1.00138.77     0.033 A 
HETATM    9  C15 MIQ B 502       6.009   3.824  16.990  1.00142.10     0.195 A 
HETATM   10  N17 MIQ B 502       5.021   4.233  16.210  1.00139.42    -0.288 N 
HETATM   11  O16 MIQ B 502       6.720   4.584  17.920  1.00148.93    -0.171 OA
ENDROOT
BRANCH  10  12
HETATM   12  C18 MIQ B 502       4.537   5.600  16.256  1.00139.82     0.187 C 
HETATM   13  C19 MIQ B 502       3.022   5.552  16.487  1.00140.06     0.247 C 
HETATM   14  O25 MIQ B 502       2.595   4.905  17.376  1.00143.95    -0.271 OA
HETATM   15  N20 MIQ B 502       2.097   6.286  15.648  1.00140.02    -0.296 N 
HETATM   16  H13 MIQ B 502       1.110   6.241  15.806  1.00142.77     0.171 HD
HETATM   17  C21 MIQ B 502       2.641   7.061  14.563  1.00142.22     0.224 C 
HETATM   18  C22 MIQ B 502       3.884   6.512  13.889  1.00139.52     0.106 C 
HETATM   19  O24 MIQ B 502       2.144   8.077  14.220  1.00146.13    -0.273 OA
HETATM   20  C23 MIQ B 502       4.927   6.344  14.979  1.00139.15     0.045 C 
ENDBRANCH  10  12
BRANCH   5  21
HETATM   21  N6  MIQ B 502       5.985  -1.719  15.052  1.00140.95    -0.377 N 
HETATM   22  C7  MIQ B 502       4.837  -2.054  14.228  1.00142.12     0.149 C 
HETATM   23  C8  MIQ B 502       4.519  -3.543  14.273  1.00144.10     0.187 C 
HETATM   24  O9  MIQ B 502       5.646  -4.345  14.080  1.00148.65    -0.388 OA
HETATM   25  C10 MIQ B 502       6.925  -3.782  14.089  1.00147.44     0.187 C 
HETATM   26  C11 MIQ B 502       7.173  -2.549  14.951  1.00144.08     0.149 C 
ENDBRANCH   5  21
TORSDOF 2
ENDMDL
MODEL 6
REMARK VINA RESULT:      -6.4      1.578      2.669
REMARK  2 active torsions:
REMARK  status: ('A' for Active; 'I' for Inactive)
REMARK    1  A    between atoms: C5_5  and  N6_21 
REMARK    2  A    between atoms: C18_14  and  N17_19 
ROOT
HETATM    1  O1  MIQ B 502       5.995   3.106  17.849  1.00142.91    -0.171 OA
HETATM    2  C2  MIQ B 502       5.436   2.977  16.576  1.00141.17     0.195 A 
HETATM    3  C3  MIQ B 502       5.522   1.719  15.654  1.00141.71     0.035 A 
HETATM    4  C4  MIQ B 502       6.153   0.386  15.805  1.00142.86     0.046 A 
HETATM    5  C5  MIQ B 502       6.057  -0.574  14.767  1.00139.53     0.031 A 
HETATM    6  C12 MIQ B 502       5.333  -0.249  13.547  1.00139.38     0.030 A 
HETATM    7  C13 MIQ B 502       4.727   1.028  13.402  1.00141.18     0.019 A 
HETATM    8  C14 MIQ B 502       4.829   2.032  14.496  1.00138.77     0.033 A 
HETATM    9  C15 MIQ B 502       4.309   3.492  14.700  1.00142.10     0.195 A 
HETATM   10  N17 MIQ B 502       4.728   3.865  15.898  1.00139.42    -0.288 N 
HETATM   11  O16 MIQ B 502       3.558   4.246  13.797  1.00148.93    -0.171 OA
ENDROOT
BRANCH  10  12
HETATM   12  C18 MIQ B 502       4.441   5.186  16.424  1.00139.82     0.187 C 
HETATM   13  C19 MIQ B 502       2.919   5.378  16.401  1.00140.06     0.247 C 
HETATM   14  O25 MIQ B 502       2.228   4.552  16.883  1.00143.95    -0.271 OA
HETATM   15  N20 MIQ B 502       2.306   6.549  15.809  1.00140.02    -0.296 N 
HETATM   16  H13 MIQ B 502       1.311   6.659  15.795  1.00142.77     0.171 HD
HETATM   17  C21 MIQ B 502       3.170   7.538  15.218  1.00142.22     0.224 C 
HETATM   18  C22 MIQ B 502       4.439   7.028  14.562  1.00139.52     0.106 C 
HETATM   19  O24 MIQ B 502       2.904   8.689  15.249  1.00146.13    -0.273 OA
HETATM   20  C23 MIQ B 502       5.193   6.251  15.626  1.00139.15     0.045 C 
ENDBRANCH  10  12
BRANCH   5  21
HETATM   21  N6  MIQ B 502       6.693  -1.870  14.922  1.00140.95    -0.377 N 
HETATM   22  C7  MIQ B 502       6.527  -2.579  16.180  1.00142.12     0.149 C 
HETATM   23  C8  MIQ B 502       7.688  -3.524  16.457  1.00144.10     0.187 C 
HETATM   24  O9  MIQ B 502       8.012  -4.324  15.359  1.00148.65    -0.388 OA
HETATM   25  C10 MIQ B 502       7.450  -4.067  14.106  1.00147.44     0.187 C 
HETATM   26  C11 MIQ B 502       7.090  -2.629  13.749  1.00144.08     0.149 C 
ENDBRANCH   5  21
TORSDOF 2
ENDMDL
MODEL 7
REMARK VINA RESULT:      -6.3      2.931      8.391
REMARK  2 active torsions:
REMARK  status: ('A' for Active; 'I' for Inactive)
REMARK    1  A    between atoms: C5_5  and  N6_21 
REMARK    2  A    between atoms: C18_14  and  N17_19 
ROOT
HETATM    1  O1  MIQ B 502       6.196  -0.980  16.410  1.00142.91    -0.171 OA
HETATM    2  C2  MIQ B 502       5.749  -0.127  15.399  1.00141.17     0.195 A 
HETATM    3  C3  MIQ B 502       5.445   1.398  15.547  1.00141.71     0.035 A 
HETATM    4  C4  MIQ B 502       5.524   2.347  16.682  1.00142.86     0.046 A 
HETATM    5  C5  MIQ B 502       5.175   3.710  16.503  1.00139.53     0.031 A 
HETATM    6  C12 MIQ B 502       4.736   4.177  15.196  1.00139.38     0.030 A 
HETATM    7  C13 MIQ B 502       4.661   3.268  14.107  1.00141.18     0.019 A 
HETATM    8  C14 MIQ B 502       5.032   1.839  14.300  1.00138.77     0.033 A 
HETATM    9  C15 MIQ B 502       5.080   0.581  13.373  1.00142.10     0.195 A 
HETATM   10  N17 MIQ B 502       5.498  -0.417  14.134  1.00139.42    -0.288 N 
HETATM   11  O16 MIQ B 502       4.745   0.527  12.019  1.00148.93    -0.171 OA
ENDROOT
BRANCH  10  12
HETATM   12  C18 MIQ B 502       5.649  -1.760  13.606  1.00139.82     0.187 C 
HETATM   13  C19 MIQ B 502       4.902  -2.718  14.541  1.00140.06     0.247 C 
HETATM   14  O25 MIQ B 502       3.783  -2.483  14.832  1.00143.95    -0.271 OA
HETATM   15  N20 MIQ B 502       5.529  -3.910  15.075  1.00140.02    -0.296 N 
HETATM   16  H13 MIQ B 502       5.033  -4.524  15.690  1.00142.77     0.171 HD
HETATM   17  C21 MIQ B 502       6.899  -4.170  14.714  1.00142.22     0.224 C 
HETATM   18  C22 MIQ B 502       7.792  -2.960  14.514  1.00139.52     0.106 C 
HETATM   19  O24 MIQ B 502       7.303  -5.272  14.576  1.00146.13    -0.273 OA
HETATM   20  C23 MIQ B 502       7.129  -2.106  13.449  1.00139.15     0.045 C 
ENDBRANCH  10  12
BRANCH   5  21
HETATM   21  N6  MIQ B 502       5.243   4.625  17.628  1.00140.95    -0.377 N 
HETATM   22  C7  MIQ B 502       5.972   4.214  18.815  1.00142.12     0.149 C 
HETATM   23  C8  MIQ B 502       5.451   4.904  20.069  1.00144.10     0.187 C 
HETATM   24  O9  MIQ B 502       5.302   6.283  19.908  1.00148.65    -0.388 OA
HETATM   25  C10 MIQ B 502       5.409   6.864  18.642  1.00147.44     0.187 C 
HETATM   26  C11 MIQ B 502       4.995   6.042  17.426  1.00144.08     0.149 C 
ENDBRANCH   5  21
TORSDOF 2
ENDMDL
MODEL 8
REMARK VINA RESULT:      -6.3      2.721      4.640
REMARK  2 active torsions:
REMARK  status: ('A' for Active; 'I' for Inactive)
REMARK    1  A    between atoms: C5_5  and  N6_21 
REMARK    2  A    between atoms: C18_14  and  N17_19 
ROOT
HETATM    1  O1  MIQ B 502       5.889   0.672  17.931  1.00142.91    -0.171 OA
HETATM    2  C2  MIQ B 502       5.811   0.540  16.542  1.00141.17     0.195 A 
HETATM    3  C3  MIQ B 502       6.366  -0.651  15.697  1.00141.71     0.035 A 
HETATM    4  C4  MIQ B 502       7.079  -1.902  16.045  1.00142.86     0.046 A 
HETATM    5  C5  MIQ B 502       7.464  -2.814  15.030  1.00139.53     0.031 A 
HETATM    6  C12 MIQ B 502       7.155  -2.518  13.638  1.00139.38     0.030 A 
HETATM    7  C13 MIQ B 502       6.470  -1.319  13.304  1.00141.18     0.019 A 
HETATM    8  C14 MIQ B 502       6.067  -0.366  14.375  1.00138.77     0.033 A 
HETATM    9  C15 MIQ B 502       5.322   1.008  14.399  1.00142.10     0.195 A 
HETATM   10  N17 MIQ B 502       5.262   1.368  15.671  1.00139.42    -0.288 N 
HETATM   11  O16 MIQ B 502       4.825   1.709  13.299  1.00148.93    -0.171 OA
ENDROOT
BRANCH  10  12
HETATM   12  C18 MIQ B 502       4.643   2.617  16.076  1.00139.82     0.187 C 
HETATM   13  C19 MIQ B 502       3.226   2.648  15.491  1.00140.06     0.247 C 
HETATM   14  O25 MIQ B 502       2.511   1.726  15.665  1.00143.95    -0.271 OA
HETATM   15  N20 MIQ B 502       2.737   3.783  14.735  1.00140.02    -0.296 N 
HETATM   16  H13 MIQ B 502       1.812   3.788  14.353  1.00142.77     0.171 HD
HETATM   17  C21 MIQ B 502       3.632   4.892  14.528  1.00142.22     0.224 C 
HETATM   18  C22 MIQ B 502       5.105   4.560  14.383  1.00139.52     0.106 C 
HETATM   19  O24 MIQ B 502       3.236   6.004  14.479  1.00146.13    -0.273 OA
HETATM   20  C23 MIQ B 502       5.502   3.802  15.636  1.00139.15     0.045 C 
ENDBRANCH  10  12
BRANCH   5  21
HETATM   21  N6  MIQ B 502       8.175  -4.029  15.384  1.00140.95    -0.377 N 
HETATM   22  C7  MIQ B 502       8.338  -4.354  16.790  1.00142.12     0.149 C 
HETATM   23  C8  MIQ B 502       9.573  -5.211  17.036  1.00144.10     0.187 C 
HETATM   24  O9  MIQ B 502       9.667  -6.293  16.159  1.00148.65    -0.388 OA
HETATM   25  C10 MIQ B 502       8.818  -6.384  15.054  1.00147.44     0.187 C 
HETATM   26  C11 MIQ B 502       8.322  -5.095  14.407  1.00144.08     0.149 C 
ENDBRANCH   5  21
TORSDOF 2
ENDMDL
MODEL 9
REMARK VINA RESULT:      -6.3      2.453      3.215
REMARK  2 active torsions:
REMARK  status: ('A' for Active; 'I' for Inactive)
REMARK    1  A    between atoms: C5_5  and  N6_21 
REMARK    2  A    between atoms: C18_14  and  N17_19 
ROOT
HETATM    1  O1  MIQ B 502       3.864   4.313  19.020  1.00142.91    -0.171 OA
HETATM    2  C2  MIQ B 502       4.242   3.954  17.724  1.00141.17     0.195 A 
HETATM    3  C3  MIQ B 502       5.158   2.752  17.330  1.00141.71     0.035 A 
HETATM    4  C4  MIQ B 502       5.855   1.703  18.111  1.00142.86     0.046 A 
HETATM    5  C5  MIQ B 502       6.635   0.718  17.453  1.00139.53     0.031 A 
HETATM    6  C12 MIQ B 502       6.750   0.739  16.002  1.00139.38     0.030 A 
HETATM    7  C13 MIQ B 502       6.081   1.744  15.252  1.00141.18     0.019 A 
HETATM    8  C14 MIQ B 502       5.262   2.774  15.948  1.00138.77     0.033 A 
HETATM    9  C15 MIQ B 502       4.405   3.996  15.482  1.00142.10     0.195 A 
HETATM   10  N17 MIQ B 502       3.910   4.535  16.584  1.00139.42    -0.288 N 
HETATM   11  O16 MIQ B 502       4.208   4.426  14.169  1.00148.93    -0.171 OA
ENDROOT
BRANCH  10  12
HETATM   12  C18 MIQ B 502       3.067   5.715  16.536  1.00139.82     0.187 C 
HETATM   13  C19 MIQ B 502       1.950   5.451  15.518  1.00140.06     0.247 C 
HETATM   14  O25 MIQ B 502       1.317   4.460  15.602  1.00143.95    -0.271 OA
HETATM   15  N20 MIQ B 502       1.647   6.389  14.456  1.00140.02    -0.296 N 
HETATM   16  H13 MIQ B 502       0.921   6.202  13.794  1.00142.77     0.171 HD
HETATM   17  C21 MIQ B 502       2.442   7.587  14.368  1.00142.22     0.224 C 
HETATM   18  C22 MIQ B 502       3.897   7.472  14.780  1.00139.52     0.106 C 
HETATM   19  O24 MIQ B 502       1.979   8.609  13.997  1.00146.13    -0.273 OA
HETATM   20  C23 MIQ B 502       3.901   6.952  16.206  1.00139.15     0.045 C 
ENDBRANCH  10  12
BRANCH   5  21
HETATM   21  N6  MIQ B 502       7.323  -0.295  18.231  1.00140.95    -0.377 N 
HETATM   22  C7  MIQ B 502       7.887   0.081  19.516  1.00142.12     0.149 C 
HETATM   23  C8  MIQ B 502       9.067  -0.803  19.900  1.00144.10     0.187 C 
HETATM   24  O9  MIQ B 502       8.801  -2.164  19.740  1.00148.65    -0.388 OA
HETATM   25  C10 MIQ B 502       7.648  -2.586  19.075  1.00147.44     0.187 C 
HETATM   26  C11 MIQ B 502       7.078  -1.703  17.970  1.00144.08     0.149 C 
ENDBRANCH   5  21
TORSDOF 2
ENDMDL
