MODEL 1
REMARK VINA RESULT:      -7.5      0.000      0.000
REMARK  2 active torsions:
REMARK  status: ('A' for Active; 'I' for Inactive)
REMARK    1  A    between atoms: C5_5  and  N6_21 
REMARK    2  A    between atoms: C18_14  and  N17_19 
ROOT
HETATM    1  O1  MIQ B 502     -17.568   4.811 -19.338  1.00142.91    -0.171 OA
HETATM    2  C2  MIQ B 502     -16.967   5.830 -18.596  1.00141.17     0.195 A 
HETATM    3  C3  MIQ B 502     -17.632   6.646 -17.442  1.00141.71     0.035 A 
HETATM    4  C4  MIQ B 502     -18.974   6.615 -16.815  1.00142.86     0.046 A 
HETATM    5  C5  MIQ B 502     -19.292   7.503 -15.756  1.00139.53     0.031 A 
HETATM    6  C12 MIQ B 502     -18.292   8.450 -15.283  1.00139.38     0.030 A 
HETATM    7  C13 MIQ B 502     -17.004   8.479 -15.883  1.00141.18     0.019 A 
HETATM    8  C14 MIQ B 502     -16.676   7.543 -16.993  1.00138.77     0.033 A 
HETATM    9  C15 MIQ B 502     -15.410   7.282 -17.873  1.00142.10     0.195 A 
HETATM   10  N17 MIQ B 502     -15.738   6.306 -18.703  1.00139.42    -0.288 N 
HETATM   11  O16 MIQ B 502     -14.186   7.948 -17.795  1.00148.93    -0.171 OA
ENDROOT
BRANCH  10  12
HETATM   12  C18 MIQ B 502     -14.800   5.805 -19.691  1.00139.82     0.187 C 
HETATM   13  C19 MIQ B 502     -13.461   5.562 -18.983  1.00140.06     0.247 C 
HETATM   14  O25 MIQ B 502     -13.441   4.922 -17.993  1.00143.95    -0.271 OA
HETATM   15  N20 MIQ B 502     -12.216   6.092 -19.501  1.00140.02    -0.296 N 
HETATM   16  H13 MIQ B 502     -11.350   5.932 -19.026  1.00142.77     0.171 HD
HETATM   17  C21 MIQ B 502     -12.268   6.879 -20.706  1.00142.22     0.224 C 
HETATM   18  C22 MIQ B 502     -13.508   7.727 -20.914  1.00139.52     0.106 C 
HETATM   19  O24 MIQ B 502     -11.388   6.860 -21.495  1.00146.13    -0.273 OA
HETATM   20  C23 MIQ B 502     -14.692   6.778 -20.864  1.00139.15     0.045 C 
ENDBRANCH  10  12
BRANCH   5  21
HETATM   21  N6  MIQ B 502     -20.615   7.471 -15.161  1.00140.95    -0.377 N 
HETATM   22  C7  MIQ B 502     -21.765   7.727 -16.011  1.00142.12     0.149 C 
HETATM   23  C8  MIQ B 502     -22.940   8.291 -15.223  1.00144.10     0.187 C 
HETATM   24  O9  MIQ B 502     -23.209   7.572 -14.057  1.00148.65    -0.388 OA
HETATM   25  C10 MIQ B 502     -22.313   6.600 -13.603  1.00147.44     0.187 C 
HETATM   26  C11 MIQ B 502     -20.828   6.782 -13.900  1.00144.08     0.149 C 
ENDBRANCH   5  21
TORSDOF 2
ENDMDL
MODEL 2
REMARK VINA RESULT:      -7.4      9.158     12.462
REMARK  2 active torsions:
REMARK  status: ('A' for Active; 'I' for Inactive)
REMARK    1  A    between atoms: C5_5  and  N6_21 
REMARK    2  A    between atoms: C18_14  and  N17_19 
ROOT
HETATM    1  O1  MIQ B 502     -21.369  12.426  -9.964  1.00142.91    -0.171 OA
HETATM    2  C2  MIQ B 502     -21.034  11.722  -8.805  1.00141.17     0.195 A 
HETATM    3  C3  MIQ B 502     -21.255  12.205  -7.336  1.00141.71     0.035 A 
HETATM    4  C4  MIQ B 502     -21.833  13.435  -6.744  1.00142.86     0.046 A 
HETATM    5  C5  MIQ B 502     -21.901  13.589  -5.336  1.00139.53     0.031 A 
HETATM    6  C12 MIQ B 502     -21.400  12.533  -4.468  1.00139.38     0.030 A 
HETATM    7  C13 MIQ B 502     -20.847  11.353  -5.036  1.00141.18     0.019 A 
HETATM    8  C14 MIQ B 502     -20.781  11.196  -6.514  1.00138.77     0.033 A 
HETATM    9  C15 MIQ B 502     -20.263  10.079  -7.479  1.00142.10     0.195 A 
HETATM   10  N17 MIQ B 502     -20.479  10.527  -8.705  1.00139.42    -0.288 N 
HETATM   11  O16 MIQ B 502     -19.688   8.861  -7.114  1.00148.93    -0.171 OA
ENDROOT
BRANCH  10  12
HETATM   12  C18 MIQ B 502     -20.104   9.750  -9.872  1.00139.82     0.187 C 
HETATM   13  C19 MIQ B 502     -19.273  10.655 -10.789  1.00140.06     0.247 C 
HETATM   14  O25 MIQ B 502     -18.355  11.244 -10.338  1.00143.95    -0.271 OA
HETATM   15  N20 MIQ B 502     -19.578  10.804 -12.197  1.00140.02    -0.296 N 
HETATM   16  H13 MIQ B 502     -19.032  11.403 -12.783  1.00142.77     0.171 HD
HETATM   17  C21 MIQ B 502     -20.710  10.082 -12.721  1.00142.22     0.224 C 
HETATM   18  C22 MIQ B 502     -21.887   9.888 -11.785  1.00139.52     0.106 C 
HETATM   19  O24 MIQ B 502     -20.715   9.659 -13.824  1.00146.13    -0.273 OA
HETATM   20  C23 MIQ B 502     -21.347   9.182 -10.554  1.00139.15     0.045 C 
ENDBRANCH  10  12
BRANCH   5  21
HETATM   21  N6  MIQ B 502     -22.456  14.805  -4.770  1.00140.95    -0.377 N 
HETATM   22  C7  MIQ B 502     -22.131  15.142  -3.394  1.00142.12     0.149 C 
HETATM   23  C8  MIQ B 502     -23.213  15.998  -2.748  1.00144.10     0.187 C 
HETATM   24  O9  MIQ B 502     -23.607  17.072  -3.548  1.00148.65    -0.388 OA
HETATM   25  C10 MIQ B 502     -23.187  17.155  -4.878  1.00147.44     0.187 C 
HETATM   26  C11 MIQ B 502     -22.933  15.861  -5.645  1.00144.08     0.149 C 
ENDBRANCH   5  21
TORSDOF 2
ENDMDL
MODEL 3
REMARK VINA RESULT:      -7.4      1.794      2.670
REMARK  2 active torsions:
REMARK  status: ('A' for Active; 'I' for Inactive)
REMARK    1  A    between atoms: C5_5  and  N6_21 
REMARK    2  A    between atoms: C18_14  and  N17_19 
ROOT
HETATM    1  O1  MIQ B 502     -15.340   7.899 -17.617  1.00142.91    -0.171 OA
HETATM    2  C2  MIQ B 502     -16.342   6.928 -17.552  1.00141.17     0.195 A 
HETATM    3  C3  MIQ B 502     -17.558   6.921 -16.571  1.00141.71     0.035 A 
HETATM    4  C4  MIQ B 502     -18.009   7.842 -15.501  1.00142.86     0.046 A 
HETATM    5  C5  MIQ B 502     -19.186   7.562 -14.763  1.00139.53     0.031 A 
HETATM    6  C12 MIQ B 502     -19.957   6.362 -15.060  1.00139.38     0.030 A 
HETATM    7  C13 MIQ B 502     -19.526   5.480 -16.087  1.00141.18     0.019 A 
HETATM    8  C14 MIQ B 502     -18.290   5.781 -16.860  1.00138.77     0.033 A 
HETATM    9  C15 MIQ B 502     -17.524   5.076 -18.027  1.00142.10     0.195 A 
HETATM   10  N17 MIQ B 502     -16.476   5.840 -18.290  1.00139.42    -0.288 N 
HETATM   11  O16 MIQ B 502     -17.878   3.882 -18.658  1.00148.93    -0.171 OA
ENDROOT
BRANCH  10  12
HETATM   12  C18 MIQ B 502     -15.519   5.483 -19.321  1.00139.82     0.187 C 
HETATM   13  C19 MIQ B 502     -14.114   5.631 -18.725  1.00140.06     0.247 C 
HETATM   14  O25 MIQ B 502     -13.867   5.111 -17.696  1.00143.95    -0.271 OA
HETATM   15  N20 MIQ B 502     -13.076   6.389 -19.395  1.00140.02    -0.296 N 
HETATM   16  H13 MIQ B 502     -12.165   6.484 -18.992  1.00142.77     0.171 HD
HETATM   17  C21 MIQ B 502     -13.405   7.023 -20.645  1.00142.22     0.224 C 
HETATM   18  C22 MIQ B 502     -14.826   7.530 -20.799  1.00139.52     0.106 C 
HETATM   19  O24 MIQ B 502     -12.607   7.137 -21.509  1.00146.13    -0.273 OA
HETATM   20  C23 MIQ B 502     -15.737   6.338 -20.568  1.00139.15     0.045 C 
ENDBRANCH  10  12
BRANCH   5  21
HETATM   21  N6  MIQ B 502     -19.608   8.464 -13.707  1.00140.95    -0.377 N 
HETATM   22  C7  MIQ B 502     -20.092   9.784 -14.074  1.00142.12     0.149 C 
HETATM   23  C8  MIQ B 502     -19.883  10.797 -12.956  1.00144.10     0.187 C 
HETATM   24  O9  MIQ B 502     -20.310  10.330 -11.712  1.00148.65    -0.388 OA
HETATM   25  C10 MIQ B 502     -20.658   8.987 -11.542  1.00147.44     0.187 C 
HETATM   26  C11 MIQ B 502     -19.960   7.938 -12.400  1.00144.08     0.149 C 
ENDBRANCH   5  21
TORSDOF 2
ENDMDL
MODEL 4
REMARK VINA RESULT:      -7.3      8.986     13.798
REMARK  2 active torsions:
REMARK  status: ('A' for Active; 'I' for Inactive)
REMARK    1  A    between atoms: C5_5  and  N6_21 
REMARK    2  A    between atoms: C18_14  and  N17_19 
ROOT
HETATM    1  O1  MIQ B 502     -21.559  14.672  -8.419  1.00142.91    -0.171 OA
HETATM    2  C2  MIQ B 502     -21.401  13.483  -7.703  1.00141.17     0.195 A 
HETATM    3  C3  MIQ B 502     -21.052  12.084  -8.305  1.00141.71     0.035 A 
HETATM    4  C4  MIQ B 502     -20.796  11.602  -9.683  1.00142.86     0.046 A 
HETATM    5  C5  MIQ B 502     -20.494  10.237  -9.920  1.00139.53     0.031 A 
HETATM    6  C12 MIQ B 502     -20.435   9.305  -8.804  1.00139.38     0.030 A 
HETATM    7  C13 MIQ B 502     -20.680   9.767  -7.482  1.00141.18     0.019 A 
HETATM    8  C14 MIQ B 502     -20.994  11.201  -7.238  1.00138.77     0.033 A 
HETATM    9  C15 MIQ B 502     -21.308  12.057  -5.968  1.00142.10     0.195 A 
HETATM   10  N17 MIQ B 502     -21.506  13.292  -6.399  1.00139.42    -0.288 N 
HETATM   11  O16 MIQ B 502     -21.369  11.604  -4.649  1.00148.93    -0.171 OA
ENDROOT
BRANCH  10  12
HETATM   12  C18 MIQ B 502     -21.840  14.369  -5.486  1.00139.82     0.187 C 
HETATM   13  C19 MIQ B 502     -23.090  15.072  -6.029  1.00140.06     0.247 C 
HETATM   14  O25 MIQ B 502     -24.036  14.426  -6.314  1.00143.95    -0.271 OA
HETATM   15  N20 MIQ B 502     -23.146  16.509  -6.198  1.00140.02    -0.296 N 
HETATM   16  H13 MIQ B 502     -23.966  16.955  -6.559  1.00142.77     0.171 HD
HETATM   17  C21 MIQ B 502     -21.975  17.274  -5.853  1.00142.22     0.224 C 
HETATM   18  C22 MIQ B 502     -20.633  16.612  -6.094  1.00139.52     0.106 C 
HETATM   19  O24 MIQ B 502     -22.060  18.363  -5.400  1.00146.13    -0.273 OA
HETATM   20  C23 MIQ B 502     -20.648  15.310  -5.315  1.00139.15     0.045 C 
ENDBRANCH  10  12
BRANCH   5  21
HETATM   21  N6  MIQ B 502     -20.260   9.777 -11.277  1.00140.95    -0.377 N 
HETATM   22  C7  MIQ B 502     -20.750   8.463 -11.658  1.00142.12     0.149 C 
HETATM   23  C8  MIQ B 502     -19.930   7.857 -12.791  1.00144.10     0.187 C 
HETATM   24  O9  MIQ B 502     -19.721   8.747 -13.847  1.00148.65    -0.388 OA
HETATM   25  C10 MIQ B 502     -20.051  10.097 -13.710  1.00147.44     0.187 C 
HETATM   26  C11 MIQ B 502     -19.961  10.734 -12.327  1.00144.08     0.149 C 
ENDBRANCH   5  21
TORSDOF 2
ENDMDL
MODEL 5
REMARK VINA RESULT:      -7.3      2.631      3.739
REMARK  2 active torsions:
REMARK  status: ('A' for Active; 'I' for Inactive)
REMARK    1  A    between atoms: C5_5  and  N6_21 
REMARK    2  A    between atoms: C18_14  and  N17_19 
ROOT
HETATM    1  O1  MIQ B 502     -16.925   8.589 -17.017  1.00142.91    -0.171 OA
HETATM    2  C2  MIQ B 502     -17.823   7.567 -16.698  1.00141.17     0.195 A 
HETATM    3  C3  MIQ B 502     -18.884   7.597 -15.551  1.00141.71     0.035 A 
HETATM    4  C4  MIQ B 502     -19.255   8.607 -14.533  1.00142.86     0.046 A 
HETATM    5  C5  MIQ B 502     -20.290   8.339 -13.601  1.00139.53     0.031 A 
HETATM    6  C12 MIQ B 502     -20.991   7.063 -13.647  1.00139.38     0.030 A 
HETATM    7  C13 MIQ B 502     -20.636   6.095 -14.624  1.00141.18     0.019 A 
HETATM    8  C14 MIQ B 502     -19.550   6.383 -15.601  1.00138.77     0.033 A 
HETATM    9  C15 MIQ B 502     -18.900   5.596 -16.786  1.00142.10     0.195 A 
HETATM   10  N17 MIQ B 502     -17.968   6.391 -17.284  1.00139.42    -0.288 N 
HETATM   11  O16 MIQ B 502     -19.237   4.314 -17.222  1.00148.93    -0.171 OA
ENDROOT
BRANCH  10  12
HETATM   12  C18 MIQ B 502     -17.138   5.979 -18.401  1.00139.82     0.187 C 
HETATM   13  C19 MIQ B 502     -15.673   6.173 -17.992  1.00140.06     0.247 C 
HETATM   14  O25 MIQ B 502     -15.294   5.720 -16.971  1.00143.95    -0.271 OA
HETATM   15  N20 MIQ B 502     -14.736   6.896 -18.829  1.00140.02    -0.296 N 
HETATM   16  H13 MIQ B 502     -13.784   7.022 -18.548  1.00142.77     0.171 HD
HETATM   17  C21 MIQ B 502     -15.224   7.449 -20.065  1.00142.22     0.224 C 
HETATM   18  C22 MIQ B 502     -16.661   7.936 -20.074  1.00139.52     0.106 C 
HETATM   19  O24 MIQ B 502     -14.539   7.515 -21.026  1.00146.13    -0.273 OA
HETATM   20  C23 MIQ B 502     -17.519   6.754 -19.661  1.00139.15     0.045 C 
ENDBRANCH  10  12
BRANCH   5  21
HETATM   21  N6  MIQ B 502     -20.633   9.331 -12.599  1.00140.95    -0.377 N 
HETATM   22  C7  MIQ B 502     -20.042  10.655 -12.701  1.00142.12     0.149 C 
HETATM   23  C8  MIQ B 502     -19.945  11.340 -11.344  1.00144.10     0.187 C 
HETATM   24  O9  MIQ B 502     -21.134  11.272 -10.615  1.00148.65    -0.388 OA
HETATM   25  C10 MIQ B 502     -22.179  10.448 -11.040  1.00147.44     0.187 C 
HETATM   26  C11 MIQ B 502     -21.838   9.173 -11.804  1.00144.08     0.149 C 
ENDBRANCH   5  21
TORSDOF 2
ENDMDL
MODEL 6
REMARK VINA RESULT:      -7.1      3.122      4.529
REMARK  2 active torsions:
REMARK  status: ('A' for Active; 'I' for Inactive)
REMARK    1  A    between atoms: C5_5  and  N6_21 
REMARK    2  A    between atoms: C18_14  and  N17_19 
ROOT
HETATM    1  O1  MIQ B 502     -16.743   7.755 -16.060  1.00142.91    -0.171 OA
HETATM    2  C2  MIQ B 502     -18.121   7.559 -16.172  1.00141.17     0.195 A 
HETATM    3  C3  MIQ B 502     -19.221   8.210 -15.275  1.00141.71     0.035 A 
HETATM    4  C4  MIQ B 502     -19.178   9.154 -14.133  1.00142.86     0.046 A 
HETATM    5  C5  MIQ B 502     -20.377   9.577 -13.507  1.00139.53     0.031 A 
HETATM    6  C12 MIQ B 502     -21.658   9.082 -13.990  1.00139.38     0.030 A 
HETATM    7  C13 MIQ B 502     -21.700   8.178 -15.085  1.00141.18     0.019 A 
HETATM    8  C14 MIQ B 502     -20.438   7.739 -15.740  1.00138.77     0.033 A 
HETATM    9  C15 MIQ B 502     -20.091   6.790 -16.934  1.00142.10     0.195 A 
HETATM   10  N17 MIQ B 502     -18.773   6.804 -17.041  1.00139.42    -0.288 N 
HETATM   11  O16 MIQ B 502     -20.994   6.073 -17.721  1.00148.93    -0.171 OA
ENDROOT
BRANCH  10  12
HETATM   12  C18 MIQ B 502     -18.086   6.015 -18.046  1.00139.82     0.187 C 
HETATM   13  C19 MIQ B 502     -17.026   5.168 -17.331  1.00140.06     0.247 C 
HETATM   14  O25 MIQ B 502     -17.341   4.516 -16.399  1.00143.95    -0.271 OA
HETATM   15  N20 MIQ B 502     -15.646   5.139 -17.772  1.00140.02    -0.296 N 
HETATM   16  H13 MIQ B 502     -14.962   4.587 -17.292  1.00142.77     0.171 HD
HETATM   17  C21 MIQ B 502     -15.283   5.951 -18.905  1.00142.22     0.224 C 
HETATM   18  C22 MIQ B 502     -16.024   7.265 -19.067  1.00139.52     0.106 C 
HETATM   19  O24 MIQ B 502     -14.453   5.605 -19.672  1.00146.13    -0.273 OA
HETATM   20  C23 MIQ B 502     -17.501   6.922 -19.127  1.00139.15     0.045 C 
ENDBRANCH  10  12
BRANCH   5  21
HETATM   21  N6  MIQ B 502     -20.319  10.490 -12.379  1.00140.95    -0.377 N 
HETATM   22  C7  MIQ B 502     -21.120  10.195 -11.204  1.00142.12     0.149 C 
HETATM   23  C8  MIQ B 502     -21.475  11.455 -10.427  1.00144.10     0.187 C 
HETATM   24  O9  MIQ B 502     -20.374  12.285 -10.205  1.00148.65    -0.388 OA
HETATM   25  C10 MIQ B 502     -19.162  12.041 -10.856  1.00147.44     0.187 C 
HETATM   26  C11 MIQ B 502     -19.193  11.396 -12.237  1.00144.08     0.149 C 
ENDBRANCH   5  21
TORSDOF 2
ENDMDL
MODEL 7
REMARK VINA RESULT:      -7.0      7.494     10.764
REMARK  2 active torsions:
REMARK  status: ('A' for Active; 'I' for Inactive)
REMARK    1  A    between atoms: C5_5  and  N6_21 
REMARK    2  A    between atoms: C18_14  and  N17_19 
ROOT
HETATM    1  O1  MIQ B 502     -18.411  11.329 -10.319  1.00142.91    -0.171 OA
HETATM    2  C2  MIQ B 502     -19.797  11.258 -10.473  1.00141.17     0.195 A 
HETATM    3  C3  MIQ B 502     -20.857  12.085  -9.678  1.00141.71     0.035 A 
HETATM    4  C4  MIQ B 502     -20.759  13.112  -8.613  1.00142.86     0.046 A 
HETATM    5  C5  MIQ B 502     -21.931  13.700  -8.074  1.00139.53     0.031 A 
HETATM    6  C12 MIQ B 502     -23.237  13.292  -8.570  1.00139.38     0.030 A 
HETATM    7  C13 MIQ B 502     -23.332  12.308  -9.591  1.00141.18     0.019 A 
HETATM    8  C14 MIQ B 502     -22.098  11.697 -10.156  1.00138.77     0.033 A 
HETATM    9  C15 MIQ B 502     -21.807  10.623 -11.254  1.00142.10     0.195 A 
HETATM   10  N17 MIQ B 502     -20.490  10.501 -11.306  1.00139.42    -0.288 N 
HETATM   11  O16 MIQ B 502     -22.749   9.933 -12.019  1.00148.93    -0.171 OA
ENDROOT
BRANCH  10  12
HETATM   12  C18 MIQ B 502     -19.851   9.568 -12.215  1.00139.82     0.187 C 
HETATM   13  C19 MIQ B 502     -20.195   9.999 -13.646  1.00140.06     0.247 C 
HETATM   14  O25 MIQ B 502     -20.017  11.120 -13.968  1.00143.95    -0.271 OA
HETATM   15  N20 MIQ B 502     -20.728   9.066 -14.617  1.00140.02    -0.296 N 
HETATM   16  H13 MIQ B 502     -20.955   9.362 -15.546  1.00142.77     0.171 HD
HETATM   17  C21 MIQ B 502     -20.947   7.706 -14.197  1.00142.22     0.224 C 
HETATM   18  C22 MIQ B 502     -21.362   7.497 -12.753  1.00139.52     0.106 C 
HETATM   19  O24 MIQ B 502     -20.804   6.799 -14.941  1.00146.13    -0.273 OA
HETATM   20  C23 MIQ B 502     -20.283   8.137 -11.898  1.00139.15     0.045 C 
ENDBRANCH  10  12
BRANCH   5  21
HETATM   21  N6  MIQ B 502     -21.821  14.693  -7.021  1.00140.95    -0.377 N 
HETATM   22  C7  MIQ B 502     -22.279  14.345  -5.687  1.00142.12     0.149 C 
HETATM   23  C8  MIQ B 502     -22.708  15.574  -4.895  1.00144.10     0.187 C 
HETATM   24  O9  MIQ B 502     -21.776  16.611  -4.955  1.00148.65    -0.388 OA
HETATM   25  C10 MIQ B 502     -20.705  16.551  -5.850  1.00147.44     0.187 C 
HETATM   26  C11 MIQ B 502     -20.897  15.804  -7.167  1.00144.08     0.149 C 
ENDBRANCH   5  21
TORSDOF 2
ENDMDL
MODEL 8
REMARK VINA RESULT:      -7.0      8.694     12.248
REMARK  2 active torsions:
REMARK  status: ('A' for Active; 'I' for Inactive)
REMARK    1  A    between atoms: C5_5  and  N6_21 
REMARK    2  A    between atoms: C18_14  and  N17_19 
ROOT
HETATM    1  O1  MIQ B 502     -21.634  11.767 -10.777  1.00142.91    -0.171 OA
HETATM    2  C2  MIQ B 502     -21.450  11.862  -9.395  1.00141.17     0.195 A 
HETATM    3  C3  MIQ B 502     -21.926  13.036  -8.481  1.00141.71     0.035 A 
HETATM    4  C4  MIQ B 502     -22.655  14.300  -8.742  1.00142.86     0.046 A 
HETATM    5  C5  MIQ B 502     -22.953  15.188  -7.678  1.00139.53     0.031 A 
HETATM    6  C12 MIQ B 502     -22.541  14.855  -6.322  1.00139.38     0.030 A 
HETATM    7  C13 MIQ B 502     -21.843  13.643  -6.071  1.00141.18     0.019 A 
HETATM    8  C14 MIQ B 502     -21.535  12.713  -7.192  1.00138.77     0.033 A 
HETATM    9  C15 MIQ B 502     -20.813  11.331  -7.307  1.00142.10     0.195 A 
HETATM   10  N17 MIQ B 502     -20.855  11.002  -8.587  1.00139.42    -0.288 N 
HETATM   11  O16 MIQ B 502     -20.239  10.599  -6.266  1.00148.93    -0.171 OA
ENDROOT
BRANCH  10  12
HETATM   12  C18 MIQ B 502     -20.259   9.771  -9.073  1.00139.82     0.187 C 
HETATM   13  C19 MIQ B 502     -19.304  10.134 -10.216  1.00140.06     0.247 C 
HETATM   14  O25 MIQ B 502     -18.496  10.977 -10.046  1.00143.95    -0.271 OA
HETATM   15  N20 MIQ B 502     -19.360   9.465 -11.500  1.00140.02    -0.296 N 
HETATM   16  H13 MIQ B 502     -18.735   9.716 -12.241  1.00142.77     0.171 HD
HETATM   17  C21 MIQ B 502     -20.361   8.447 -11.687  1.00142.22     0.224 C 
HETATM   18  C22 MIQ B 502     -21.680   8.647 -10.964  1.00139.52     0.106 C 
HETATM   19  O24 MIQ B 502     -20.161   7.500 -12.366  1.00146.13    -0.273 OA
HETATM   20  C23 MIQ B 502     -21.347   8.782  -9.489  1.00139.15     0.045 C 
ENDBRANCH  10  12
BRANCH   5  21
HETATM   21  N6  MIQ B 502     -23.654  16.430  -7.950  1.00140.95    -0.377 N 
HETATM   22  C7  MIQ B 502     -24.819  16.760  -7.147  1.00142.12     0.149 C 
HETATM   23  C8  MIQ B 502     -25.788  17.664  -7.897  1.00144.10     0.187 C 
HETATM   24  O9  MIQ B 502     -25.157  18.750  -8.507  1.00148.65    -0.388 OA
HETATM   25  C10 MIQ B 502     -23.763  18.808  -8.582  1.00147.44     0.187 C 
HETATM   26  C11 MIQ B 502     -22.982  17.500  -8.666  1.00144.08     0.149 C 
ENDBRANCH   5  21
TORSDOF 2
ENDMDL
MODEL 9
REMARK VINA RESULT:      -6.9      2.108      8.562
REMARK  2 active torsions:
REMARK  status: ('A' for Active; 'I' for Inactive)
REMARK    1  A    between atoms: C5_5  and  N6_21 
REMARK    2  A    between atoms: C18_14  and  N17_19 
ROOT
HETATM    1  O1  MIQ B 502     -18.913   8.999 -14.895  1.00142.91    -0.171 OA
HETATM    2  C2  MIQ B 502     -19.136   7.682 -15.304  1.00141.17     0.195 A 
HETATM    3  C3  MIQ B 502     -18.288   6.884 -16.345  1.00141.71     0.035 A 
HETATM    4  C4  MIQ B 502     -17.093   7.216 -17.157  1.00142.86     0.046 A 
HETATM    5  C5  MIQ B 502     -16.534   6.256 -18.037  1.00139.53     0.031 A 
HETATM    6  C12 MIQ B 502     -17.138   4.935 -18.142  1.00139.38     0.030 A 
HETATM    7  C13 MIQ B 502     -18.283   4.615 -17.364  1.00141.18     0.019 A 
HETATM    8  C14 MIQ B 502     -18.864   5.627 -16.440  1.00138.77     0.033 A 
HETATM    9  C15 MIQ B 502     -20.075   5.646 -15.451  1.00142.10     0.195 A 
HETATM   10  N17 MIQ B 502     -20.082   6.850 -14.905  1.00139.42    -0.288 N 
HETATM   11  O16 MIQ B 502     -20.966   4.601 -15.202  1.00148.93    -0.171 OA
ENDROOT
BRANCH  10  12
HETATM   12  C18 MIQ B 502     -21.091   7.237 -13.936  1.00139.82     0.187 C 
HETATM   13  C19 MIQ B 502     -21.797   8.489 -14.470  1.00140.06     0.247 C 
HETATM   14  O25 MIQ B 502     -22.221   8.486 -15.571  1.00143.95    -0.271 OA
HETATM   15  N20 MIQ B 502     -21.963   9.677 -13.658  1.00140.02    -0.296 N 
HETATM   16  H13 MIQ B 502     -22.419  10.491 -14.021  1.00142.77     0.171 HD
HETATM   17  C21 MIQ B 502     -21.427   9.661 -12.321  1.00142.22     0.224 C 
HETATM   18  C22 MIQ B 502     -20.157   8.860 -12.107  1.00139.52     0.106 C 
HETATM   19  O24 MIQ B 502     -21.956  10.239 -11.436  1.00146.13    -0.273 OA
HETATM   20  C23 MIQ B 502     -20.457   7.444 -12.562  1.00139.15     0.045 C 
ENDBRANCH  10  12
BRANCH   5  21
HETATM   21  N6  MIQ B 502     -15.373   6.600 -18.837  1.00140.95    -0.377 N 
HETATM   22  C7  MIQ B 502     -14.177   5.785 -18.712  1.00142.12     0.149 C 
HETATM   23  C8  MIQ B 502     -12.916   6.568 -19.053  1.00144.10     0.187 C 
HETATM   24  O9  MIQ B 502     -13.028   7.286 -20.245  1.00148.65    -0.388 OA
HETATM   25  C10 MIQ B 502     -14.266   7.415 -20.880  1.00147.44     0.187 C 
HETATM   26  C11 MIQ B 502     -15.528   7.422 -20.024  1.00144.08     0.149 C 
ENDBRANCH   5  21
TORSDOF 2
ENDMDL
