MODEL 1
REMARK VINA RESULT:      -8.0      0.000      0.000
REMARK  2 active torsions:
REMARK  status: ('A' for Active; 'I' for Inactive)
REMARK    1  A    between atoms: C5_5  and  N6_21 
REMARK    2  A    between atoms: C18_14  and  N17_19 
ROOT
HETATM    1  O1  MIQ B 502       1.106  -4.700  -4.088  1.00142.91    -0.171 OA
HETATM    2  C2  MIQ B 502       1.705  -5.579  -3.183  1.00141.17     0.195 A 
HETATM    3  C3  MIQ B 502       3.054  -5.349  -2.429  1.00141.71     0.035 A 
HETATM    4  C4  MIQ B 502       4.040  -4.243  -2.420  1.00142.86     0.046 A 
HETATM    5  C5  MIQ B 502       5.200  -4.323  -1.609  1.00139.53     0.031 A 
HETATM    6  C12 MIQ B 502       5.422  -5.500  -0.781  1.00139.38     0.030 A 
HETATM    7  C13 MIQ B 502       4.476  -6.560  -0.788  1.00141.18     0.019 A 
HETATM    8  C14 MIQ B 502       3.259  -6.469  -1.640  1.00138.77     0.033 A 
HETATM    9  C15 MIQ B 502       2.030  -7.399  -1.904  1.00142.10     0.195 A 
HETATM   10  N17 MIQ B 502       1.269  -6.758  -2.776  1.00139.42    -0.288 N 
HETATM   11  O16 MIQ B 502       1.792  -8.651  -1.335  1.00148.93    -0.171 OA
ENDROOT
BRANCH  10  12
HETATM   12  C18 MIQ B 502       0.033  -7.337  -3.271  1.00139.82     0.187 C 
HETATM   13  C19 MIQ B 502      -0.877  -7.598  -2.064  1.00140.06     0.247 C 
HETATM   14  O25 MIQ B 502      -1.076  -6.727  -1.294  1.00143.95    -0.271 OA
HETATM   15  N20 MIQ B 502      -1.506  -8.884  -1.846  1.00140.02    -0.296 N 
HETATM   16  H13 MIQ B 502      -2.092  -9.044  -1.051  1.00142.77     0.171 HD
HETATM   17  C21 MIQ B 502      -1.239  -9.935  -2.794  1.00142.22     0.224 C 
HETATM   18  C22 MIQ B 502       0.139  -9.949  -3.426  1.00139.52     0.106 C 
HETATM   19  O24 MIQ B 502      -2.058 -10.742  -3.069  1.00146.13    -0.273 OA
HETATM   20  C23 MIQ B 502       0.324  -8.595  -4.087  1.00139.15     0.045 C 
ENDBRANCH  10  12
BRANCH   5  21
HETATM   21  N6  MIQ B 502       6.166  -3.239  -1.622  1.00140.95    -0.377 N 
HETATM   22  C7  MIQ B 502       5.963  -2.139  -2.548  1.00142.12     0.149 C 
HETATM   23  C8  MIQ B 502       7.274  -1.460  -2.921  1.00144.10     0.187 C 
HETATM   24  O9  MIQ B 502       8.069  -1.166  -1.811  1.00148.65    -0.388 OA
HETATM   25  C10 MIQ B 502       7.744  -1.679  -0.553  1.00147.44     0.187 C 
HETATM   26  C11 MIQ B 502       7.032  -3.026  -0.475  1.00144.08     0.149 C 
ENDBRANCH   5  21
TORSDOF 2
ENDMDL
MODEL 2
REMARK VINA RESULT:      -7.7      1.822      8.418
REMARK  2 active torsions:
REMARK  status: ('A' for Active; 'I' for Inactive)
REMARK    1  A    between atoms: C5_5  and  N6_21 
REMARK    2  A    between atoms: C18_14  and  N17_19 
ROOT
HETATM    1  O1  MIQ B 502       5.027  -6.957   0.168  1.00142.91    -0.171 OA
HETATM    2  C2  MIQ B 502       4.462  -6.137  -0.812  1.00141.17     0.195 A 
HETATM    3  C3  MIQ B 502       3.177  -6.446  -1.644  1.00141.71     0.035 A 
HETATM    4  C4  MIQ B 502       2.229  -7.585  -1.669  1.00142.86     0.046 A 
HETATM    5  C5  MIQ B 502       1.125  -7.578  -2.559  1.00139.53     0.031 A 
HETATM    6  C12 MIQ B 502       0.922  -6.446  -3.451  1.00139.38     0.030 A 
HETATM    7  C13 MIQ B 502       1.830  -5.354  -3.426  1.00141.18     0.019 A 
HETATM    8  C14 MIQ B 502       2.987  -5.365  -2.489  1.00138.77     0.033 A 
HETATM    9  C15 MIQ B 502       4.159  -4.378  -2.178  1.00142.10     0.195 A 
HETATM   10  N17 MIQ B 502       4.879  -4.954  -1.229  1.00139.42    -0.288 N 
HETATM   11  O16 MIQ B 502       4.396  -3.144  -2.785  1.00148.93    -0.171 OA
ENDROOT
BRANCH  10  12
HETATM   12  C18 MIQ B 502       6.072  -4.324  -0.696  1.00139.82     0.187 C 
HETATM   13  C19 MIQ B 502       5.677  -2.934  -0.181  1.00140.06     0.247 C 
HETATM   14  O25 MIQ B 502       4.760  -2.832   0.553  1.00143.95    -0.271 OA
HETATM   15  N20 MIQ B 502       6.403  -1.742  -0.567  1.00140.02    -0.296 N 
HETATM   16  H13 MIQ B 502       6.131  -0.840  -0.229  1.00142.77     0.171 HD
HETATM   17  C21 MIQ B 502       7.513  -1.891  -1.473  1.00142.22     0.224 C 
HETATM   18  C22 MIQ B 502       7.399  -2.986  -2.516  1.00139.52     0.106 C 
HETATM   19  O24 MIQ B 502       8.467  -1.197  -1.401  1.00146.13    -0.273 OA
HETATM   20  C23 MIQ B 502       7.170  -4.281  -1.758  1.00139.15     0.045 C 
ENDBRANCH  10  12
BRANCH   5  21
HETATM   21  N6  MIQ B 502       0.212  -8.707  -2.583  1.00140.95    -0.377 N 
HETATM   22  C7  MIQ B 502      -0.965  -8.630  -3.431  1.00142.12     0.149 C 
HETATM   23  C8  MIQ B 502      -2.100  -9.502  -2.908  1.00144.10     0.187 C 
HETATM   24  O9  MIQ B 502      -1.685 -10.794  -2.579  1.00148.65    -0.388 OA
HETATM   25  C10 MIQ B 502      -0.325 -11.110  -2.534  1.00147.44     0.187 C 
HETATM   26  C11 MIQ B 502       0.666 -10.017  -2.149  1.00144.08     0.149 C 
ENDBRANCH   5  21
TORSDOF 2
ENDMDL
MODEL 3
REMARK VINA RESULT:      -7.6      1.831      2.360
REMARK  2 active torsions:
REMARK  status: ('A' for Active; 'I' for Inactive)
REMARK    1  A    between atoms: C5_5  and  N6_21 
REMARK    2  A    between atoms: C18_14  and  N17_19 
ROOT
HETATM    1  O1  MIQ B 502       1.726  -5.454  -3.590  1.00142.91    -0.171 OA
HETATM    2  C2  MIQ B 502       2.020  -5.235  -2.242  1.00141.17     0.195 A 
HETATM    3  C3  MIQ B 502       3.223  -4.412  -1.682  1.00141.71     0.035 A 
HETATM    4  C4  MIQ B 502       4.334  -3.667  -2.322  1.00142.86     0.046 A 
HETATM    5  C5  MIQ B 502       5.300  -3.000  -1.527  1.00139.53     0.031 A 
HETATM    6  C12 MIQ B 502       5.200  -3.047  -0.076  1.00139.38     0.030 A 
HETATM    7  C13 MIQ B 502       4.135  -3.761   0.538  1.00141.18     0.019 A 
HETATM    8  C14 MIQ B 502       3.122  -4.457  -0.302  1.00138.77     0.033 A 
HETATM    9  C15 MIQ B 502       1.847  -5.312  -0.003  1.00142.10     0.195 A 
HETATM   10  N17 MIQ B 502       1.357  -5.661  -1.181  1.00139.42    -0.288 N 
HETATM   11  O16 MIQ B 502       1.337  -5.641   1.254  1.00148.93    -0.171 OA
ENDROOT
BRANCH  10  12
HETATM   12  C18 MIQ B 502       0.167  -6.484  -1.292  1.00139.82     0.187 C 
HETATM   13  C19 MIQ B 502       0.544  -7.748  -2.075  1.00140.06     0.247 C 
HETATM   14  O25 MIQ B 502       1.484  -8.375  -1.737  1.00143.95    -0.271 OA
HETATM   15  N20 MIQ B 502      -0.225  -8.197  -3.217  1.00140.02    -0.296 N 
HETATM   16  H13 MIQ B 502       0.036  -9.020  -3.724  1.00142.77     0.171 HD
HETATM   17  C21 MIQ B 502      -1.362  -7.408  -3.617  1.00142.22     0.224 C 
HETATM   18  C22 MIQ B 502      -1.256  -5.909  -3.414  1.00139.52     0.106 C 
HETATM   19  O24 MIQ B 502      -2.330  -7.908  -4.075  1.00146.13    -0.273 OA
HETATM   20  C23 MIQ B 502      -0.968  -5.693  -1.940  1.00139.15     0.045 C 
ENDBRANCH  10  12
BRANCH   5  21
HETATM   21  N6  MIQ B 502       6.391  -2.287  -2.167  1.00140.95    -0.377 N 
HETATM   22  C7  MIQ B 502       6.200  -1.796  -3.521  1.00142.12     0.149 C 
HETATM   23  C8  MIQ B 502       7.520  -1.673  -4.272  1.00144.10     0.187 C 
HETATM   24  O9  MIQ B 502       8.507  -1.018  -3.533  1.00148.65    -0.388 OA
HETATM   25  C10 MIQ B 502       8.311  -0.745  -2.177  1.00147.44     0.187 C 
HETATM   26  C11 MIQ B 502       7.443  -1.694  -1.359  1.00144.08     0.149 C 
ENDBRANCH   5  21
TORSDOF 2
ENDMDL
MODEL 4
REMARK VINA RESULT:      -7.2     21.510     24.643
REMARK  2 active torsions:
REMARK  status: ('A' for Active; 'I' for Inactive)
REMARK    1  A    between atoms: C5_5  and  N6_21 
REMARK    2  A    between atoms: C18_14  and  N17_19 
ROOT
HETATM    1  O1  MIQ B 502       1.192  15.098 -11.732  1.00142.91    -0.171 OA
HETATM    2  C2  MIQ B 502       1.877  14.974 -12.942  1.00141.17     0.195 A 
HETATM    3  C3  MIQ B 502       2.754  16.073 -13.622  1.00141.71     0.035 A 
HETATM    4  C4  MIQ B 502       3.117  17.462 -13.251  1.00142.86     0.046 A 
HETATM    5  C5  MIQ B 502       3.957  18.233 -14.094  1.00139.53     0.031 A 
HETATM    6  C12 MIQ B 502       4.465  17.657 -15.330  1.00139.38     0.030 A 
HETATM    7  C13 MIQ B 502       4.118  16.325 -15.686  1.00141.18     0.019 A 
HETATM    8  C14 MIQ B 502       3.238  15.519 -14.796  1.00138.77     0.033 A 
HETATM    9  C15 MIQ B 502       2.659  14.068 -14.845  1.00142.10     0.195 A 
HETATM   10  N17 MIQ B 502       1.933  13.928 -13.748  1.00139.42    -0.288 N 
HETATM   11  O16 MIQ B 502       2.866  13.119 -15.847  1.00148.93    -0.171 OA
ENDROOT
BRANCH  10  12
HETATM   12  C18 MIQ B 502       1.222  12.695 -13.462  1.00139.82     0.187 C 
HETATM   13  C19 MIQ B 502       2.248  11.555 -13.452  1.00140.06     0.247 C 
HETATM   14  O25 MIQ B 502       3.223  11.664 -12.795  1.00143.95    -0.271 OA
HETATM   15  N20 MIQ B 502       2.053  10.344 -14.221  1.00140.02    -0.296 N 
HETATM   16  H13 MIQ B 502       2.733   9.610 -14.211  1.00142.77     0.171 HD
HETATM   17  C21 MIQ B 502       0.860  10.239 -15.023  1.00142.22     0.224 C 
HETATM   18  C22 MIQ B 502       0.333  11.525 -15.630  1.00139.52     0.106 C 
HETATM   19  O24 MIQ B 502       0.319   9.203 -15.193  1.00146.13    -0.273 OA
HETATM   20  C23 MIQ B 502       0.099  12.483 -14.476  1.00139.15     0.045 C 
ENDBRANCH  10  12
BRANCH   5  21
HETATM   21  N6  MIQ B 502       4.292  19.596 -13.725  1.00140.95    -0.377 N 
HETATM   22  C7  MIQ B 502       3.219  20.569 -13.613  1.00142.12     0.149 C 
HETATM   23  C8  MIQ B 502       3.710  21.989 -13.866  1.00144.10     0.187 C 
HETATM   24  O9  MIQ B 502       4.871  22.297 -13.155  1.00148.65    -0.388 OA
HETATM   25  C10 MIQ B 502       5.582  21.294 -12.491  1.00147.44     0.187 C 
HETATM   26  C11 MIQ B 502       5.553  19.880 -13.062  1.00144.08     0.149 C 
ENDBRANCH   5  21
TORSDOF 2
ENDMDL
MODEL 5
REMARK VINA RESULT:      -7.0      1.929      2.487
REMARK  2 active torsions:
REMARK  status: ('A' for Active; 'I' for Inactive)
REMARK    1  A    between atoms: C5_5  and  N6_21 
REMARK    2  A    between atoms: C18_14  and  N17_19 
ROOT
HETATM    1  O1  MIQ B 502       1.582  -4.474  -3.770  1.00142.91    -0.171 OA
HETATM    2  C2  MIQ B 502       2.305  -5.309  -2.916  1.00141.17     0.195 A 
HETATM    3  C3  MIQ B 502       3.658  -4.963  -2.216  1.00141.71     0.035 A 
HETATM    4  C4  MIQ B 502       4.529  -3.765  -2.219  1.00142.86     0.046 A 
HETATM    5  C5  MIQ B 502       5.728  -3.748  -1.461  1.00139.53     0.031 A 
HETATM    6  C12 MIQ B 502       6.102  -4.915  -0.675  1.00139.38     0.030 A 
HETATM    7  C13 MIQ B 502       5.266  -6.064  -0.671  1.00141.18     0.019 A 
HETATM    8  C14 MIQ B 502       4.008  -6.075  -1.467  1.00138.77     0.033 A 
HETATM    9  C15 MIQ B 502       2.867  -7.117  -1.704  1.00142.10     0.195 A 
HETATM   10  N17 MIQ B 502       2.007  -6.536  -2.524  1.00139.42    -0.288 N 
HETATM   11  O16 MIQ B 502       2.780  -8.399  -1.160  1.00148.93    -0.171 OA
ENDROOT
BRANCH  10  12
HETATM   12  C18 MIQ B 502       0.813  -7.223  -2.980  1.00139.82     0.187 C 
HETATM   13  C19 MIQ B 502       0.957  -7.458  -4.489  1.00140.06     0.247 C 
HETATM   14  O25 MIQ B 502       1.940  -7.962  -4.902  1.00143.95    -0.271 OA
HETATM   15  N20 MIQ B 502      -0.085  -7.084  -5.423  1.00140.02    -0.296 N 
HETATM   16  H13 MIQ B 502       0.024  -7.237  -6.406  1.00142.77     0.171 HD
HETATM   17  C21 MIQ B 502      -1.272  -6.461  -4.895  1.00142.22     0.224 C 
HETATM   18  C22 MIQ B 502      -1.091  -5.569  -3.683  1.00139.52     0.106 C 
HETATM   19  O24 MIQ B 502      -2.334  -6.643  -5.382  1.00146.13    -0.273 OA
HETATM   20  C23 MIQ B 502      -0.435  -6.422  -2.613  1.00139.15     0.045 C 
ENDBRANCH  10  12
BRANCH   5  21
HETATM   21  N6  MIQ B 502       6.579  -2.573  -1.485  1.00140.95    -0.377 N 
HETATM   22  C7  MIQ B 502       7.576  -2.416  -0.440  1.00142.12     0.149 C 
HETATM   23  C8  MIQ B 502       7.919  -0.952  -0.196  1.00144.10     0.187 C 
HETATM   24  O9  MIQ B 502       8.175  -0.250  -1.375  1.00148.65    -0.388 OA
HETATM   25  C10 MIQ B 502       7.898  -0.827  -2.617  1.00147.44     0.187 C 
HETATM   26  C11 MIQ B 502       6.747  -1.823  -2.718  1.00144.08     0.149 C 
ENDBRANCH   5  21
TORSDOF 2
ENDMDL
MODEL 6
REMARK VINA RESULT:      -6.7      1.417      2.678
REMARK  2 active torsions:
REMARK  status: ('A' for Active; 'I' for Inactive)
REMARK    1  A    between atoms: C5_5  and  N6_21 
REMARK    2  A    between atoms: C18_14  and  N17_19 
ROOT
HETATM    1  O1  MIQ B 502       3.128  -6.720   0.095  1.00142.91    -0.171 OA
HETATM    2  C2  MIQ B 502       2.891  -6.237  -1.194  1.00141.17     0.195 A 
HETATM    3  C3  MIQ B 502       3.655  -5.070  -1.897  1.00141.71     0.035 A 
HETATM    4  C4  MIQ B 502       4.768  -4.184  -1.481  1.00142.86     0.046 A 
HETATM    5  C5  MIQ B 502       5.262  -3.191  -2.364  1.00139.53     0.031 A 
HETATM    6  C12 MIQ B 502       4.673  -3.042  -3.687  1.00139.38     0.030 A 
HETATM    7  C13 MIQ B 502       3.607  -3.892  -4.087  1.00141.18     0.019 A 
HETATM    8  C14 MIQ B 502       3.094  -4.935  -3.156  1.00138.77     0.033 A 
HETATM    9  C15 MIQ B 502       1.975  -6.024  -3.236  1.00142.10     0.195 A 
HETATM   10  N17 MIQ B 502       1.997  -6.656  -2.074  1.00139.42    -0.288 N 
HETATM   11  O16 MIQ B 502       1.126  -6.273  -4.316  1.00148.93    -0.171 OA
ENDROOT
BRANCH  10  12
HETATM   12  C18 MIQ B 502       1.071  -7.734  -1.780  1.00139.82     0.187 C 
HETATM   13  C19 MIQ B 502       1.177  -8.763  -2.912  1.00140.06     0.247 C 
HETATM   14  O25 MIQ B 502       2.240  -9.167  -3.225  1.00143.95    -0.271 OA
HETATM   15  N20 MIQ B 502       0.006  -9.257  -3.607  1.00140.02    -0.296 N 
HETATM   16  H13 MIQ B 502       0.090  -9.924  -4.349  1.00142.77     0.171 HD
HETATM   17  C21 MIQ B 502      -1.279  -8.740  -3.215  1.00142.22     0.224 C 
HETATM   18  C22 MIQ B 502      -1.321  -7.296  -2.752  1.00139.52     0.106 C 
HETATM   19  O24 MIQ B 502      -2.251  -9.411  -3.247  1.00146.13    -0.273 OA
HETATM   20  C23 MIQ B 502      -0.343  -7.186  -1.596  1.00139.15     0.045 C 
ENDBRANCH  10  12
BRANCH   5  21
HETATM   21  N6  MIQ B 502       6.342  -2.320  -1.937  1.00140.95    -0.377 N 
HETATM   22  C7  MIQ B 502       7.223  -2.775  -0.875  1.00142.12     0.149 C 
HETATM   23  C8  MIQ B 502       7.841  -1.612  -0.111  1.00144.10     0.187 C 
HETATM   24  O9  MIQ B 502       8.375  -0.632  -0.950  1.00148.65    -0.388 OA
HETATM   25  C10 MIQ B 502       8.125  -0.665  -2.325  1.00147.44     0.187 C 
HETATM   26  C11 MIQ B 502       6.807  -1.258  -2.812  1.00144.08     0.149 C 
ENDBRANCH   5  21
TORSDOF 2
ENDMDL
MODEL 7
REMARK VINA RESULT:      -6.7     21.777     24.884
REMARK  2 active torsions:
REMARK  status: ('A' for Active; 'I' for Inactive)
REMARK    1  A    between atoms: C5_5  and  N6_21 
REMARK    2  A    between atoms: C18_14  and  N17_19 
ROOT
HETATM    1  O1  MIQ B 502       2.585  13.398 -15.910  1.00142.91    -0.171 OA
HETATM    2  C2  MIQ B 502       2.283  14.216 -14.819  1.00141.17     0.195 A 
HETATM    3  C3  MIQ B 502       2.627  15.734 -14.681  1.00141.71     0.035 A 
HETATM    4  C4  MIQ B 502       3.310  16.708 -15.565  1.00142.86     0.046 A 
HETATM    5  C5  MIQ B 502       3.476  18.055 -15.154  1.00139.53     0.031 A 
HETATM    6  C12 MIQ B 502       2.972  18.482 -13.857  1.00139.38     0.030 A 
HETATM    7  C13 MIQ B 502       2.316  17.548 -13.010  1.00141.18     0.019 A 
HETATM    8  C14 MIQ B 502       2.142  16.136 -13.448  1.00138.77     0.033 A 
HETATM    9  C15 MIQ B 502       1.493  14.862 -12.816  1.00142.10     0.195 A 
HETATM   10  N17 MIQ B 502       1.654  13.893 -13.702  1.00139.42    -0.288 N 
HETATM   11  O16 MIQ B 502       0.873  14.770 -11.569  1.00148.93    -0.171 OA
ENDROOT
BRANCH  10  12
HETATM   12  C18 MIQ B 502       1.182  12.545 -13.444  1.00139.82     0.187 C 
HETATM   13  C19 MIQ B 502       2.395  11.607 -13.494  1.00140.06     0.247 C 
HETATM   14  O25 MIQ B 502       3.351  11.869 -12.855  1.00143.95    -0.271 OA
HETATM   15  N20 MIQ B 502       2.398  10.404 -14.300  1.00140.02    -0.296 N 
HETATM   16  H13 MIQ B 502       3.198   9.804 -14.329  1.00142.77     0.171 HD
HETATM   17  C21 MIQ B 502       1.222  10.112 -15.080  1.00142.22     0.224 C 
HETATM   18  C22 MIQ B 502       0.458  11.300 -15.631  1.00139.52     0.106 C 
HETATM   19  O24 MIQ B 502       0.870   9.001 -15.274  1.00146.13    -0.273 OA
HETATM   20  C23 MIQ B 502       0.088  12.165 -14.441  1.00139.15     0.045 C 
ENDBRANCH  10  12
BRANCH   5  21
HETATM   21  N6  MIQ B 502       4.161  18.994 -16.023  1.00140.95    -0.377 N 
HETATM   22  C7  MIQ B 502       5.570  19.257 -15.789  1.00142.12     0.149 C 
HETATM   23  C8  MIQ B 502       5.980  20.640 -16.281  1.00144.10     0.187 C 
HETATM   24  O9  MIQ B 502       5.529  20.913 -17.573  1.00148.65    -0.388 OA
HETATM   25  C10 MIQ B 502       4.609  20.065 -18.196  1.00147.44     0.187 C 
HETATM   26  C11 MIQ B 502       3.606  19.313 -17.327  1.00144.08     0.149 C 
ENDBRANCH   5  21
TORSDOF 2
ENDMDL
MODEL 8
REMARK VINA RESULT:      -6.7     22.008     25.128
REMARK  2 active torsions:
REMARK  status: ('A' for Active; 'I' for Inactive)
REMARK    1  A    between atoms: C5_5  and  N6_21 
REMARK    2  A    between atoms: C18_14  and  N17_19 
ROOT
HETATM    1  O1  MIQ B 502       1.634  13.950 -14.434  1.00142.91    -0.171 OA
HETATM    2  C2  MIQ B 502       2.535  14.267 -15.452  1.00141.17     0.195 A 
HETATM    3  C3  MIQ B 502       3.431  15.545 -15.526  1.00141.71     0.035 A 
HETATM    4  C4  MIQ B 502       3.608  16.718 -14.638  1.00142.86     0.046 A 
HETATM    5  C5  MIQ B 502       4.522  17.745 -14.982  1.00139.53     0.031 A 
HETATM    6  C12 MIQ B 502       5.291  17.646 -16.214  1.00139.38     0.030 A 
HETATM    7  C13 MIQ B 502       5.122  16.521 -17.066  1.00141.18     0.019 A 
HETATM    8  C14 MIQ B 502       4.162  15.444 -16.699  1.00138.77     0.033 A 
HETATM    9  C15 MIQ B 502       3.719  14.097 -17.355  1.00142.10     0.195 A 
HETATM   10  N17 MIQ B 502       2.820  13.571 -16.540  1.00139.42    -0.288 N 
HETATM   11  O16 MIQ B 502       4.180  13.562 -18.560  1.00148.93    -0.171 OA
ENDROOT
BRANCH  10  12
HETATM   12  C18 MIQ B 502       2.170  12.309 -16.841  1.00139.82     0.187 C 
HETATM   13  C19 MIQ B 502       0.655  12.531 -16.753  1.00140.06     0.247 C 
HETATM   14  O25 MIQ B 502       0.169  13.428 -17.344  1.00143.95    -0.271 OA
HETATM   15  N20 MIQ B 502      -0.199  11.663 -15.967  1.00140.02    -0.296 N 
HETATM   16  H13 MIQ B 502      -1.186  11.823 -15.912  1.00142.77     0.171 HD
HETATM   17  C21 MIQ B 502       0.419  10.581 -15.246  1.00142.22     0.224 C 
HETATM   18  C22 MIQ B 502       1.815  10.829 -14.710  1.00139.52     0.106 C 
HETATM   19  O24 MIQ B 502      -0.135   9.549 -15.087  1.00146.13    -0.273 OA
HETATM   20  C23 MIQ B 502       2.673  11.215 -15.901  1.00139.15     0.045 C 
ENDBRANCH  10  12
BRANCH   5  21
HETATM   21  N6  MIQ B 502       4.675  18.895 -14.109  1.00140.95    -0.377 N 
HETATM   22  C7  MIQ B 502       6.017  19.364 -13.806  1.00142.12     0.149 C 
HETATM   23  C8  MIQ B 502       6.078  20.083 -12.465  1.00144.10     0.187 C 
HETATM   24  O9  MIQ B 502       5.065  21.032 -12.310  1.00148.65    -0.388 OA
HETATM   25  C10 MIQ B 502       4.009  21.094 -13.222  1.00147.44     0.187 C 
HETATM   26  C11 MIQ B 502       3.563  19.809 -13.912  1.00144.08     0.149 C 
ENDBRANCH   5  21
TORSDOF 2
ENDMDL
MODEL 9
REMARK VINA RESULT:      -6.5     19.946     22.237
REMARK  2 active torsions:
REMARK  status: ('A' for Active; 'I' for Inactive)
REMARK    1  A    between atoms: C5_5  and  N6_21 
REMARK    2  A    between atoms: C18_14  and  N17_19 
ROOT
HETATM    1  O1  MIQ B 502       0.911  -3.502 -25.793  1.00142.91    -0.171 OA
HETATM    2  C2  MIQ B 502       0.553  -3.224 -24.472  1.00141.17     0.195 A 
HETATM    3  C3  MIQ B 502       0.594  -4.226 -23.275  1.00141.71     0.035 A 
HETATM    4  C4  MIQ B 502       0.987  -5.650 -23.151  1.00142.86     0.046 A 
HETATM    5  C5  MIQ B 502       0.916  -6.306 -21.896  1.00139.53     0.031 A 
HETATM    6  C12 MIQ B 502       0.455  -5.577 -20.724  1.00139.38     0.030 A 
HETATM    7  C13 MIQ B 502       0.079  -4.211 -20.842  1.00141.18     0.019 A 
HETATM    8  C14 MIQ B 502       0.158  -3.527 -22.162  1.00138.77     0.033 A 
HETATM    9  C15 MIQ B 502      -0.156  -2.082 -22.671  1.00142.10     0.195 A 
HETATM   10  N17 MIQ B 502       0.118  -2.084 -23.965  1.00139.42    -0.288 N 
HETATM   11  O16 MIQ B 502      -0.630  -1.012 -21.910  1.00148.93    -0.171 OA
ENDROOT
BRANCH  10  12
HETATM   12  C18 MIQ B 502      -0.072  -0.898 -24.781  1.00139.82     0.187 C 
HETATM   13  C19 MIQ B 502       0.662   0.262 -24.097  1.00140.06     0.247 C 
HETATM   14  O25 MIQ B 502       1.789   0.123 -23.779  1.00143.95    -0.271 OA
HETATM   15  N20 MIQ B 502       0.011   1.529 -23.837  1.00140.02    -0.296 N 
HETATM   16  H13 MIQ B 502       0.500   2.277 -23.384  1.00142.77     0.171 HD
HETATM   17  C21 MIQ B 502      -1.368   1.672 -24.225  1.00142.22     0.224 C 
HETATM   18  C22 MIQ B 502      -2.234   0.430 -24.133  1.00139.52     0.106 C 
HETATM   19  O24 MIQ B 502      -1.801   2.705 -24.602  1.00146.13    -0.273 OA
HETATM   20  C23 MIQ B 502      -1.561  -0.629 -24.988  1.00139.15     0.045 C 
ENDBRANCH  10  12
BRANCH   5  21
HETATM   21  N6  MIQ B 502       1.291  -7.705 -21.792  1.00140.95    -0.377 N 
HETATM   22  C7  MIQ B 502       0.941  -8.429 -20.582  1.00142.12     0.149 C 
HETATM   23  C8  MIQ B 502       1.892  -9.590 -20.319  1.00144.10     0.187 C 
HETATM   24  O9  MIQ B 502       2.106 -10.383 -21.449  1.00148.65    -0.388 OA
HETATM   25  C10 MIQ B 502       1.657  -9.964 -22.703  1.00147.44     0.187 C 
HETATM   26  C11 MIQ B 502       1.589  -8.468 -22.992  1.00144.08     0.149 C 
ENDBRANCH   5  21
TORSDOF 2
ENDMDL
