MODEL 1
REMARK VINA RESULT:      -5.9      0.000      0.000
REMARK  2 active torsions:
REMARK  status: ('A' for Active; 'I' for Inactive)
REMARK    1  A    between atoms: C5_5  and  N6_21 
REMARK    2  A    between atoms: C18_14  and  N17_19 
ROOT
HETATM    1  O1  MIQ B 502      -6.981 -18.741   9.330  1.00142.91    -0.171 OA
HETATM    2  C2  MIQ B 502      -7.476 -20.037   9.175  1.00141.17     0.195 A 
HETATM    3  C3  MIQ B 502      -7.806 -20.743   7.820  1.00141.71     0.035 A 
HETATM    4  C4  MIQ B 502      -7.712 -20.321   6.403  1.00142.86     0.046 A 
HETATM    5  C5  MIQ B 502      -8.094 -21.208   5.364  1.00139.53     0.031 A 
HETATM    6  C12 MIQ B 502      -8.581 -22.540   5.695  1.00139.38     0.030 A 
HETATM    7  C13 MIQ B 502      -8.670 -22.944   7.054  1.00141.18     0.019 A 
HETATM    8  C14 MIQ B 502      -8.266 -22.010   8.139  1.00138.77     0.033 A 
HETATM    9  C15 MIQ B 502      -8.220 -22.092   9.700  1.00142.10     0.195 A 
HETATM   10  N17 MIQ B 502      -7.759 -20.923  10.114  1.00139.42    -0.288 N 
HETATM   11  O16 MIQ B 502      -8.594 -23.180  10.491  1.00148.93    -0.171 OA
ENDROOT
BRANCH  10  12
HETATM   12  C18 MIQ B 502      -7.597 -20.630  11.526  1.00139.82     0.187 C 
HETATM   13  C19 MIQ B 502      -8.348 -19.327  11.822  1.00140.06     0.247 C 
HETATM   14  O25 MIQ B 502      -9.470 -19.217  11.477  1.00143.95    -0.271 OA
HETATM   15  N20 MIQ B 502      -7.719 -18.225  12.522  1.00140.02    -0.296 N 
HETATM   16  H13 MIQ B 502      -8.219 -17.377  12.704  1.00142.77     0.171 HD
HETATM   17  C21 MIQ B 502      -6.345 -18.378  12.925  1.00142.22     0.224 C 
HETATM   18  C22 MIQ B 502      -5.456 -19.203  12.014  1.00139.52     0.106 C 
HETATM   19  O24 MIQ B 502      -5.935 -17.889  13.919  1.00146.13    -0.273 OA
HETATM   20  C23 MIQ B 502      -6.114 -20.565  11.888  1.00139.15     0.045 C 
ENDBRANCH  10  12
BRANCH   5  21
HETATM   21  N6  MIQ B 502      -8.010 -20.777   3.981  1.00140.95    -0.377 N 
HETATM   22  C7  MIQ B 502      -6.891 -21.235   3.177  1.00142.12     0.149 C 
HETATM   23  C8  MIQ B 502      -6.566 -20.265   2.048  1.00144.10     0.187 C 
HETATM   24  O9  MIQ B 502      -7.695 -19.871   1.329  1.00148.65    -0.388 OA
HETATM   25  C10 MIQ B 502      -8.975 -20.183   1.794  1.00147.44     0.187 C 
HETATM   26  C11 MIQ B 502      -9.198 -20.293   3.299  1.00144.08     0.149 C 
ENDBRANCH   5  21
TORSDOF 2
ENDMDL
MODEL 2
REMARK VINA RESULT:      -5.9     16.283     17.773
REMARK  2 active torsions:
REMARK  status: ('A' for Active; 'I' for Inactive)
REMARK    1  A    between atoms: C5_5  and  N6_21 
REMARK    2  A    between atoms: C18_14  and  N17_19 
ROOT
HETATM    1  O1  MIQ B 502     -22.036 -18.426   4.659  1.00142.91    -0.171 OA
HETATM    2  C2  MIQ B 502     -23.210 -17.774   5.044  1.00141.17     0.195 A 
HETATM    3  C3  MIQ B 502     -23.765 -16.444   4.443  1.00141.71     0.035 A 
HETATM    4  C4  MIQ B 502     -23.289 -15.530   3.377  1.00142.86     0.046 A 
HETATM    5  C5  MIQ B 502     -24.031 -14.369   3.045  1.00139.53     0.031 A 
HETATM    6  C12 MIQ B 502     -25.267 -14.073   3.754  1.00139.38     0.030 A 
HETATM    7  C13 MIQ B 502     -25.725 -14.950   4.775  1.00141.18     0.019 A 
HETATM    8  C14 MIQ B 502     -24.943 -16.169   5.118  1.00138.77     0.033 A 
HETATM    9  C15 MIQ B 502     -25.120 -17.335   6.144  1.00142.10     0.195 A 
HETATM   10  N17 MIQ B 502     -24.080 -18.135   5.971  1.00139.42    -0.288 N 
HETATM   11  O16 MIQ B 502     -26.164 -17.494   7.058  1.00148.93    -0.171 OA
ENDROOT
BRANCH  10  12
HETATM   12  C18 MIQ B 502     -23.902 -19.330   6.774  1.00139.82     0.187 C 
HETATM   13  C19 MIQ B 502     -25.186 -20.162   6.667  1.00140.06     0.247 C 
HETATM   14  O25 MIQ B 502     -25.624 -20.410   5.600  1.00143.95    -0.271 OA
HETATM   15  N20 MIQ B 502     -25.875 -20.658   7.840  1.00140.02    -0.296 N 
HETATM   16  H13 MIQ B 502     -26.716 -21.194   7.757  1.00142.77     0.171 HD
HETATM   17  C21 MIQ B 502     -25.327 -20.334   9.132  1.00142.22     0.224 C 
HETATM   18  C22 MIQ B 502     -24.643 -18.987   9.263  1.00139.52     0.106 C 
HETATM   19  O24 MIQ B 502     -25.404 -21.084  10.042  1.00146.13    -0.273 OA
HETATM   20  C23 MIQ B 502     -23.547 -18.956   8.213  1.00139.15     0.045 C 
ENDBRANCH  10  12
BRANCH   5  21
HETATM   21  N6  MIQ B 502     -23.545 -13.475   2.009  1.00140.95    -0.377 N 
HETATM   22  C7  MIQ B 502     -23.275 -14.021   0.691  1.00142.12     0.149 C 
HETATM   23  C8  MIQ B 502     -22.221 -13.213  -0.055  1.00144.10     0.187 C 
HETATM   24  O9  MIQ B 502     -22.463 -11.838  -0.016  1.00148.65    -0.388 OA
HETATM   25  C10 MIQ B 502     -23.445 -11.316   0.828  1.00147.44     0.187 C 
HETATM   26  C11 MIQ B 502     -23.745 -12.042   2.136  1.00144.08     0.149 C 
ENDBRANCH   5  21
TORSDOF 2
ENDMDL
MODEL 3
REMARK VINA RESULT:      -5.9     17.633     18.731
REMARK  2 active torsions:
REMARK  status: ('A' for Active; 'I' for Inactive)
REMARK    1  A    between atoms: C5_5  and  N6_21 
REMARK    2  A    between atoms: C18_14  and  N17_19 
ROOT
HETATM    1  O1  MIQ B 502     -24.355 -20.120  10.346  1.00142.91    -0.171 OA
HETATM    2  C2  MIQ B 502     -25.363 -19.298   9.836  1.00141.17     0.195 A 
HETATM    3  C3  MIQ B 502     -25.358 -18.590   8.444  1.00141.71     0.035 A 
HETATM    4  C4  MIQ B 502     -24.392 -18.557   7.320  1.00142.86     0.046 A 
HETATM    5  C5  MIQ B 502     -24.676 -17.804   6.153  1.00139.53     0.031 A 
HETATM    6  C12 MIQ B 502     -25.923 -17.060   6.058  1.00139.38     0.030 A 
HETATM    7  C13 MIQ B 502     -26.850 -17.092   7.135  1.00141.18     0.019 A 
HETATM    8  C14 MIQ B 502     -26.548 -17.886   8.357  1.00138.77     0.033 A 
HETATM    9  C15 MIQ B 502     -27.296 -18.160   9.703  1.00142.10     0.195 A 
HETATM   10  N17 MIQ B 502     -26.507 -18.958  10.403  1.00139.42    -0.288 N 
HETATM   11  O16 MIQ B 502     -28.542 -17.658  10.083  1.00148.93    -0.171 OA
ENDROOT
BRANCH  10  12
HETATM   12  C18 MIQ B 502     -26.877 -19.413  11.731  1.00139.82     0.187 C 
HETATM   13  C19 MIQ B 502     -28.244 -20.100  11.626  1.00140.06     0.247 C 
HETATM   14  O25 MIQ B 502     -28.407 -20.938  10.812  1.00143.95    -0.271 OA
HETATM   15  N20 MIQ B 502     -29.342 -19.752  12.504  1.00140.02    -0.296 N 
HETATM   16  H13 MIQ B 502     -30.232 -20.203  12.421  1.00142.77     0.171 HD
HETATM   17  C21 MIQ B 502     -29.122 -18.719  13.483  1.00142.22     0.224 C 
HETATM   18  C22 MIQ B 502     -28.184 -17.595  13.087  1.00139.52     0.106 C 
HETATM   19  O24 MIQ B 502     -29.644 -18.750  14.543  1.00146.13    -0.273 OA
HETATM   20  C23 MIQ B 502     -26.864 -18.245  12.716  1.00139.15     0.045 C 
ENDBRANCH  10  12
BRANCH   5  21
HETATM   21  N6  MIQ B 502     -23.714 -17.770   5.066  1.00140.95    -0.377 N 
HETATM   22  C7  MIQ B 502     -23.768 -16.663   4.126  1.00142.12     0.149 C 
HETATM   23  C8  MIQ B 502     -23.208 -17.048   2.763  1.00144.10     0.187 C 
HETATM   24  O9  MIQ B 502     -21.977 -17.701   2.845  1.00148.65    -0.388 OA
HETATM   25  C10 MIQ B 502     -21.486 -18.133   4.080  1.00147.44     0.187 C 
HETATM   26  C11 MIQ B 502     -22.484 -18.536   5.161  1.00144.08     0.149 C 
ENDBRANCH   5  21
TORSDOF 2
ENDMDL
MODEL 4
REMARK VINA RESULT:      -5.8     18.600     20.936
REMARK  2 active torsions:
REMARK  status: ('A' for Active; 'I' for Inactive)
REMARK    1  A    between atoms: C5_5  and  N6_21 
REMARK    2  A    between atoms: C18_14  and  N17_19 
ROOT
HETATM    1  O1  MIQ B 502     -25.984 -20.953  10.293  1.00142.91    -0.171 OA
HETATM    2  C2  MIQ B 502     -26.293 -19.735   9.683  1.00141.17     0.195 A 
HETATM    3  C3  MIQ B 502     -26.963 -18.504  10.371  1.00141.71     0.035 A 
HETATM    4  C4  MIQ B 502     -27.442 -18.242  11.750  1.00142.86     0.046 A 
HETATM    5  C5  MIQ B 502     -28.022 -16.991  12.082  1.00139.53     0.031 A 
HETATM    6  C12 MIQ B 502     -28.146 -15.959  11.062  1.00139.38     0.030 A 
HETATM    7  C13 MIQ B 502     -27.686 -16.209   9.741  1.00141.18     0.019 A 
HETATM    8  C14 MIQ B 502     -27.076 -17.523   9.399  1.00138.77     0.033 A 
HETATM    9  C15 MIQ B 502     -26.472 -18.149   8.100  1.00142.10     0.195 A 
HETATM   10  N17 MIQ B 502     -26.084 -19.370   8.430  1.00139.42    -0.288 N 
HETATM   11  O16 MIQ B 502     -26.367 -17.540   6.849  1.00148.93    -0.171 OA
ENDROOT
BRANCH  10  12
HETATM   12  C18 MIQ B 502     -25.482 -20.263   7.457  1.00139.82     0.187 C 
HETATM   13  C19 MIQ B 502     -24.316 -19.517   6.796  1.00140.06     0.247 C 
HETATM   14  O25 MIQ B 502     -23.506 -18.997   7.477  1.00143.95    -0.271 OA
HETATM   15  N20 MIQ B 502     -24.179 -19.436   5.356  1.00140.02    -0.296 N 
HETATM   16  H13 MIQ B 502     -23.417 -18.941   4.937  1.00142.77     0.171 HD
HETATM   17  C21 MIQ B 502     -25.187 -20.070   4.546  1.00142.22     0.224 C 
HETATM   18  C22 MIQ B 502     -26.600 -20.073   5.096  1.00139.52     0.106 C 
HETATM   19  O24 MIQ B 502     -24.922 -20.567   3.507  1.00146.13    -0.273 OA
HETATM   20  C23 MIQ B 502     -26.532 -20.744   6.456  1.00139.15     0.045 C 
ENDBRANCH  10  12
BRANCH   5  21
HETATM   21  N6  MIQ B 502     -28.500 -16.754  13.431  1.00140.95    -0.377 N 
HETATM   22  C7  MIQ B 502     -29.203 -17.824  14.118  1.00142.12     0.149 C 
HETATM   23  C8  MIQ B 502     -30.167 -17.289  15.169  1.00144.10     0.187 C 
HETATM   24  O9  MIQ B 502     -29.587 -16.328  15.999  1.00148.65    -0.388 OA
HETATM   25  C10 MIQ B 502     -28.333 -15.792  15.693  1.00147.44     0.187 C 
HETATM   26  C11 MIQ B 502     -27.924 -15.684  14.228  1.00144.08     0.149 C 
ENDBRANCH   5  21
TORSDOF 2
ENDMDL
MODEL 5
REMARK VINA RESULT:      -5.8     17.925     18.991
REMARK  2 active torsions:
REMARK  status: ('A' for Active; 'I' for Inactive)
REMARK    1  A    between atoms: C5_5  and  N6_21 
REMARK    2  A    between atoms: C18_14  and  N17_19 
ROOT
HETATM    1  O1  MIQ B 502     -28.795 -17.658   7.889  1.00142.91    -0.171 OA
HETATM    2  C2  MIQ B 502     -27.686 -18.101   8.613  1.00141.17     0.195 A 
HETATM    3  C3  MIQ B 502     -26.223 -18.219   8.079  1.00141.71     0.035 A 
HETATM    4  C4  MIQ B 502     -25.590 -17.929   6.771  1.00142.86     0.046 A 
HETATM    5  C5  MIQ B 502     -24.200 -18.141   6.584  1.00139.53     0.031 A 
HETATM    6  C12 MIQ B 502     -23.393 -18.646   7.685  1.00139.38     0.030 A 
HETATM    7  C13 MIQ B 502     -23.999 -18.923   8.940  1.00141.18     0.019 A 
HETATM    8  C14 MIQ B 502     -25.458 -18.696   9.130  1.00138.77     0.033 A 
HETATM    9  C15 MIQ B 502     -26.452 -18.875  10.325  1.00142.10     0.195 A 
HETATM   10  N17 MIQ B 502     -27.637 -18.501   9.872  1.00139.42    -0.288 N 
HETATM   11  O16 MIQ B 502     -26.145 -19.339  11.605  1.00148.93    -0.171 OA
ENDROOT
BRANCH  10  12
HETATM   12  C18 MIQ B 502     -28.818 -18.549  10.714  1.00139.82     0.187 C 
HETATM   13  C19 MIQ B 502     -28.522 -17.740  11.982  1.00140.06     0.247 C 
HETATM   14  O25 MIQ B 502     -28.099 -16.643  11.881  1.00143.95    -0.271 OA
HETATM   15  N20 MIQ B 502     -28.754 -18.282  13.306  1.00140.02    -0.296 N 
HETATM   16  H13 MIQ B 502     -28.550 -17.746  14.126  1.00142.77     0.171 HD
HETATM   17  C21 MIQ B 502     -29.261 -19.626  13.404  1.00142.22     0.224 C 
HETATM   18  C22 MIQ B 502     -28.811 -20.604  12.336  1.00139.52     0.106 C 
HETATM   19  O24 MIQ B 502     -29.996 -19.947  14.273  1.00146.13    -0.273 OA
HETATM   20  C23 MIQ B 502     -29.207 -19.998  11.002  1.00139.15     0.045 C 
ENDBRANCH  10  12
BRANCH   5  21
HETATM   21  N6  MIQ B 502     -23.596 -17.867   5.294  1.00140.95    -0.377 N 
HETATM   22  C7  MIQ B 502     -24.058 -16.713   4.541  1.00142.12     0.149 C 
HETATM   23  C8  MIQ B 502     -23.858 -16.894   3.042  1.00144.10     0.187 C 
HETATM   24  O9  MIQ B 502     -22.577 -17.346   2.716  1.00148.65    -0.388 OA
HETATM   25  C10 MIQ B 502     -21.707 -17.789   3.715  1.00147.44     0.187 C 
HETATM   26  C11 MIQ B 502     -22.298 -18.431   4.966  1.00144.08     0.149 C 
ENDBRANCH   5  21
TORSDOF 2
ENDMDL
MODEL 6
REMARK VINA RESULT:      -5.7     17.830     20.108
REMARK  2 active torsions:
REMARK  status: ('A' for Active; 'I' for Inactive)
REMARK    1  A    between atoms: C5_5  and  N6_21 
REMARK    2  A    between atoms: C18_14  and  N17_19 
ROOT
HETATM    1  O1  MIQ B 502     -27.364 -16.386   6.913  1.00142.91    -0.171 OA
HETATM    2  C2  MIQ B 502     -26.562 -17.422   7.396  1.00141.17     0.195 A 
HETATM    3  C3  MIQ B 502     -26.560 -17.986   8.853  1.00141.71     0.035 A 
HETATM    4  C4  MIQ B 502     -27.326 -17.649  10.076  1.00142.86     0.046 A 
HETATM    5  C5  MIQ B 502     -27.098 -18.358  11.282  1.00139.53     0.031 A 
HETATM    6  C12 MIQ B 502     -26.105 -19.422  11.318  1.00139.38     0.030 A 
HETATM    7  C13 MIQ B 502     -25.370 -19.745  10.145  1.00141.18     0.019 A 
HETATM    8  C14 MIQ B 502     -25.617 -19.000   8.881  1.00138.77     0.033 A 
HETATM    9  C15 MIQ B 502     -25.030 -19.067   7.433  1.00142.10     0.195 A 
HETATM   10  N17 MIQ B 502     -25.660 -18.133   6.740  1.00139.42    -0.288 N 
HETATM   11  O16 MIQ B 502     -24.039 -19.936   6.972  1.00148.93    -0.171 OA
ENDROOT
BRANCH  10  12
HETATM   12  C18 MIQ B 502     -25.357 -17.894   5.341  1.00139.82     0.187 C 
HETATM   13  C19 MIQ B 502     -25.438 -19.239   4.609  1.00140.06     0.247 C 
HETATM   14  O25 MIQ B 502     -26.398 -19.911   4.743  1.00143.95    -0.271 OA
HETATM   15  N20 MIQ B 502     -24.369 -19.707   3.750  1.00140.02    -0.296 N 
HETATM   16  H13 MIQ B 502     -24.431 -20.590   3.283  1.00142.77     0.171 HD
HETATM   17  C21 MIQ B 502     -23.202 -18.873   3.611  1.00142.22     0.224 C 
HETATM   18  C22 MIQ B 502     -22.795 -18.063   4.826  1.00139.52     0.106 C 
HETATM   19  O24 MIQ B 502     -22.598 -18.822   2.597  1.00146.13    -0.273 OA
HETATM   20  C23 MIQ B 502     -23.997 -17.214   5.200  1.00139.15     0.045 C 
ENDBRANCH  10  12
BRANCH   5  21
HETATM   21  N6  MIQ B 502     -27.845 -18.008  12.477  1.00140.95    -0.377 N 
HETATM   22  C7  MIQ B 502     -27.993 -16.604  12.817  1.00142.12     0.149 C 
HETATM   23  C8  MIQ B 502     -28.191 -16.398  14.313  1.00144.10     0.187 C 
HETATM   24  O9  MIQ B 502     -29.156 -17.249  14.855  1.00148.65    -0.388 OA
HETATM   25  C10 MIQ B 502     -29.672 -18.306  14.101  1.00147.44     0.187 C 
HETATM   26  C11 MIQ B 502     -28.776 -18.961  13.055  1.00144.08     0.149 C 
ENDBRANCH   5  21
TORSDOF 2
ENDMDL
MODEL 7
REMARK VINA RESULT:      -5.7     18.263     21.033
REMARK  2 active torsions:
REMARK  status: ('A' for Active; 'I' for Inactive)
REMARK    1  A    between atoms: C5_5  and  N6_21 
REMARK    2  A    between atoms: C18_14  and  N17_19 
ROOT
HETATM    1  O1  MIQ B 502     -19.631  -7.377   0.418  1.00142.91    -0.171 OA
HETATM    2  C2  MIQ B 502     -20.973  -7.281   0.043  1.00141.17     0.195 A 
HETATM    3  C3  MIQ B 502     -22.037  -8.422   0.125  1.00141.71     0.035 A 
HETATM    4  C4  MIQ B 502     -21.987  -9.831   0.582  1.00142.86     0.046 A 
HETATM    5  C5  MIQ B 502     -23.149 -10.641   0.537  1.00139.53     0.031 A 
HETATM    6  C12 MIQ B 502     -24.399 -10.084   0.039  1.00139.38     0.030 A 
HETATM    7  C13 MIQ B 502     -24.447  -8.733  -0.399  1.00141.18     0.019 A 
HETATM    8  C14 MIQ B 502     -23.224  -7.887  -0.346  1.00138.77     0.033 A 
HETATM    9  C15 MIQ B 502     -22.896  -6.405  -0.723  1.00142.10     0.195 A 
HETATM   10  N17 MIQ B 502     -21.614  -6.233  -0.445  1.00139.42    -0.288 N 
HETATM   11  O16 MIQ B 502     -23.779  -5.461  -1.249  1.00148.93    -0.171 OA
ENDROOT
BRANCH  10  12
HETATM   12  C18 MIQ B 502     -20.950  -4.966  -0.686  1.00139.82     0.187 C 
HETATM   13  C19 MIQ B 502     -19.729  -5.238  -1.572  1.00140.06     0.247 C 
HETATM   14  O25 MIQ B 502     -19.865  -5.859  -2.566  1.00143.95    -0.271 OA
HETATM   15  N20 MIQ B 502     -18.410  -4.748  -1.227  1.00140.02    -0.296 N 
HETATM   16  H13 MIQ B 502     -17.619  -4.939  -1.810  1.00142.77     0.171 HD
HETATM   17  C21 MIQ B 502     -18.267  -4.001  -0.003  1.00142.22     0.224 C 
HETATM   18  C22 MIQ B 502     -19.168  -4.402   1.148  1.00139.52     0.106 C 
HETATM   19  O24 MIQ B 502     -17.488  -3.117   0.093  1.00146.13    -0.273 OA
HETATM   20  C23 MIQ B 502     -20.594  -4.292   0.639  1.00139.15     0.045 C 
ENDBRANCH  10  12
BRANCH   5  21
HETATM   21  N6  MIQ B 502     -23.082 -12.024   0.974  1.00140.95    -0.377 N 
HETATM   22  C7  MIQ B 502     -22.500 -13.008   0.078  1.00142.12     0.149 C 
HETATM   23  C8  MIQ B 502     -23.050 -14.405   0.333  1.00144.10     0.187 C 
HETATM   24  O9  MIQ B 502     -23.045 -14.753   1.686  1.00148.65    -0.388 OA
HETATM   25  C10 MIQ B 502     -22.775 -13.791   2.662  1.00147.44     0.187 C 
HETATM   26  C11 MIQ B 502     -23.168 -12.343   2.388  1.00144.08     0.149 C 
ENDBRANCH   5  21
TORSDOF 2
ENDMDL
MODEL 8
REMARK VINA RESULT:      -5.6     19.638     21.301
REMARK  2 active torsions:
REMARK  status: ('A' for Active; 'I' for Inactive)
REMARK    1  A    between atoms: C5_5  and  N6_21 
REMARK    2  A    between atoms: C18_14  and  N17_19 
ROOT
HETATM    1  O1  MIQ B 502     -27.509 -18.135  12.954  1.00142.91    -0.171 OA
HETATM    2  C2  MIQ B 502     -27.497 -17.997  11.565  1.00141.17     0.195 A 
HETATM    3  C3  MIQ B 502     -27.662 -16.663  10.769  1.00141.71     0.035 A 
HETATM    4  C4  MIQ B 502     -27.860 -15.252  11.175  1.00142.86     0.046 A 
HETATM    5  C5  MIQ B 502     -27.976 -14.233  10.196  1.00139.53     0.031 A 
HETATM    6  C12 MIQ B 502     -27.901 -14.577   8.783  1.00139.38     0.030 A 
HETATM    7  C13 MIQ B 502     -27.710 -15.930   8.393  1.00141.18     0.019 A 
HETATM    8  C14 MIQ B 502     -27.586 -16.995   9.426  1.00138.77     0.033 A 
HETATM    9  C15 MIQ B 502     -27.372 -18.543   9.388  1.00142.10     0.195 A 
HETATM   10  N17 MIQ B 502     -27.344 -18.939  10.650  1.00139.42    -0.288 N 
HETATM   11  O16 MIQ B 502     -27.241 -19.341   8.250  1.00148.93    -0.171 OA
ENDROOT
BRANCH  10  12
HETATM   12  C18 MIQ B 502     -27.176 -20.337  11.002  1.00139.82     0.187 C 
HETATM   13  C19 MIQ B 502     -25.937 -20.859  10.263  1.00140.06     0.247 C 
HETATM   14  O25 MIQ B 502     -24.924 -20.260  10.342  1.00143.95    -0.271 OA
HETATM   15  N20 MIQ B 502     -25.974 -22.073   9.474  1.00140.02    -0.296 N 
HETATM   16  H13 MIQ B 502     -25.160 -22.400   8.991  1.00142.77     0.171 HD
HETATM   17  C21 MIQ B 502     -27.225 -22.781   9.384  1.00142.22     0.224 C 
HETATM   18  C22 MIQ B 502     -28.487 -21.940   9.400  1.00139.52     0.106 C 
HETATM   19  O24 MIQ B 502     -27.264 -23.960   9.308  1.00146.13    -0.273 OA
HETATM   20  C23 MIQ B 502     -28.445 -21.123  10.678  1.00139.15     0.045 C 
ENDBRANCH  10  12
BRANCH   5  21
HETATM   21  N6  MIQ B 502     -28.185 -12.857  10.608  1.00140.95    -0.377 N 
HETATM   22  C7  MIQ B 502     -28.049 -12.526  12.016  1.00142.12     0.149 C 
HETATM   23  C8  MIQ B 502     -28.881 -11.307  12.396  1.00144.10     0.187 C 
HETATM   24  O9  MIQ B 502     -28.714 -10.239  11.512  1.00148.65    -0.388 OA
HETATM   25  C10 MIQ B 502     -28.031 -10.417  10.306  1.00147.44     0.187 C 
HETATM   26  C11 MIQ B 502     -28.085 -11.785   9.633  1.00144.08     0.149 C 
ENDBRANCH   5  21
TORSDOF 2
ENDMDL
MODEL 9
REMARK VINA RESULT:      -5.6     19.508     20.835
REMARK  2 active torsions:
REMARK  status: ('A' for Active; 'I' for Inactive)
REMARK    1  A    between atoms: C5_5  and  N6_21 
REMARK    2  A    between atoms: C18_14  and  N17_19 
ROOT
HETATM    1  O1  MIQ B 502     -27.135 -19.092   8.205  1.00142.91    -0.171 OA
HETATM    2  C2  MIQ B 502     -27.326 -18.358   9.378  1.00141.17     0.195 A 
HETATM    3  C3  MIQ B 502     -27.564 -16.818   9.474  1.00141.71     0.035 A 
HETATM    4  C4  MIQ B 502     -27.660 -15.737   8.464  1.00142.86     0.046 A 
HETATM    5  C5  MIQ B 502     -27.891 -14.397   8.868  1.00139.53     0.031 A 
HETATM    6  C12 MIQ B 502     -28.034 -14.083  10.282  1.00139.38     0.030 A 
HETATM    7  C13 MIQ B 502     -27.942 -15.119  11.250  1.00141.18     0.019 A 
HETATM    8  C14 MIQ B 502     -27.703 -16.524  10.820  1.00138.77     0.033 A 
HETATM    9  C15 MIQ B 502     -27.551 -17.891  11.565  1.00142.10     0.195 A 
HETATM   10  N17 MIQ B 502     -27.351 -18.799  10.624  1.00139.42    -0.288 N 
HETATM   11  O16 MIQ B 502     -27.611 -18.102  12.944  1.00148.93    -0.171 OA
ENDROOT
BRANCH  10  12
HETATM   12  C18 MIQ B 502     -27.149 -20.198  10.953  1.00139.82     0.187 C 
HETATM   13  C19 MIQ B 502     -25.887 -20.673  10.221  1.00140.06     0.247 C 
HETATM   14  O25 MIQ B 502     -24.892 -20.048  10.325  1.00143.95    -0.271 OA
HETATM   15  N20 MIQ B 502     -25.881 -21.872   9.410  1.00140.02    -0.296 N 
HETATM   16  H13 MIQ B 502     -25.053 -22.168   8.932  1.00142.77     0.171 HD
HETATM   17  C21 MIQ B 502     -27.111 -22.612   9.290  1.00142.22     0.224 C 
HETATM   18  C22 MIQ B 502     -28.395 -21.806   9.305  1.00139.52     0.106 C 
HETATM   19  O24 MIQ B 502     -27.117 -23.790   9.192  1.00146.13    -0.273 OA
HETATM   20  C23 MIQ B 502     -28.392 -21.012  10.598  1.00139.15     0.045 C 
ENDBRANCH  10  12
BRANCH   5  21
HETATM   21  N6  MIQ B 502     -27.968 -13.347   7.869  1.00140.95    -0.377 N 
HETATM   22  C7  MIQ B 502     -27.977 -11.964   8.315  1.00142.12     0.149 C 
HETATM   23  C8  MIQ B 502     -28.683 -11.050   7.321  1.00144.10     0.187 C 
HETATM   24  O9  MIQ B 502     -28.261 -11.251   6.005  1.00148.65    -0.388 OA
HETATM   25  C10 MIQ B 502     -27.455 -12.344   5.678  1.00147.44     0.187 C 
HETATM   26  C11 MIQ B 502     -27.600 -13.626   6.492  1.00144.08     0.149 C 
ENDBRANCH   5  21
TORSDOF 2
ENDMDL
