MODEL 1
REMARK VINA RESULT:      -7.4      0.000      0.000
REMARK  2 active torsions:
REMARK  status: ('A' for Active; 'I' for Inactive)
REMARK    1  A    between atoms: C5_5  and  N6_21 
REMARK    2  A    between atoms: C18_14  and  N17_19 
ROOT
HETATM    1  O1  MIQ B 502       7.914   0.820 -28.705  1.00142.91    -0.171 OA
HETATM    2  C2  MIQ B 502       6.601   1.036 -28.281  1.00141.17     0.195 A 
HETATM    3  C3  MIQ B 502       5.495   1.810 -29.066  1.00141.71     0.035 A 
HETATM    4  C4  MIQ B 502       5.468   2.495 -30.380  1.00142.86     0.046 A 
HETATM    5  C5  MIQ B 502       4.282   3.124 -30.837  1.00139.53     0.031 A 
HETATM    6  C12 MIQ B 502       3.084   3.095 -30.009  1.00139.38     0.030 A 
HETATM    7  C13 MIQ B 502       3.109   2.437 -28.750  1.00141.18     0.019 A 
HETATM    8  C14 MIQ B 502       4.357   1.777 -28.277  1.00138.77     0.033 A 
HETATM    9  C15 MIQ B 502       4.759   0.978 -26.995  1.00142.10     0.195 A 
HETATM   10  N17 MIQ B 502       6.027   0.640 -27.158  1.00139.42    -0.288 N 
HETATM   11  O16 MIQ B 502       3.942   0.686 -25.901  1.00148.93    -0.171 OA
ENDROOT
BRANCH  10  12
HETATM   12  C18 MIQ B 502       6.749  -0.108 -26.145  1.00139.82     0.187 C 
HETATM   13  C19 MIQ B 502       5.870  -1.292 -25.723  1.00140.06     0.247 C 
HETATM   14  O25 MIQ B 502       5.419  -1.998 -26.553  1.00143.95    -0.271 OA
HETATM   15  N20 MIQ B 502       5.583  -1.573 -24.332  1.00140.02    -0.296 N 
HETATM   16  H13 MIQ B 502       5.003  -2.345 -24.070  1.00142.77     0.171 HD
HETATM   17  C21 MIQ B 502       6.137  -0.690 -23.337  1.00142.22     0.224 C 
HETATM   18  C22 MIQ B 502       6.275   0.770 -23.723  1.00139.52     0.106 C 
HETATM   19  O24 MIQ B 502       6.471  -1.088 -22.276  1.00146.13    -0.273 OA
HETATM   20  C23 MIQ B 502       7.126   0.805 -24.979  1.00139.15     0.045 C 
ENDBRANCH  10  12
BRANCH   5  21
HETATM   21  N6  MIQ B 502       4.274   3.804 -32.119  1.00140.95    -0.377 N 
HETATM   22  C7  MIQ B 502       4.770   5.168 -32.185  1.00142.12     0.149 C 
HETATM   23  C8  MIQ B 502       4.141   5.947 -33.333  1.00144.10     0.187 C 
HETATM   24  O9  MIQ B 502       4.160   5.246 -34.540  1.00148.65    -0.388 OA
HETATM   25  C10 MIQ B 502       4.515   3.895 -34.569  1.00147.44     0.187 C 
HETATM   26  C11 MIQ B 502       4.206   3.034 -33.349  1.00144.08     0.149 C 
ENDBRANCH   5  21
TORSDOF 2
ENDMDL
MODEL 2
REMARK VINA RESULT:      -7.1     19.856     22.659
REMARK  2 active torsions:
REMARK  status: ('A' for Active; 'I' for Inactive)
REMARK    1  A    between atoms: C5_5  and  N6_21 
REMARK    2  A    between atoms: C18_14  and  N17_19 
ROOT
HETATM    1  O1  MIQ B 502       6.860  11.785  -7.743  1.00142.91    -0.171 OA
HETATM    2  C2  MIQ B 502       7.360  11.630  -9.038  1.00141.17     0.195 A 
HETATM    3  C3  MIQ B 502       8.243  10.448  -9.550  1.00141.71     0.035 A 
HETATM    4  C4  MIQ B 502       8.784   9.227  -8.907  1.00142.86     0.046 A 
HETATM    5  C5  MIQ B 502       9.574   8.315  -9.652  1.00139.53     0.031 A 
HETATM    6  C12 MIQ B 502       9.854   8.580 -11.056  1.00139.38     0.030 A 
HETATM    7  C13 MIQ B 502       9.334   9.750 -11.673  1.00141.18     0.019 A 
HETATM    8  C14 MIQ B 502       8.504  10.703 -10.887  1.00138.77     0.033 A 
HETATM    9  C15 MIQ B 502       7.777  12.050 -11.206  1.00142.10     0.195 A 
HETATM   10  N17 MIQ B 502       7.193  12.426 -10.080  1.00139.42    -0.288 N 
HETATM   11  O16 MIQ B 502       7.756  12.718 -12.432  1.00148.93    -0.171 OA
ENDROOT
BRANCH  10  12
HETATM   12  C18 MIQ B 502       6.431  13.658  -9.997  1.00139.82     0.187 C 
HETATM   13  C19 MIQ B 502       6.939  14.441  -8.780  1.00140.06     0.247 C 
HETATM   14  O25 MIQ B 502       8.097  14.631  -8.660  1.00143.95    -0.271 OA
HETATM   15  N20 MIQ B 502       6.035  14.961  -7.775  1.00140.02    -0.296 N 
HETATM   16  H13 MIQ B 502       6.380  15.464  -6.982  1.00142.77     0.171 HD
HETATM   17  C21 MIQ B 502       4.627  14.707  -7.938  1.00142.22     0.224 C 
HETATM   18  C22 MIQ B 502       4.242  13.390  -8.585  1.00139.52     0.106 C 
HETATM   19  O24 MIQ B 502       3.813  15.490  -7.590  1.00146.13    -0.273 OA
HETATM   20  C23 MIQ B 502       4.935  13.354  -9.935  1.00139.15     0.045 C 
ENDBRANCH  10  12
BRANCH   5  21
HETATM   21  N6  MIQ B 502      10.110   7.131  -9.005  1.00140.95    -0.377 N 
HETATM   22  C7  MIQ B 502      11.553   6.974  -8.928  1.00142.12     0.149 C 
HETATM   23  C8  MIQ B 502      11.962   5.509  -8.847  1.00144.10     0.187 C 
HETATM   24  O9  MIQ B 502      11.232   4.794  -7.896  1.00148.65    -0.388 OA
HETATM   25  C10 MIQ B 502      10.108   5.362  -7.292  1.00147.44     0.187 C 
HETATM   26  C11 MIQ B 502       9.283   6.368  -8.087  1.00144.08     0.149 C 
ENDBRANCH   5  21
TORSDOF 2
ENDMDL
MODEL 3
REMARK VINA RESULT:      -7.1     20.450     21.763
REMARK  2 active torsions:
REMARK  status: ('A' for Active; 'I' for Inactive)
REMARK    1  A    between atoms: C5_5  and  N6_21 
REMARK    2  A    between atoms: C18_14  and  N17_19 
ROOT
HETATM    1  O1  MIQ B 502      -7.575  14.849 -14.240  1.00142.91    -0.171 OA
HETATM    2  C2  MIQ B 502      -7.695  13.508 -14.610  1.00141.17     0.195 A 
HETATM    3  C3  MIQ B 502      -7.639  12.944 -16.065  1.00141.71     0.035 A 
HETATM    4  C4  MIQ B 502      -7.456  13.572 -17.395  1.00142.86     0.046 A 
HETATM    5  C5  MIQ B 502      -7.448  12.777 -18.569  1.00139.53     0.031 A 
HETATM    6  C12 MIQ B 502      -7.620  11.335 -18.465  1.00139.38     0.030 A 
HETATM    7  C13 MIQ B 502      -7.794  10.732 -17.191  1.00141.18     0.019 A 
HETATM    8  C14 MIQ B 502      -7.799  11.572 -15.962  1.00138.77     0.033 A 
HETATM    9  C15 MIQ B 502      -7.955  11.282 -14.433  1.00142.10     0.195 A 
HETATM   10  N17 MIQ B 502      -7.872  12.456 -13.829  1.00139.42    -0.288 N 
HETATM   11  O16 MIQ B 502      -8.147  10.036 -13.834  1.00148.93    -0.171 OA
ENDROOT
BRANCH  10  12
HETATM   12  C18 MIQ B 502      -7.991  12.576 -12.388  1.00139.82     0.187 C 
HETATM   13  C19 MIQ B 502      -9.033  13.662 -12.093  1.00140.06     0.247 C 
HETATM   14  O25 MIQ B 502     -10.088  13.606 -12.619  1.00143.95    -0.271 OA
HETATM   15  N20 MIQ B 502      -8.761  14.754 -11.181  1.00140.02    -0.296 N 
HETATM   16  H13 MIQ B 502      -9.448  15.460 -11.002  1.00142.77     0.171 HD
HETATM   17  C21 MIQ B 502      -7.463  14.806 -10.560  1.00142.22     0.224 C 
HETATM   18  C22 MIQ B 502      -6.294  14.297 -11.380  1.00139.52     0.106 C 
HETATM   19  O24 MIQ B 502      -7.320  15.221  -9.462  1.00146.13    -0.273 OA
HETATM   20  C23 MIQ B 502      -6.627  12.867 -11.764  1.00139.15     0.045 C 
ENDBRANCH  10  12
BRANCH   5  21
HETATM   21  N6  MIQ B 502      -7.283  13.407 -19.866  1.00140.95    -0.377 N 
HETATM   22  C7  MIQ B 502      -8.332  13.243 -20.857  1.00142.12     0.149 C 
HETATM   23  C8  MIQ B 502      -7.797  13.362 -22.278  1.00144.10     0.187 C 
HETATM   24  O9  MIQ B 502      -6.976  14.477 -22.457  1.00148.65    -0.388 OA
HETATM   25  C10 MIQ B 502      -6.544  15.223 -21.358  1.00147.44     0.187 C 
HETATM   26  C11 MIQ B 502      -6.351  14.510 -20.023  1.00144.08     0.149 C 
ENDBRANCH   5  21
TORSDOF 2
ENDMDL
MODEL 4
REMARK VINA RESULT:      -6.8     20.475     23.341
REMARK  2 active torsions:
REMARK  status: ('A' for Active; 'I' for Inactive)
REMARK    1  A    between atoms: C5_5  and  N6_21 
REMARK    2  A    between atoms: C18_14  and  N17_19 
ROOT
HETATM    1  O1  MIQ B 502       8.721  12.856  -7.361  1.00142.91    -0.171 OA
HETATM    2  C2  MIQ B 502       7.833  12.196  -8.213  1.00141.17     0.195 A 
HETATM    3  C3  MIQ B 502       7.953  10.719  -8.707  1.00141.71     0.035 A 
HETATM    4  C4  MIQ B 502       8.939   9.640  -8.461  1.00142.86     0.046 A 
HETATM    5  C5  MIQ B 502       8.774   8.368  -9.065  1.00139.53     0.031 A 
HETATM    6  C12 MIQ B 502       7.629   8.122  -9.931  1.00139.38     0.030 A 
HETATM    7  C13 MIQ B 502       6.684   9.156 -10.166  1.00141.18     0.019 A 
HETATM    8  C14 MIQ B 502       6.861  10.489  -9.527  1.00138.77     0.033 A 
HETATM    9  C15 MIQ B 502       6.057  11.830  -9.542  1.00142.10     0.195 A 
HETATM   10  N17 MIQ B 502       6.728  12.666  -8.766  1.00139.42    -0.288 N 
HETATM   11  O16 MIQ B 502       4.875  12.088 -10.238  1.00148.93    -0.171 OA
ENDROOT
BRANCH  10  12
HETATM   12  C18 MIQ B 502       6.278  14.029  -8.555  1.00139.82     0.187 C 
HETATM   13  C19 MIQ B 502       7.455  14.963  -8.864  1.00140.06     0.247 C 
HETATM   14  O25 MIQ B 502       8.033  14.843  -9.886  1.00143.95    -0.271 OA
HETATM   15  N20 MIQ B 502       7.875  15.994  -7.938  1.00140.02    -0.296 N 
HETATM   16  H13 MIQ B 502       8.649  16.593  -8.149  1.00142.77     0.171 HD
HETATM   17  C21 MIQ B 502       7.161  16.115  -6.693  1.00142.22     0.224 C 
HETATM   18  C22 MIQ B 502       6.627  14.831  -6.087  1.00139.52     0.106 C 
HETATM   19  O24 MIQ B 502       6.995  17.164  -6.175  1.00146.13    -0.273 OA
HETATM   20  C23 MIQ B 502       5.734  14.197  -7.137  1.00139.15     0.045 C 
ENDBRANCH  10  12
BRANCH   5  21
HETATM   21  N6  MIQ B 502       9.755   7.324  -8.828  1.00140.95    -0.377 N 
HETATM   22  C7  MIQ B 502      11.162   7.641  -9.003  1.00142.12     0.149 C 
HETATM   23  C8  MIQ B 502      11.982   6.408  -9.359  1.00144.10     0.187 C 
HETATM   24  O9  MIQ B 502      11.715   5.319  -8.528  1.00148.65    -0.388 OA
HETATM   25  C10 MIQ B 502      10.634   5.353  -7.642  1.00147.44     0.187 C 
HETATM   26  C11 MIQ B 502       9.402   6.166  -8.025  1.00144.08     0.149 C 
ENDBRANCH   5  21
TORSDOF 2
ENDMDL
MODEL 5
REMARK VINA RESULT:      -6.8     20.273     23.587
REMARK  2 active torsions:
REMARK  status: ('A' for Active; 'I' for Inactive)
REMARK    1  A    between atoms: C5_5  and  N6_21 
REMARK    2  A    between atoms: C18_14  and  N17_19 
ROOT
HETATM    1  O1  MIQ B 502       5.442  12.820 -11.337  1.00142.91    -0.171 OA
HETATM    2  C2  MIQ B 502       6.075  12.706 -10.097  1.00141.17     0.195 A 
HETATM    3  C3  MIQ B 502       5.840  13.623  -8.855  1.00141.71     0.035 A 
HETATM    4  C4  MIQ B 502       4.963  14.790  -8.601  1.00142.86     0.046 A 
HETATM    5  C5  MIQ B 502       4.970  15.431  -7.336  1.00139.53     0.031 A 
HETATM    6  C12 MIQ B 502       5.845  14.938  -6.281  1.00139.38     0.030 A 
HETATM    7  C13 MIQ B 502       6.685  13.818  -6.524  1.00141.18     0.019 A 
HETATM    8  C14 MIQ B 502       6.672  13.148  -7.853  1.00138.77     0.033 A 
HETATM    9  C15 MIQ B 502       7.426  11.929  -8.478  1.00142.10     0.195 A 
HETATM   10  N17 MIQ B 502       6.979  11.819  -9.718  1.00139.42    -0.288 N 
HETATM   11  O16 MIQ B 502       8.378  11.125  -7.850  1.00148.93    -0.171 OA
ENDROOT
BRANCH  10  12
HETATM   12  C18 MIQ B 502       7.476  10.792 -10.614  1.00139.82     0.187 C 
HETATM   13  C19 MIQ B 502       7.302   9.438  -9.915  1.00140.06     0.247 C 
HETATM   14  O25 MIQ B 502       6.250   9.155  -9.461  1.00143.95    -0.271 OA
HETATM   15  N20 MIQ B 502       8.392   8.491  -9.802  1.00140.02    -0.296 N 
HETATM   16  H13 MIQ B 502       8.267   7.613  -9.337  1.00142.77     0.171 HD
HETATM   17  C21 MIQ B 502       9.669   8.863 -10.355  1.00142.22     0.224 C 
HETATM   18  C22 MIQ B 502      10.034  10.334 -10.295  1.00139.52     0.106 C 
HETATM   19  O24 MIQ B 502      10.391   8.061 -10.835  1.00146.13    -0.273 OA
HETATM   20  C23 MIQ B 502       8.923  11.084 -11.007  1.00139.15     0.045 C 
ENDBRANCH  10  12
BRANCH   5  21
HETATM   21  N6  MIQ B 502       4.117  16.582  -7.106  1.00140.95    -0.377 N 
HETATM   22  C7  MIQ B 502       2.840  16.379  -6.443  1.00142.12     0.149 C 
HETATM   23  C8  MIQ B 502       1.823  17.445  -6.829  1.00144.10     0.187 C 
HETATM   24  O9  MIQ B 502       2.337  18.740  -6.750  1.00148.65    -0.388 OA
HETATM   25  C10 MIQ B 502       3.705  18.949  -6.561  1.00147.44     0.187 C 
HETATM   26  C11 MIQ B 502       4.683  17.919  -7.118  1.00144.08     0.149 C 
ENDBRANCH   5  21
TORSDOF 2
ENDMDL
MODEL 6
REMARK VINA RESULT:      -6.6     18.706     20.177
REMARK  2 active torsions:
REMARK  status: ('A' for Active; 'I' for Inactive)
REMARK    1  A    between atoms: C5_5  and  N6_21 
REMARK    2  A    between atoms: C18_14  and  N17_19 
ROOT
HETATM    1  O1  MIQ B 502       8.286  11.421 -11.696  1.00142.91    -0.171 OA
HETATM    2  C2  MIQ B 502       8.853  10.272 -11.140  1.00141.17     0.195 A 
HETATM    3  C3  MIQ B 502      10.241   9.659 -11.508  1.00141.71     0.035 A 
HETATM    4  C4  MIQ B 502      11.306  10.047 -12.462  1.00142.86     0.046 A 
HETATM    5  C5  MIQ B 502      12.487   9.270 -12.574  1.00139.53     0.031 A 
HETATM    6  C12 MIQ B 502      12.653   8.085 -11.745  1.00139.38     0.030 A 
HETATM    7  C13 MIQ B 502      11.632   7.712 -10.829  1.00141.18     0.019 A 
HETATM    8  C14 MIQ B 502      10.396   8.533 -10.715  1.00138.77     0.033 A 
HETATM    9  C15 MIQ B 502       9.096   8.448  -9.849  1.00142.10     0.195 A 
HETATM   10  N17 MIQ B 502       8.352   9.483 -10.205  1.00139.42    -0.288 N 
HETATM   11  O16 MIQ B 502       8.788   7.475  -8.898  1.00148.93    -0.171 OA
ENDROOT
BRANCH  10  12
HETATM   12  C18 MIQ B 502       7.050   9.718  -9.611  1.00139.82     0.187 C 
HETATM   13  C19 MIQ B 502       6.048   9.937 -10.752  1.00140.06     0.247 C 
HETATM   14  O25 MIQ B 502       5.996   9.151 -11.631  1.00143.95    -0.271 OA
HETATM   15  N20 MIQ B 502       5.158  11.079 -10.779  1.00140.02    -0.296 N 
HETATM   16  H13 MIQ B 502       4.514  11.214 -11.533  1.00142.77     0.171 HD
HETATM   17  C21 MIQ B 502       5.248  12.029  -9.701  1.00142.22     0.224 C 
HETATM   18  C22 MIQ B 502       6.623  12.251  -9.100  1.00139.52     0.106 C 
HETATM   19  O24 MIQ B 502       4.295  12.603  -9.302  1.00146.13    -0.273 OA
HETATM   20  C23 MIQ B 502       7.114  10.892  -8.635  1.00139.15     0.045 C 
ENDBRANCH  10  12
BRANCH   5  21
HETATM   21  N6  MIQ B 502      13.516   9.655 -13.523  1.00140.95    -0.377 N 
HETATM   22  C7  MIQ B 502      14.124   8.622 -14.344  1.00142.12     0.149 C 
HETATM   23  C8  MIQ B 502      15.536   8.997 -14.776  1.00144.10     0.187 C 
HETATM   24  O9  MIQ B 502      15.621  10.293 -15.288  1.00148.65    -0.388 OA
HETATM   25  C10 MIQ B 502      14.543  11.174 -15.167  1.00147.44     0.187 C 
HETATM   26  C11 MIQ B 502      13.620  11.035 -13.961  1.00144.08     0.149 C 
ENDBRANCH   5  21
TORSDOF 2
ENDMDL
MODEL 7
REMARK VINA RESULT:      -6.6     23.600     25.463
REMARK  2 active torsions:
REMARK  status: ('A' for Active; 'I' for Inactive)
REMARK    1  A    between atoms: C5_5  and  N6_21 
REMARK    2  A    between atoms: C18_14  and  N17_19 
ROOT
HETATM    1  O1  MIQ B 502      -9.242  13.295 -14.249  1.00142.91    -0.171 OA
HETATM    2  C2  MIQ B 502      -8.442  13.471 -13.118  1.00141.17     0.195 A 
HETATM    3  C3  MIQ B 502      -8.648  14.543 -12.000  1.00141.71     0.035 A 
HETATM    4  C4  MIQ B 502      -9.653  15.611 -11.786  1.00142.86     0.046 A 
HETATM    5  C5  MIQ B 502      -9.578  16.447 -10.644  1.00139.53     0.031 A 
HETATM    6  C12 MIQ B 502      -8.507  16.254  -9.676  1.00139.38     0.030 A 
HETATM    7  C13 MIQ B 502      -7.545  15.229  -9.880  1.00141.18     0.019 A 
HETATM    8  C14 MIQ B 502      -7.630  14.353 -11.081  1.00138.77     0.033 A 
HETATM    9  C15 MIQ B 502      -6.787  13.156 -11.630  1.00142.10     0.195 A 
HETATM   10  N17 MIQ B 502      -7.370  12.785 -12.758  1.00139.42    -0.288 N 
HETATM   11  O16 MIQ B 502      -5.648  12.598 -11.046  1.00148.93    -0.171 OA
ENDROOT
BRANCH  10  12
HETATM   12  C18 MIQ B 502      -6.844  11.698 -13.561  1.00139.82     0.187 C 
HETATM   13  C19 MIQ B 502      -6.666  12.217 -14.993  1.00140.06     0.247 C 
HETATM   14  O25 MIQ B 502      -6.076  13.222 -15.172  1.00143.95    -0.271 OA
HETATM   15  N20 MIQ B 502      -7.200  11.504 -16.136  1.00140.02    -0.296 N 
HETATM   16  H13 MIQ B 502      -7.082  11.857 -17.065  1.00142.77     0.171 HD
HETATM   17  C21 MIQ B 502      -7.926  10.285 -15.891  1.00142.22     0.224 C 
HETATM   18  C22 MIQ B 502      -8.734  10.219 -14.609  1.00139.52     0.106 C 
HETATM   19  O24 MIQ B 502      -7.889   9.380 -16.650  1.00146.13    -0.273 OA
HETATM   20  C23 MIQ B 502      -7.762  10.479 -13.473  1.00139.15     0.045 C 
ENDBRANCH  10  12
BRANCH   5  21
HETATM   21  N6  MIQ B 502     -10.560  17.499 -10.454  1.00140.95    -0.377 N 
HETATM   22  C7  MIQ B 502     -11.665  17.595 -11.393  1.00142.12     0.149 C 
HETATM   23  C8  MIQ B 502     -12.205  19.016 -11.492  1.00144.10     0.187 C 
HETATM   24  O9  MIQ B 502     -12.430  19.600 -10.243  1.00148.65    -0.388 OA
HETATM   25  C10 MIQ B 502     -11.966  18.982  -9.079  1.00147.44     0.187 C 
HETATM   26  C11 MIQ B 502     -10.698  18.138  -9.157  1.00144.08     0.149 C 
ENDBRANCH   5  21
TORSDOF 2
ENDMDL
MODEL 8
REMARK VINA RESULT:      -6.6     21.201     24.435
REMARK  2 active torsions:
REMARK  status: ('A' for Active; 'I' for Inactive)
REMARK    1  A    between atoms: C5_5  and  N6_21 
REMARK    2  A    between atoms: C18_14  and  N17_19 
ROOT
HETATM    1  O1  MIQ B 502       4.816  12.822  -9.847  1.00142.91    -0.171 OA
HETATM    2  C2  MIQ B 502       5.727  13.357  -8.933  1.00141.17     0.195 A 
HETATM    3  C3  MIQ B 502       5.486  14.589  -8.004  1.00141.71     0.035 A 
HETATM    4  C4  MIQ B 502       4.335  15.501  -7.799  1.00142.86     0.046 A 
HETATM    5  C5  MIQ B 502       4.417  16.557  -6.857  1.00139.53     0.031 A 
HETATM    6  C12 MIQ B 502       5.638  16.745  -6.086  1.00139.38     0.030 A 
HETATM    7  C13 MIQ B 502       6.740  15.870  -6.281  1.00141.18     0.019 A 
HETATM    8  C14 MIQ B 502       6.648  14.762  -7.270  1.00138.77     0.033 A 
HETATM    9  C15 MIQ B 502       7.616  13.630  -7.746  1.00142.10     0.195 A 
HETATM   10  N17 MIQ B 502       6.953  12.944  -8.663  1.00139.42    -0.288 N 
HETATM   11  O16 MIQ B 502       8.917  13.398  -7.295  1.00148.93    -0.171 OA
ENDROOT
BRANCH  10  12
HETATM   12  C18 MIQ B 502       7.555  11.813  -9.344  1.00139.82     0.187 C 
HETATM   13  C19 MIQ B 502       7.288  11.976 -10.846  1.00140.06     0.247 C 
HETATM   14  O25 MIQ B 502       7.553  12.998 -11.370  1.00143.95    -0.271 OA
HETATM   15  N20 MIQ B 502       6.722  10.905 -11.641  1.00140.02    -0.296 N 
HETATM   16  H13 MIQ B 502       6.547  11.027 -12.619  1.00142.77     0.171 HD
HETATM   17  C21 MIQ B 502       6.397   9.670 -10.976  1.00142.22     0.224 C 
HETATM   18  C22 MIQ B 502       5.923   9.775  -9.539  1.00139.52     0.106 C 
HETATM   19  O24 MIQ B 502       6.500   8.628 -11.523  1.00146.13    -0.273 OA
HETATM   20  C23 MIQ B 502       7.015  10.501  -8.777  1.00139.15     0.045 C 
ENDBRANCH  10  12
BRANCH   5  21
HETATM   21  N6  MIQ B 502       3.288  17.452  -6.677  1.00140.95    -0.377 N 
HETATM   22  C7  MIQ B 502       3.399  18.816  -7.163  1.00142.12     0.149 C 
HETATM   23  C8  MIQ B 502       2.502  19.772  -6.387  1.00144.10     0.187 C 
HETATM   24  O9  MIQ B 502       1.198  19.295  -6.240  1.00148.65    -0.388 OA
HETATM   25  C10 MIQ B 502       0.884  17.978  -6.584  1.00147.44     0.187 C 
HETATM   26  C11 MIQ B 502       1.962  16.909  -6.441  1.00144.08     0.149 C 
ENDBRANCH   5  21
TORSDOF 2
ENDMDL
MODEL 9
REMARK VINA RESULT:      -6.4     23.045     25.183
REMARK  2 active torsions:
REMARK  status: ('A' for Active; 'I' for Inactive)
REMARK    1  A    between atoms: C5_5  and  N6_21 
REMARK    2  A    between atoms: C18_14  and  N17_19 
ROOT
HETATM    1  O1  MIQ B 502     -11.288  13.025 -13.982  1.00142.91    -0.171 OA
HETATM    2  C2  MIQ B 502      -9.933  13.114 -13.654  1.00141.17     0.195 A 
HETATM    3  C3  MIQ B 502      -9.323  13.924 -12.466  1.00141.71     0.035 A 
HETATM    4  C4  MIQ B 502      -9.912  14.773 -11.403  1.00142.86     0.046 A 
HETATM    5  C5  MIQ B 502      -9.080  15.393 -10.437  1.00139.53     0.031 A 
HETATM    6  C12 MIQ B 502      -7.639  15.192 -10.490  1.00139.38     0.030 A 
HETATM    7  C13 MIQ B 502      -7.074  14.377 -11.508  1.00141.18     0.019 A 
HETATM    8  C14 MIQ B 502      -7.953  13.727 -12.518  1.00138.77     0.033 A 
HETATM    9  C15 MIQ B 502      -7.711  12.790 -13.745  1.00142.10     0.195 A 
HETATM   10  N17 MIQ B 502      -8.905  12.544 -14.258  1.00139.42    -0.288 N 
HETATM   11  O16 MIQ B 502      -6.481  12.314 -14.203  1.00148.93    -0.171 OA
ENDROOT
BRANCH  10  12
HETATM   12  C18 MIQ B 502      -9.067  11.709 -15.434  1.00139.82     0.187 C 
HETATM   13  C19 MIQ B 502      -8.255  10.427 -15.213  1.00140.06     0.247 C 
HETATM   14  O25 MIQ B 502      -8.405   9.816 -14.216  1.00143.95    -0.271 OA
HETATM   15  N20 MIQ B 502      -7.312   9.941 -16.199  1.00140.02    -0.296 N 
HETATM   16  H13 MIQ B 502      -6.783   9.106 -16.040  1.00142.77     0.171 HD
HETATM   17  C21 MIQ B 502      -7.139  10.710 -17.405  1.00142.22     0.224 C 
HETATM   18  C22 MIQ B 502      -7.277  12.215 -17.278  1.00139.52     0.106 C 
HETATM   19  O24 MIQ B 502      -6.907  10.191 -18.441  1.00146.13    -0.273 OA
HETATM   20  C23 MIQ B 502      -8.652  12.474 -16.690  1.00139.15     0.045 C 
ENDBRANCH  10  12
BRANCH   5  21
HETATM   21  N6  MIQ B 502      -9.668  16.234  -9.411  1.00140.95    -0.377 N 
HETATM   22  C7  MIQ B 502      -9.539  17.675  -9.535  1.00142.12     0.149 C 
HETATM   23  C8  MIQ B 502      -9.593  18.370  -8.181  1.00144.10     0.187 C 
HETATM   24  O9  MIQ B 502     -10.656  17.933  -7.388  1.00148.65    -0.388 OA
HETATM   25  C10 MIQ B 502     -11.404  16.813  -7.762  1.00147.44     0.187 C 
HETATM   26  C11 MIQ B 502     -10.714  15.706  -8.552  1.00144.08     0.149 C 
ENDBRANCH   5  21
TORSDOF 2
ENDMDL
