MODEL 1
REMARK VINA RESULT:      -6.0      0.000      0.000
REMARK  2 active torsions:
REMARK  status: ('A' for Active; 'I' for Inactive)
REMARK    1  A    between atoms: C5_5  and  N6_21 
REMARK    2  A    between atoms: C18_14  and  N17_19 
ROOT
HETATM    1  O1  MIQ B 502      12.560   9.977  23.426  1.00142.91    -0.171 OA
HETATM    2  C2  MIQ B 502      11.494  10.235  22.561  1.00141.17     0.195 A 
HETATM    3  C3  MIQ B 502      11.559  11.062  21.238  1.00141.71     0.035 A 
HETATM    4  C4  MIQ B 502      12.653  11.770  20.532  1.00142.86     0.046 A 
HETATM    5  C5  MIQ B 502      12.398  12.449  19.314  1.00139.53     0.031 A 
HETATM    6  C12 MIQ B 502      11.054  12.450  18.755  1.00139.38     0.030 A 
HETATM    7  C13 MIQ B 502      10.005  11.770  19.431  1.00141.18     0.019 A 
HETATM    8  C14 MIQ B 502      10.279  11.057  20.708  1.00138.77     0.033 A 
HETATM    9  C15 MIQ B 502       9.415  10.221  21.708  1.00142.10     0.195 A 
HETATM   10  N17 MIQ B 502      10.237   9.840  22.671  1.00139.42    -0.288 N 
HETATM   11  O16 MIQ B 502       8.052   9.940  21.601  1.00148.93    -0.171 OA
ENDROOT
BRANCH  10  12
HETATM   12  C18 MIQ B 502       9.772   9.049  23.795  1.00139.82     0.187 C 
HETATM   13  C19 MIQ B 502      10.122   9.810  25.080  1.00140.06     0.247 C 
HETATM   14  O25 MIQ B 502       9.812  10.944  25.180  1.00143.95    -0.271 OA
HETATM   15  N20 MIQ B 502      10.820   9.174  26.178  1.00140.02    -0.296 N 
HETATM   16  H13 MIQ B 502      11.049   9.684  27.008  1.00142.77     0.171 HD
HETATM   17  C21 MIQ B 502      11.198   7.792  26.027  1.00142.22     0.224 C 
HETATM   18  C22 MIQ B 502      11.568   7.336  24.629  1.00139.52     0.106 C 
HETATM   19  O24 MIQ B 502      11.212   7.052  26.948  1.00146.13    -0.273 OA
HETATM   20  C23 MIQ B 502      10.374   7.646  23.744  1.00139.15     0.045 C 
ENDBRANCH  10  12
BRANCH   5  21
HETATM   21  N6  MIQ B 502      13.476  13.151  18.641  1.00140.95    -0.377 N 
HETATM   22  C7  MIQ B 502      13.600  13.014  17.200  1.00142.12     0.149 C 
HETATM   23  C8  MIQ B 502      15.035  13.221  16.731  1.00144.10     0.187 C 
HETATM   24  O9  MIQ B 502      15.625  14.364  17.275  1.00148.65    -0.388 OA
HETATM   25  C10 MIQ B 502      14.995  15.061  18.309  1.00147.44     0.187 C 
HETATM   26  C11 MIQ B 502      14.118  14.284  19.285  1.00144.08     0.149 C 
ENDBRANCH   5  21
TORSDOF 2
ENDMDL
MODEL 2
REMARK VINA RESULT:      -5.9     22.281     23.378
REMARK  2 active torsions:
REMARK  status: ('A' for Active; 'I' for Inactive)
REMARK    1  A    between atoms: C5_5  and  N6_21 
REMARK    2  A    between atoms: C18_14  and  N17_19 
ROOT
HETATM    1  O1  MIQ B 502      17.992  -5.407   8.444  1.00142.91    -0.171 OA
HETATM    2  C2  MIQ B 502      17.232  -6.284   9.222  1.00141.17     0.195 A 
HETATM    3  C3  MIQ B 502      16.265  -7.388   8.687  1.00141.71     0.035 A 
HETATM    4  C4  MIQ B 502      15.873  -7.828   7.328  1.00142.86     0.046 A 
HETATM    5  C5  MIQ B 502      14.947  -8.888   7.156  1.00139.53     0.031 A 
HETATM    6  C12 MIQ B 502      14.379  -9.547   8.324  1.00139.38     0.030 A 
HETATM    7  C13 MIQ B 502      14.755  -9.125   9.628  1.00141.18     0.019 A 
HETATM    8  C14 MIQ B 502      15.729  -8.013   9.801  1.00138.77     0.033 A 
HETATM    9  C15 MIQ B 502      16.369  -7.295  11.034  1.00142.10     0.195 A 
HETATM   10  N17 MIQ B 502      17.175  -6.370  10.540  1.00139.42    -0.288 N 
HETATM   11  O16 MIQ B 502      16.132  -7.575  12.381  1.00148.93    -0.171 OA
ENDROOT
BRANCH  10  12
HETATM   12  C18 MIQ B 502      17.935  -5.487  11.405  1.00139.82     0.187 C 
HETATM   13  C19 MIQ B 502      17.656  -4.045  10.962  1.00140.06     0.247 C 
HETATM   14  O25 MIQ B 502      16.539  -3.686  10.838  1.00143.95    -0.271 OA
HETATM   15  N20 MIQ B 502      18.727  -3.107  10.696  1.00140.02    -0.296 N 
HETATM   16  H13 MIQ B 502      18.532  -2.170  10.402  1.00142.77     0.171 HD
HETATM   17  C21 MIQ B 502      20.083  -3.571  10.845  1.00142.22     0.224 C 
HETATM   18  C22 MIQ B 502      20.347  -5.024  10.497  1.00139.52     0.106 C 
HETATM   19  O24 MIQ B 502      20.943  -2.856  11.224  1.00146.13    -0.273 OA
HETATM   20  C23 MIQ B 502      19.418  -5.851  11.366  1.00139.15     0.045 C 
ENDBRANCH  10  12
BRANCH   5  21
HETATM   21  N6  MIQ B 502      14.561  -9.300   5.819  1.00140.95    -0.377 N 
HETATM   22  C7  MIQ B 502      13.151  -9.297   5.471  1.00142.12     0.149 C 
HETATM   23  C8  MIQ B 502      12.834 -10.302   4.371  1.00144.10     0.187 C 
HETATM   24  O9  MIQ B 502      13.716 -10.221   3.291  1.00148.65    -0.388 OA
HETATM   25  C10 MIQ B 502      14.875  -9.447   3.380  1.00147.44     0.187 C 
HETATM   26  C11 MIQ B 502      15.538  -9.280   4.744  1.00144.08     0.149 C 
ENDBRANCH   5  21
TORSDOF 2
ENDMDL
MODEL 3
REMARK VINA RESULT:      -5.8     22.161     23.158
REMARK  2 active torsions:
REMARK  status: ('A' for Active; 'I' for Inactive)
REMARK    1  A    between atoms: C5_5  and  N6_21 
REMARK    2  A    between atoms: C18_14  and  N17_19 
ROOT
HETATM    1  O1  MIQ B 502      16.344  -7.665  10.990  1.00142.91    -0.171 OA
HETATM    2  C2  MIQ B 502      16.899  -6.848  10.003  1.00141.17     0.195 A 
HETATM    3  C3  MIQ B 502      16.625  -6.940   8.468  1.00141.71     0.035 A 
HETATM    4  C4  MIQ B 502      15.776  -7.824   7.635  1.00142.86     0.046 A 
HETATM    5  C5  MIQ B 502      15.732  -7.659   6.228  1.00139.53     0.031 A 
HETATM    6  C12 MIQ B 502      16.526  -6.613   5.598  1.00139.38     0.030 A 
HETATM    7  C13 MIQ B 502      17.340  -5.765   6.396  1.00141.18     0.019 A 
HETATM    8  C14 MIQ B 502      17.380  -5.941   7.873  1.00138.77     0.033 A 
HETATM    9  C15 MIQ B 502      18.126  -5.225   9.046  1.00142.10     0.195 A 
HETATM   10  N17 MIQ B 502      17.749  -5.846  10.152  1.00139.42    -0.288 N 
HETATM   11  O16 MIQ B 502      19.012  -4.152   8.941  1.00148.93    -0.171 OA
ENDROOT
BRANCH  10  12
HETATM   12  C18 MIQ B 502      18.260  -5.455  11.452  1.00139.82     0.187 C 
HETATM   13  C19 MIQ B 502      18.925  -6.685  12.082  1.00140.06     0.247 C 
HETATM   14  O25 MIQ B 502      19.723  -7.291  11.459  1.00143.95    -0.271 OA
HETATM   15  N20 MIQ B 502      18.606  -7.121  13.426  1.00140.02    -0.296 N 
HETATM   16  H13 MIQ B 502      19.042  -7.930  13.824  1.00142.77     0.171 HD
HETATM   17  C21 MIQ B 502      17.622  -6.371  14.163  1.00142.22     0.224 C 
HETATM   18  C22 MIQ B 502      16.492  -5.757  13.359  1.00139.52     0.106 C 
HETATM   19  O24 MIQ B 502      17.696  -6.238  15.335  1.00146.13    -0.273 OA
HETATM   20  C23 MIQ B 502      17.140  -4.871  12.311  1.00139.15     0.045 C 
ENDBRANCH  10  12
BRANCH   5  21
HETATM   21  N6  MIQ B 502      14.907  -8.542   5.424  1.00140.95    -0.377 N 
HETATM   22  C7  MIQ B 502      13.463  -8.392   5.486  1.00142.12     0.149 C 
HETATM   23  C8  MIQ B 502      12.742  -9.693   5.160  1.00144.10     0.187 C 
HETATM   24  O9  MIQ B 502      13.228 -10.309   4.005  1.00148.65    -0.388 OA
HETATM   25  C10 MIQ B 502      14.403  -9.853   3.401  1.00147.44     0.187 C 
HETATM   26  C11 MIQ B 502      15.481  -9.229   4.280  1.00144.08     0.149 C 
ENDBRANCH   5  21
TORSDOF 2
ENDMDL
MODEL 4
REMARK VINA RESULT:      -5.8      2.843      8.119
REMARK  2 active torsions:
REMARK  status: ('A' for Active; 'I' for Inactive)
REMARK    1  A    between atoms: C5_5  and  N6_21 
REMARK    2  A    between atoms: C18_14  and  N17_19 
ROOT
HETATM    1  O1  MIQ B 502      10.190  11.081  20.125  1.00142.91    -0.171 OA
HETATM    2  C2  MIQ B 502      10.874  10.445  21.164  1.00141.17     0.195 A 
HETATM    3  C3  MIQ B 502      10.405   9.168  21.931  1.00141.71     0.035 A 
HETATM    4  C4  MIQ B 502       9.211   8.296  21.823  1.00142.86     0.046 A 
HETATM    5  C5  MIQ B 502       9.062   7.177  22.681  1.00139.53     0.031 A 
HETATM    6  C12 MIQ B 502      10.087   6.883  23.672  1.00139.38     0.030 A 
HETATM    7  C13 MIQ B 502      11.232   7.719  23.775  1.00141.18     0.019 A 
HETATM    8  C14 MIQ B 502      11.385   8.891  22.870  1.00138.77     0.033 A 
HETATM    9  C15 MIQ B 502      12.469  10.002  22.685  1.00142.10     0.195 A 
HETATM   10  N17 MIQ B 502      12.035  10.776  21.703  1.00139.42    -0.288 N 
HETATM   11  O16 MIQ B 502      13.652  10.146  23.412  1.00148.93    -0.171 OA
ENDROOT
BRANCH  10  12
HETATM   12  C18 MIQ B 502      12.788  11.935  21.263  1.00139.82     0.187 C 
HETATM   13  C19 MIQ B 502      11.830  13.133  21.235  1.00140.06     0.247 C 
HETATM   14  O25 MIQ B 502      11.175  13.368  22.187  1.00143.95    -0.271 OA
HETATM   15  N20 MIQ B 502      11.710  13.988  20.072  1.00140.02    -0.296 N 
HETATM   16  H13 MIQ B 502      11.075  14.762  20.064  1.00142.77     0.171 HD
HETATM   17  C21 MIQ B 502      12.512  13.673  18.918  1.00142.22     0.224 C 
HETATM   18  C22 MIQ B 502      12.786  12.204  18.658  1.00139.52     0.106 C 
HETATM   19  O24 MIQ B 502      12.939  14.520  18.213  1.00146.13    -0.273 OA
HETATM   20  C23 MIQ B 502      13.446  11.660  19.912  1.00139.15     0.045 C 
ENDBRANCH  10  12
BRANCH   5  21
HETATM   21  N6  MIQ B 502       7.881   6.340  22.575  1.00140.95    -0.377 N 
HETATM   22  C7  MIQ B 502       7.859   5.075  23.290  1.00142.12     0.149 C 
HETATM   23  C8  MIQ B 502       6.939   4.060  22.623  1.00144.10     0.187 C 
HETATM   24  O9  MIQ B 502       5.686   4.589  22.306  1.00148.65    -0.388 OA
HETATM   25  C10 MIQ B 502       5.453   5.963  22.401  1.00147.44     0.187 C 
HETATM   26  C11 MIQ B 502       6.616   6.919  22.158  1.00144.08     0.149 C 
ENDBRANCH   5  21
TORSDOF 2
ENDMDL
MODEL 5
REMARK VINA RESULT:      -5.7     21.323     22.331
REMARK  2 active torsions:
REMARK  status: ('A' for Active; 'I' for Inactive)
REMARK    1  A    between atoms: C5_5  and  N6_21 
REMARK    2  A    between atoms: C18_14  and  N17_19 
ROOT
HETATM    1  O1  MIQ B 502      16.851  -7.504  11.213  1.00142.91    -0.171 OA
HETATM    2  C2  MIQ B 502      17.551  -6.431  10.656  1.00141.17     0.195 A 
HETATM    3  C3  MIQ B 502      17.683  -6.108   9.134  1.00141.71     0.035 A 
HETATM    4  C4  MIQ B 502      17.166  -6.756   7.905  1.00142.86     0.046 A 
HETATM    5  C5  MIQ B 502      17.462  -6.213   6.629  1.00139.53     0.031 A 
HETATM    6  C12 MIQ B 502      18.277  -5.011   6.527  1.00139.38     0.030 A 
HETATM    7  C13 MIQ B 502      18.773  -4.389   7.705  1.00141.18     0.019 A 
HETATM    8  C14 MIQ B 502      18.457  -4.962   9.041  1.00138.77     0.033 A 
HETATM    9  C15 MIQ B 502      18.806  -4.572  10.515  1.00142.10     0.195 A 
HETATM   10  N17 MIQ B 502      18.228  -5.483  11.280  1.00139.42    -0.288 N 
HETATM   11  O16 MIQ B 502      19.576  -3.485  10.932  1.00148.93    -0.171 OA
ENDROOT
BRANCH  10  12
HETATM   12  C18 MIQ B 502      18.353  -5.447  12.726  1.00139.82     0.187 C 
HETATM   13  C19 MIQ B 502      19.006  -6.762  13.171  1.00140.06     0.247 C 
HETATM   14  O25 MIQ B 502      20.004  -7.114  12.651  1.00143.95    -0.271 OA
HETATM   15  N20 MIQ B 502      18.433  -7.582  14.218  1.00140.02    -0.296 N 
HETATM   16  H13 MIQ B 502      18.865  -8.442  14.495  1.00142.77     0.171 HD
HETATM   17  C21 MIQ B 502      17.208  -7.137  14.831  1.00142.22     0.224 C 
HETATM   18  C22 MIQ B 502      16.233  -6.391  13.940  1.00139.52     0.106 C 
HETATM   19  O24 MIQ B 502      16.978  -7.339  15.972  1.00146.13    -0.273 OA
HETATM   20  C23 MIQ B 502      16.990  -5.204  13.371  1.00139.15     0.045 C 
ENDBRANCH  10  12
BRANCH   5  21
HETATM   21  N6  MIQ B 502      16.961  -6.866   5.434  1.00140.95    -0.377 N 
HETATM   22  C7  MIQ B 502      17.768  -7.908   4.822  1.00142.12     0.149 C 
HETATM   23  C8  MIQ B 502      17.492  -8.037   3.329  1.00144.10     0.187 C 
HETATM   24  O9  MIQ B 502      16.129  -8.085   3.030  1.00148.65    -0.388 OA
HETATM   25  C10 MIQ B 502      15.179  -7.801   4.014  1.00147.44     0.187 C 
HETATM   26  C11 MIQ B 502      15.544  -6.815   5.119  1.00144.08     0.149 C 
ENDBRANCH   5  21
TORSDOF 2
ENDMDL
MODEL 6
REMARK VINA RESULT:      -5.7     18.619     20.871
REMARK  2 active torsions:
REMARK  status: ('A' for Active; 'I' for Inactive)
REMARK    1  A    between atoms: C5_5  and  N6_21 
REMARK    2  A    between atoms: C18_14  and  N17_19 
ROOT
HETATM    1  O1  MIQ B 502      15.757  -6.981  14.591  1.00142.91    -0.171 OA
HETATM    2  C2  MIQ B 502      17.064  -6.795  15.046  1.00141.17     0.195 A 
HETATM    3  C3  MIQ B 502      17.528  -6.780  16.538  1.00141.71     0.035 A 
HETATM    4  C4  MIQ B 502      16.816  -6.943  17.828  1.00142.86     0.046 A 
HETATM    5  C5  MIQ B 502      17.529  -6.880  19.052  1.00139.53     0.031 A 
HETATM    6  C12 MIQ B 502      18.967  -6.654  19.041  1.00139.38     0.030 A 
HETATM    7  C13 MIQ B 502      19.649  -6.499  17.804  1.00141.18     0.019 A 
HETATM    8  C14 MIQ B 502      18.897  -6.569  16.522  1.00138.77     0.033 A 
HETATM    9  C15 MIQ B 502      19.285  -6.453  15.012  1.00142.10     0.195 A 
HETATM   10  N17 MIQ B 502      18.160  -6.603  14.333  1.00139.42    -0.288 N 
HETATM   11  O16 MIQ B 502      20.562  -6.232  14.491  1.00148.93    -0.171 OA
ENDROOT
BRANCH  10  12
HETATM   12  C18 MIQ B 502      18.135  -6.537  12.883  1.00139.82     0.187 C 
HETATM   13  C19 MIQ B 502      17.055  -5.527  12.479  1.00140.06     0.247 C 
HETATM   14  O25 MIQ B 502      17.058  -4.454  12.968  1.00143.95    -0.271 OA
HETATM   15  N20 MIQ B 502      16.031  -5.851  11.507  1.00140.02    -0.296 N 
HETATM   16  H13 MIQ B 502      15.328  -5.185  11.256  1.00142.77     0.171 HD
HETATM   17  C21 MIQ B 502      16.042  -7.172  10.931  1.00142.22     0.224 C 
HETATM   18  C22 MIQ B 502      16.514  -8.301  11.826  1.00139.52     0.106 C 
HETATM   19  O24 MIQ B 502      15.704  -7.361   9.815  1.00146.13    -0.273 OA
HETATM   20  C23 MIQ B 502      17.909  -7.928  12.292  1.00139.15     0.045 C 
ENDBRANCH  10  12
BRANCH   5  21
HETATM   21  N6  MIQ B 502      16.817  -7.026  20.309  1.00140.95    -0.377 N 
HETATM   22  C7  MIQ B 502      15.583  -7.792  20.323  1.00142.12     0.149 C 
HETATM   23  C8  MIQ B 502      14.651  -7.349  21.444  1.00144.10     0.187 C 
HETATM   24  O9  MIQ B 502      15.298  -7.237  22.676  1.00148.65    -0.388 OA
HETATM   25  C10 MIQ B 502      16.691  -7.307  22.753  1.00147.44     0.187 C 
HETATM   26  C11 MIQ B 502      17.513  -6.815  21.566  1.00144.08     0.149 C 
ENDBRANCH   5  21
TORSDOF 2
ENDMDL
MODEL 7
REMARK VINA RESULT:      -5.7      1.208      1.642
REMARK  2 active torsions:
REMARK  status: ('A' for Active; 'I' for Inactive)
REMARK    1  A    between atoms: C5_5  and  N6_21 
REMARK    2  A    between atoms: C18_14  and  N17_19 
ROOT
HETATM    1  O1  MIQ B 502      13.162  10.471  22.901  1.00142.91    -0.171 OA
HETATM    2  C2  MIQ B 502      12.135  10.907  22.062  1.00141.17     0.195 A 
HETATM    3  C3  MIQ B 502      12.268  11.950  20.906  1.00141.71     0.035 A 
HETATM    4  C4  MIQ B 502      13.404  12.736  20.370  1.00142.86     0.046 A 
HETATM    5  C5  MIQ B 502      13.210  13.625  19.282  1.00139.53     0.031 A 
HETATM    6  C12 MIQ B 502      11.887  13.764  18.690  1.00139.38     0.030 A 
HETATM    7  C13 MIQ B 502      10.798  13.009  19.203  1.00141.18     0.019 A 
HETATM    8  C14 MIQ B 502      11.009  12.076  20.343  1.00138.77     0.033 A 
HETATM    9  C15 MIQ B 502      10.088  11.106  21.153  1.00142.10     0.195 A 
HETATM   10  N17 MIQ B 502      10.865  10.537  22.061  1.00139.42    -0.288 N 
HETATM   11  O16 MIQ B 502       8.723  10.889  20.957  1.00148.93    -0.171 OA
ENDROOT
BRANCH  10  12
HETATM   12  C18 MIQ B 502      10.340   9.578  23.014  1.00139.82     0.187 C 
HETATM   13  C19 MIQ B 502      10.664  10.091  24.422  1.00140.06     0.247 C 
HETATM   14  O25 MIQ B 502      10.379  11.199  24.710  1.00143.95    -0.271 OA
HETATM   15  N20 MIQ B 502      11.306   9.252  25.412  1.00140.02    -0.296 N 
HETATM   16  H13 MIQ B 502      11.518   9.601  26.326  1.00142.77     0.171 HD
HETATM   17  C21 MIQ B 502      11.653   7.906  25.033  1.00142.22     0.224 C 
HETATM   18  C22 MIQ B 502      12.061   7.689  23.589  1.00139.52     0.106 C 
HETATM   19  O24 MIQ B 502      11.616   7.016  25.810  1.00146.13    -0.273 OA
HETATM   20  C23 MIQ B 502      10.908   8.187  22.736  1.00139.15     0.045 C 
ENDBRANCH  10  12
BRANCH   5  21
HETATM   21  N6  MIQ B 502      14.328  14.401  18.777  1.00140.95    -0.377 N 
HETATM   22  C7  MIQ B 502      14.668  15.646  19.444  1.00142.12     0.149 C 
HETATM   23  C8  MIQ B 502      15.358  16.625  18.503  1.00144.10     0.187 C 
HETATM   24  O9  MIQ B 502      16.392  16.039  17.772  1.00148.65    -0.388 OA
HETATM   25  C10 MIQ B 502      16.565  14.652  17.776  1.00147.44     0.187 C 
HETATM   26  C11 MIQ B 502      15.336  13.765  17.947  1.00144.08     0.149 C 
ENDBRANCH   5  21
TORSDOF 2
ENDMDL
MODEL 8
REMARK VINA RESULT:      -5.6     19.990     21.329
REMARK  2 active torsions:
REMARK  status: ('A' for Active; 'I' for Inactive)
REMARK    1  A    between atoms: C5_5  and  N6_21 
REMARK    2  A    between atoms: C18_14  and  N17_19 
ROOT
HETATM    1  O1  MIQ B 502      23.835   6.114   5.917  1.00142.91    -0.171 OA
HETATM    2  C2  MIQ B 502      24.810   5.440   6.655  1.00141.17     0.195 A 
HETATM    3  C3  MIQ B 502      25.814   6.084   7.663  1.00141.71     0.035 A 
HETATM    4  C4  MIQ B 502      26.040   7.473   8.128  1.00142.86     0.046 A 
HETATM    5  C5  MIQ B 502      27.054   7.755   9.079  1.00139.53     0.031 A 
HETATM    6  C12 MIQ B 502      27.875   6.672   9.601  1.00139.38     0.030 A 
HETATM    7  C13 MIQ B 502      27.657   5.340   9.157  1.00141.18     0.019 A 
HETATM    8  C14 MIQ B 502      26.590   5.050   8.160  1.00138.77     0.033 A 
HETATM    9  C15 MIQ B 502      26.066   3.756   7.456  1.00142.10     0.195 A 
HETATM   10  N17 MIQ B 502      25.083   4.146   6.661  1.00139.42    -0.288 N 
HETATM   11  O16 MIQ B 502      26.543   2.457   7.633  1.00148.93    -0.171 OA
ENDROOT
BRANCH  10  12
HETATM   12  C18 MIQ B 502      24.363   3.201   5.828  1.00139.82     0.187 C 
HETATM   13  C19 MIQ B 502      24.426   3.709   4.382  1.00140.06     0.247 C 
HETATM   14  O25 MIQ B 502      25.472   3.998   3.918  1.00143.95    -0.271 OA
HETATM   15  N20 MIQ B 502      23.237   3.840   3.566  1.00140.02    -0.296 N 
HETATM   16  H13 MIQ B 502      23.291   4.179   2.626  1.00142.77     0.171 HD
HETATM   17  C21 MIQ B 502      21.971   3.492   4.158  1.00142.22     0.224 C 
HETATM   18  C22 MIQ B 502      21.813   3.768   5.641  1.00139.52     0.106 C 
HETATM   19  O24 MIQ B 502      21.101   3.010   3.519  1.00146.13    -0.273 OA
HETATM   20  C23 MIQ B 502      22.935   3.022   6.340  1.00139.15     0.045 C 
ENDBRANCH  10  12
BRANCH   5  21
HETATM   21  N6  MIQ B 502      27.275   9.122   9.514  1.00140.95    -0.377 N 
HETATM   22  C7  MIQ B 502      28.520   9.443  10.190  1.00142.12     0.149 C 
HETATM   23  C8  MIQ B 502      28.369  10.639  11.122  1.00144.10     0.187 C 
HETATM   24  O9  MIQ B 502      27.721  11.719  10.519  1.00148.65    -0.388 OA
HETATM   25  C10 MIQ B 502      27.097  11.567   9.279  1.00147.44     0.187 C 
HETATM   26  C11 MIQ B 502      26.513  10.205   8.917  1.00144.08     0.149 C 
ENDBRANCH   5  21
TORSDOF 2
ENDMDL
MODEL 9
REMARK VINA RESULT:      -5.6     18.200     19.080
REMARK  2 active torsions:
REMARK  status: ('A' for Active; 'I' for Inactive)
REMARK    1  A    between atoms: C5_5  and  N6_21 
REMARK    2  A    between atoms: C18_14  and  N17_19 
ROOT
HETATM    1  O1  MIQ B 502      13.709  -7.825  20.486  1.00142.91    -0.171 OA
HETATM    2  C2  MIQ B 502      15.027  -7.473  20.787  1.00141.17     0.195 A 
HETATM    3  C3  MIQ B 502      16.155  -7.156  19.755  1.00141.71     0.035 A 
HETATM    4  C4  MIQ B 502      16.202  -7.123  18.274  1.00142.86     0.046 A 
HETATM    5  C5  MIQ B 502      17.405  -6.789  17.602  1.00139.53     0.031 A 
HETATM    6  C12 MIQ B 502      18.600  -6.477  18.372  1.00139.38     0.030 A 
HETATM    7  C13 MIQ B 502      18.556  -6.508  19.792  1.00141.18     0.019 A 
HETATM    8  C14 MIQ B 502      17.289  -6.857  20.492  1.00138.77     0.033 A 
HETATM    9  C15 MIQ B 502      16.862  -6.988  21.991  1.00142.10     0.195 A 
HETATM   10  N17 MIQ B 502      15.585  -7.331  21.977  1.00139.42    -0.288 N 
HETATM   11  O16 MIQ B 502      17.670  -6.786  23.111  1.00148.93    -0.171 OA
ENDROOT
BRANCH  10  12
HETATM   12  C18 MIQ B 502      14.849  -7.559  23.207  1.00139.82     0.187 C 
HETATM   13  C19 MIQ B 502      14.161  -8.925  23.094  1.00140.06     0.247 C 
HETATM   14  O25 MIQ B 502      14.799  -9.867  22.782  1.00143.95    -0.271 OA
HETATM   15  N20 MIQ B 502      12.749  -9.094  23.367  1.00140.02    -0.296 N 
HETATM   16  H13 MIQ B 502      12.310  -9.990  23.283  1.00142.77     0.171 HD
HETATM   17  C21 MIQ B 502      11.989  -7.928  23.736  1.00142.22     0.224 C 
HETATM   18  C22 MIQ B 502      12.409  -6.614  23.106  1.00139.52     0.106 C 
HETATM   19  O24 MIQ B 502      11.086  -7.994  24.496  1.00146.13    -0.273 OA
HETATM   20  C23 MIQ B 502      13.871  -6.413  23.461  1.00139.15     0.045 C 
ENDBRANCH  10  12
BRANCH   5  21
HETATM   21  N6  MIQ B 502      17.440  -6.775  16.151  1.00140.95    -0.377 N 
HETATM   22  C7  MIQ B 502      18.722  -6.613  15.489  1.00142.12     0.149 C 
HETATM   23  C8  MIQ B 502      18.575  -5.986  14.108  1.00144.10     0.187 C 
HETATM   24  O9  MIQ B 502      17.579  -6.591  13.340  1.00148.65    -0.388 OA
HETATM   25  C10 MIQ B 502      16.696  -7.506  13.919  1.00147.44     0.187 C 
HETATM   26  C11 MIQ B 502      16.338  -7.341  15.393  1.00144.08     0.149 C 
ENDBRANCH   5  21
TORSDOF 2
ENDMDL
