MODEL 1
REMARK VINA RESULT:      -6.5      0.000      0.000
REMARK  2 active torsions:
REMARK  status: ('A' for Active; 'I' for Inactive)
REMARK    1  A    between atoms: C5_5  and  N6_21 
REMARK    2  A    between atoms: C18_14  and  N17_19 
ROOT
HETATM    1  O1  MIQ B 502      16.704  -1.304  14.608  1.00142.91    -0.171 OA
HETATM    2  C2  MIQ B 502      17.651  -1.500  13.601  1.00141.17     0.195 A 
HETATM    3  C3  MIQ B 502      18.054  -2.870  12.968  1.00141.71     0.035 A 
HETATM    4  C4  MIQ B 502      17.612  -4.267  13.194  1.00142.86     0.046 A 
HETATM    5  C5  MIQ B 502      18.176  -5.328  12.442  1.00139.53     0.031 A 
HETATM    6  C12 MIQ B 502      19.195  -5.043  11.442  1.00139.38     0.030 A 
HETATM    7  C13 MIQ B 502      19.618  -3.704  11.223  1.00141.18     0.019 A 
HETATM    8  C14 MIQ B 502      19.020  -2.593  12.014  1.00138.77     0.033 A 
HETATM    9  C15 MIQ B 502      19.218  -1.043  12.055  1.00142.10     0.195 A 
HETATM   10  N17 MIQ B 502      18.387  -0.593  12.981  1.00139.42    -0.288 N 
HETATM   11  O16 MIQ B 502      20.097  -0.291  11.274  1.00148.93    -0.171 OA
ENDROOT
BRANCH  10  12
HETATM   12  C18 MIQ B 502      18.309   0.818  13.308  1.00139.82     0.187 C 
HETATM   13  C19 MIQ B 502      18.535   0.963  14.817  1.00140.06     0.247 C 
HETATM   14  O25 MIQ B 502      19.476   0.448  15.310  1.00143.95    -0.271 OA
HETATM   15  N20 MIQ B 502      17.629   1.719  15.657  1.00140.02    -0.296 N 
HETATM   16  H13 MIQ B 502      17.785   1.800  16.643  1.00142.77     0.171 HD
HETATM   17  C21 MIQ B 502      16.483   2.329  15.034  1.00142.22     0.224 C 
HETATM   18  C22 MIQ B 502      15.868   1.586  13.864  1.00139.52     0.106 C 
HETATM   19  O24 MIQ B 502      16.049   3.361  15.414  1.00146.13    -0.273 OA
HETATM   20  C23 MIQ B 502      16.974   1.399  12.842  1.00139.15     0.045 C 
ENDBRANCH  10  12
BRANCH   5  21
HETATM   21  N6  MIQ B 502      17.745  -6.692  12.685  1.00140.95    -0.377 N 
HETATM   22  C7  MIQ B 502      17.879  -7.664  11.614  1.00142.12     0.149 C 
HETATM   23  C8  MIQ B 502      16.862  -8.791  11.738  1.00144.10     0.187 C 
HETATM   24  O9  MIQ B 502      16.799  -9.327  13.026  1.00148.65    -0.388 OA
HETATM   25  C10 MIQ B 502      17.451  -8.696  14.088  1.00147.44     0.187 C 
HETATM   26  C11 MIQ B 502      17.612  -7.180  14.047  1.00144.08     0.149 C 
ENDBRANCH   5  21
TORSDOF 2
ENDMDL
MODEL 2
REMARK VINA RESULT:      -6.1      1.785      2.886
REMARK  2 active torsions:
REMARK  status: ('A' for Active; 'I' for Inactive)
REMARK    1  A    between atoms: C5_5  and  N6_21 
REMARK    2  A    between atoms: C18_14  and  N17_19 
ROOT
HETATM    1  O1  MIQ B 502      19.810   0.475  11.765  1.00142.91    -0.171 OA
HETATM    2  C2  MIQ B 502      18.888  -0.155  12.603  1.00141.17     0.195 A 
HETATM    3  C3  MIQ B 502      18.553  -1.681  12.625  1.00141.71     0.035 A 
HETATM    4  C4  MIQ B 502      19.050  -2.844  11.851  1.00142.86     0.046 A 
HETATM    5  C5  MIQ B 502      18.543  -4.143  12.106  1.00139.53     0.031 A 
HETATM    6  C12 MIQ B 502      17.530  -4.335  13.134  1.00139.38     0.030 A 
HETATM    7  C13 MIQ B 502      17.054  -3.220  13.876  1.00141.18     0.019 A 
HETATM    8  C14 MIQ B 502      17.592  -1.859  13.606  1.00138.77     0.033 A 
HETATM    9  C15 MIQ B 502      17.328  -0.436  14.197  1.00142.10     0.195 A 
HETATM   10  N17 MIQ B 502      18.124   0.388  13.536  1.00139.42    -0.288 N 
HETATM   11  O16 MIQ B 502      16.431  -0.106  15.215  1.00148.93    -0.171 OA
ENDROOT
BRANCH  10  12
HETATM   12  C18 MIQ B 502      18.138   1.813  13.811  1.00139.82     0.187 C 
HETATM   13  C19 MIQ B 502      18.304   1.995  15.325  1.00140.06     0.247 C 
HETATM   14  O25 MIQ B 502      19.179   1.431  15.880  1.00143.95    -0.271 OA
HETATM   15  N20 MIQ B 502      17.419   2.847  16.093  1.00140.02    -0.296 N 
HETATM   16  H13 MIQ B 502      17.534   2.952  17.082  1.00142.77     0.171 HD
HETATM   17  C21 MIQ B 502      16.353   3.516  15.394  1.00142.22     0.224 C 
HETATM   18  C22 MIQ B 502      15.738   2.778  14.221  1.00139.52     0.106 C 
HETATM   19  O24 MIQ B 502      15.980   4.590  15.718  1.00146.13    -0.273 OA
HETATM   20  C23 MIQ B 502      16.874   2.472  13.261  1.00139.15     0.045 C 
ENDBRANCH  10  12
BRANCH   5  21
HETATM   21  N6  MIQ B 502      19.027  -5.271  11.331  1.00140.95    -0.377 N 
HETATM   22  C7  MIQ B 502      18.643  -6.611  11.740  1.00142.12     0.149 C 
HETATM   23  C8  MIQ B 502      19.667  -7.653  11.306  1.00144.10     0.187 C 
HETATM   24  O9  MIQ B 502      20.041  -7.522   9.968  1.00148.65    -0.388 OA
HETATM   25  C10 MIQ B 502      19.662  -6.395   9.234  1.00147.44     0.187 C 
HETATM   26  C11 MIQ B 502      19.488  -5.070   9.969  1.00144.08     0.149 C 
ENDBRANCH   5  21
TORSDOF 2
ENDMDL
MODEL 3
REMARK VINA RESULT:      -5.9      2.215      8.496
REMARK  2 active torsions:
REMARK  status: ('A' for Active; 'I' for Inactive)
REMARK    1  A    between atoms: C5_5  and  N6_21 
REMARK    2  A    between atoms: C18_14  and  N17_19 
ROOT
HETATM    1  O1  MIQ B 502      20.713  -4.968  11.286  1.00142.91    -0.171 OA
HETATM    2  C2  MIQ B 502      19.639  -5.016  12.178  1.00141.17     0.195 A 
HETATM    3  C3  MIQ B 502      18.815  -3.794  12.695  1.00141.71     0.035 A 
HETATM    4  C4  MIQ B 502      18.885  -2.336  12.439  1.00142.86     0.046 A 
HETATM    5  C5  MIQ B 502      17.974  -1.453  13.072  1.00139.53     0.031 A 
HETATM    6  C12 MIQ B 502      16.965  -1.983  13.978  1.00139.38     0.030 A 
HETATM    7  C13 MIQ B 502      16.897  -3.381  14.223  1.00141.18     0.019 A 
HETATM    8  C14 MIQ B 502      17.854  -4.304  13.554  1.00138.77     0.033 A 
HETATM    9  C15 MIQ B 502      18.083  -5.850  13.569  1.00142.10     0.195 A 
HETATM   10  N17 MIQ B 502      19.102  -6.077  12.756  1.00139.42    -0.288 N 
HETATM   11  O16 MIQ B 502      17.357  -6.795  14.296  1.00148.93    -0.171 OA
ENDROOT
BRANCH  10  12
HETATM   12  C18 MIQ B 502      19.610  -7.418  12.534  1.00139.82     0.187 C 
HETATM   13  C19 MIQ B 502      18.428  -8.302  12.118  1.00140.06     0.247 C 
HETATM   14  O25 MIQ B 502      17.724  -7.948  11.241  1.00143.95    -0.271 OA
HETATM   15  N20 MIQ B 502      18.155  -9.568  12.769  1.00140.02    -0.296 N 
HETATM   16  H13 MIQ B 502      17.377 -10.133  12.492  1.00142.77     0.171 HD
HETATM   17  C21 MIQ B 502      19.023  -9.974  13.844  1.00142.22     0.224 C 
HETATM   18  C22 MIQ B 502      19.594  -8.871  14.713  1.00139.52     0.106 C 
HETATM   19  O24 MIQ B 502      19.280 -11.112  14.034  1.00146.13    -0.273 OA
HETATM   20  C23 MIQ B 502      20.332  -7.926  13.781  1.00139.15     0.045 C 
ENDBRANCH  10  12
BRANCH   5  21
HETATM   21  N6  MIQ B 502      18.063  -0.026  12.824  1.00140.95    -0.377 N 
HETATM   22  C7  MIQ B 502      19.078   0.457  11.904  1.00142.12     0.149 C 
HETATM   23  C8  MIQ B 502      19.490   1.891  12.212  1.00144.10     0.187 C 
HETATM   24  O9  MIQ B 502      18.399   2.742  12.396  1.00148.65    -0.388 OA
HETATM   25  C10 MIQ B 502      17.106   2.222  12.507  1.00147.44     0.187 C 
HETATM   26  C11 MIQ B 502      16.928   0.833  13.113  1.00144.08     0.149 C 
ENDBRANCH   5  21
TORSDOF 2
ENDMDL
MODEL 4
REMARK VINA RESULT:      -5.9      1.832      8.338
REMARK  2 active torsions:
REMARK  status: ('A' for Active; 'I' for Inactive)
REMARK    1  A    between atoms: C5_5  and  N6_21 
REMARK    2  A    between atoms: C18_14  and  N17_19 
ROOT
HETATM    1  O1  MIQ B 502      17.294  -6.885  14.470  1.00142.91    -0.171 OA
HETATM    2  C2  MIQ B 502      17.950  -6.401  13.336  1.00141.17     0.195 A 
HETATM    3  C3  MIQ B 502      18.263  -4.903  13.021  1.00141.71     0.035 A 
HETATM    4  C4  MIQ B 502      18.003  -3.634  13.742  1.00142.86     0.046 A 
HETATM    5  C5  MIQ B 502      18.420  -2.397  13.189  1.00139.53     0.031 A 
HETATM    6  C12 MIQ B 502      19.109  -2.375  11.906  1.00139.38     0.030 A 
HETATM    7  C13 MIQ B 502      19.360  -3.591  11.216  1.00141.18     0.019 A 
HETATM    8  C14 MIQ B 502      18.922  -4.887  11.803  1.00138.77     0.033 A 
HETATM    9  C15 MIQ B 502      19.018  -6.383  11.358  1.00142.10     0.195 A 
HETATM   10  N17 MIQ B 502      18.437  -7.087  12.316  1.00139.42    -0.288 N 
HETATM   11  O16 MIQ B 502      19.598  -6.871  10.186  1.00148.93    -0.171 OA
ENDROOT
BRANCH  10  12
HETATM   12  C18 MIQ B 502      18.326  -8.531  12.234  1.00139.82     0.187 C 
HETATM   13  C19 MIQ B 502      16.867  -8.905  12.522  1.00140.06     0.247 C 
HETATM   14  O25 MIQ B 502      16.005  -8.362  11.927  1.00143.95    -0.271 OA
HETATM   15  N20 MIQ B 502      16.516  -9.912  13.503  1.00140.02    -0.296 N 
HETATM   16  H13 MIQ B 502      15.559 -10.142  13.686  1.00142.77     0.171 HD
HETATM   17  C21 MIQ B 502      17.585 -10.553  14.224  1.00142.22     0.224 C 
HETATM   18  C22 MIQ B 502      18.807  -9.707  14.524  1.00139.52     0.106 C 
HETATM   19  O24 MIQ B 502      17.513 -11.684  14.559  1.00146.13    -0.273 OA
HETATM   20  C23 MIQ B 502      19.317  -9.196  13.189  1.00139.15     0.045 C 
ENDBRANCH  10  12
BRANCH   5  21
HETATM   21  N6  MIQ B 502      18.145  -1.161  13.898  1.00140.95    -0.377 N 
HETATM   22  C7  MIQ B 502      19.151  -0.113  13.883  1.00142.12     0.149 C 
HETATM   23  C8  MIQ B 502      19.055   0.785  15.110  1.00144.10     0.187 C 
HETATM   24  O9  MIQ B 502      17.751   1.213  15.369  1.00148.65    -0.388 OA
HETATM   25  C10 MIQ B 502      16.672   0.651  14.682  1.00147.44     0.187 C 
HETATM   26  C11 MIQ B 502      16.776  -0.800  14.222  1.00144.08     0.149 C 
ENDBRANCH   5  21
TORSDOF 2
ENDMDL
MODEL 5
REMARK VINA RESULT:      -5.9      4.056      8.411
REMARK  2 active torsions:
REMARK  status: ('A' for Active; 'I' for Inactive)
REMARK    1  A    between atoms: C5_5  and  N6_21 
REMARK    2  A    between atoms: C18_14  and  N17_19 
ROOT
HETATM    1  O1  MIQ B 502      20.350  -1.721  14.900  1.00142.91    -0.171 OA
HETATM    2  C2  MIQ B 502      19.998  -0.370  14.887  1.00141.17     0.195 A 
HETATM    3  C3  MIQ B 502      20.331   0.680  15.995  1.00141.71     0.035 A 
HETATM    4  C4  MIQ B 502      21.054   0.604  17.287  1.00142.86     0.046 A 
HETATM    5  C5  MIQ B 502      21.198   1.760  18.096  1.00139.53     0.031 A 
HETATM    6  C12 MIQ B 502      20.634   3.027  17.654  1.00139.38     0.030 A 
HETATM    7  C13 MIQ B 502      19.942   3.100  16.415  1.00141.18     0.019 A 
HETATM    8  C14 MIQ B 502      19.795   1.884  15.569  1.00138.77     0.033 A 
HETATM    9  C15 MIQ B 502      19.126   1.580  14.188  1.00142.10     0.195 A 
HETATM   10  N17 MIQ B 502      19.332   0.294  13.958  1.00139.42    -0.288 N 
HETATM   11  O16 MIQ B 502      18.449   2.486  13.370  1.00148.93    -0.171 OA
ENDROOT
BRANCH  10  12
HETATM   12  C18 MIQ B 502      18.830  -0.351  12.759  1.00139.82     0.187 C 
HETATM   13  C19 MIQ B 502      17.953  -1.531  13.195  1.00140.06     0.247 C 
HETATM   14  O25 MIQ B 502      17.099  -1.352  13.988  1.00143.95    -0.271 OA
HETATM   15  N20 MIQ B 502      18.139  -2.862  12.654  1.00140.02    -0.296 N 
HETATM   16  H13 MIQ B 502      17.564  -3.625  12.951  1.00142.77     0.171 HD
HETATM   17  C21 MIQ B 502      19.195  -3.058  11.694  1.00142.22     0.224 C 
HETATM   18  C22 MIQ B 502      20.442  -2.213  11.871  1.00139.52     0.106 C 
HETATM   19  O24 MIQ B 502      19.090  -3.835  10.810  1.00146.13    -0.273 OA
HETATM   20  C23 MIQ B 502      19.989  -0.765  11.854  1.00139.15     0.045 C 
ENDBRANCH  10  12
BRANCH   5  21
HETATM   21  N6  MIQ B 502      21.896   1.668  19.365  1.00140.95    -0.377 N 
HETATM   22  C7  MIQ B 502      23.221   1.072  19.389  1.00142.12     0.149 C 
HETATM   23  C8  MIQ B 502      23.546   0.462  20.746  1.00144.10     0.187 C 
HETATM   24  O9  MIQ B 502      23.259   1.320  21.810  1.00148.65    -0.388 OA
HETATM   25  C10 MIQ B 502      22.535   2.495  21.596  1.00147.44     0.187 C 
HETATM   26  C11 MIQ B 502      21.504   2.522  20.472  1.00144.08     0.149 C 
ENDBRANCH   5  21
TORSDOF 2
ENDMDL
MODEL 6
REMARK VINA RESULT:      -5.9      2.471      8.252
REMARK  2 active torsions:
REMARK  status: ('A' for Active; 'I' for Inactive)
REMARK    1  A    between atoms: C5_5  and  N6_21 
REMARK    2  A    between atoms: C18_14  and  N17_19 
ROOT
HETATM    1  O1  MIQ B 502      20.854  -2.251  10.684  1.00142.91    -0.171 OA
HETATM    2  C2  MIQ B 502      19.861  -3.012  11.305  1.00141.17     0.195 A 
HETATM    3  C3  MIQ B 502      18.785  -2.483  12.306  1.00141.71     0.035 A 
HETATM    4  C4  MIQ B 502      18.486  -1.144  12.867  1.00142.86     0.046 A 
HETATM    5  C5  MIQ B 502      17.414  -0.972  13.778  1.00139.53     0.031 A 
HETATM    6  C12 MIQ B 502      16.601  -2.117  14.162  1.00139.38     0.030 A 
HETATM    7  C13 MIQ B 502      16.886  -3.400  13.623  1.00141.18     0.019 A 
HETATM    8  C14 MIQ B 502      18.012  -3.575  12.666  1.00138.77     0.033 A 
HETATM    9  C15 MIQ B 502      18.612  -4.788  11.883  1.00142.10     0.195 A 
HETATM   10  N17 MIQ B 502      19.622  -4.306  11.179  1.00139.42    -0.288 N 
HETATM   11  O16 MIQ B 502      18.169  -6.111  11.926  1.00148.93    -0.171 OA
ENDROOT
BRANCH  10  12
HETATM   12  C18 MIQ B 502      20.433  -5.161  10.333  1.00139.82     0.187 C 
HETATM   13  C19 MIQ B 502      19.521  -5.745   9.247  1.00140.06     0.247 C 
HETATM   14  O25 MIQ B 502      18.840  -5.018   8.614  1.00143.95    -0.271 OA
HETATM   15  N20 MIQ B 502      19.475  -7.166   8.970  1.00140.02    -0.296 N 
HETATM   16  H13 MIQ B 502      18.870  -7.535   8.263  1.00142.77     0.171 HD
HETATM   17  C21 MIQ B 502      20.307  -8.035   9.763  1.00142.22     0.224 C 
HETATM   18  C22 MIQ B 502      20.536  -7.628  11.206  1.00139.52     0.106 C 
HETATM   19  O24 MIQ B 502      20.790  -9.012   9.307  1.00146.13    -0.273 OA
HETATM   20  C23 MIQ B 502      21.130  -6.232  11.171  1.00139.15     0.045 C 
ENDBRANCH  10  12
BRANCH   5  21
HETATM   21  N6  MIQ B 502      17.142   0.342  14.332  1.00140.95    -0.377 N 
HETATM   22  C7  MIQ B 502      18.221   1.053  14.997  1.00142.12     0.149 C 
HETATM   23  C8  MIQ B 502      17.699   2.032  16.040  1.00144.10     0.187 C 
HETATM   24  O9  MIQ B 502      16.662   2.835  15.561  1.00148.65    -0.388 OA
HETATM   25  C10 MIQ B 502      16.061   2.556  14.331  1.00147.44     0.187 C 
HETATM   26  C11 MIQ B 502      15.999   1.106  13.862  1.00144.08     0.149 C 
ENDBRANCH   5  21
TORSDOF 2
ENDMDL
MODEL 7
REMARK VINA RESULT:      -5.9      1.695      2.062
REMARK  2 active torsions:
REMARK  status: ('A' for Active; 'I' for Inactive)
REMARK    1  A    between atoms: C5_5  and  N6_21 
REMARK    2  A    between atoms: C18_14  and  N17_19 
ROOT
HETATM    1  O1  MIQ B 502      16.401  -0.360  13.517  1.00142.91    -0.171 OA
HETATM    2  C2  MIQ B 502      17.716  -0.624  13.906  1.00141.17     0.195 A 
HETATM    3  C3  MIQ B 502      18.431  -2.012  13.862  1.00141.71     0.035 A 
HETATM    4  C4  MIQ B 502      18.003  -3.365  13.436  1.00142.86     0.046 A 
HETATM    5  C5  MIQ B 502      18.901  -4.459  13.514  1.00139.53     0.031 A 
HETATM    6  C12 MIQ B 502      20.252  -4.250  14.015  1.00139.38     0.030 A 
HETATM    7  C13 MIQ B 502      20.664  -2.952  14.422  1.00141.18     0.019 A 
HETATM    8  C14 MIQ B 502      19.717  -1.807  14.336  1.00138.77     0.033 A 
HETATM    9  C15 MIQ B 502      19.801  -0.283  14.676  1.00142.10     0.195 A 
HETATM   10  N17 MIQ B 502      18.615   0.223  14.378  1.00139.42    -0.288 N 
HETATM   11  O16 MIQ B 502      20.905   0.398  15.191  1.00148.93    -0.171 OA
ENDROOT
BRANCH  10  12
HETATM   12  C18 MIQ B 502      18.320   1.629  14.582  1.00139.82     0.187 C 
HETATM   13  C19 MIQ B 502      17.006   1.721  15.368  1.00140.06     0.247 C 
HETATM   14  O25 MIQ B 502      16.884   1.097  16.362  1.00143.95    -0.271 OA
HETATM   15  N20 MIQ B 502      15.910   2.560  14.928  1.00140.02    -0.296 N 
HETATM   16  H13 MIQ B 502      15.055   2.606  15.447  1.00142.77     0.171 HD
HETATM   17  C21 MIQ B 502      16.078   3.304  13.707  1.00142.22     0.224 C 
HETATM   18  C22 MIQ B 502      16.917   2.654  12.623  1.00139.52     0.106 C 
HETATM   19  O24 MIQ B 502      15.591   4.371  13.561  1.00146.13    -0.273 OA
HETATM   20  C23 MIQ B 502      18.271   2.362  13.243  1.00139.15     0.045 C 
ENDBRANCH  10  12
BRANCH   5  21
HETATM   21  N6  MIQ B 502      18.464  -5.782  13.107  1.00140.95    -0.377 N 
HETATM   22  C7  MIQ B 502      19.175  -6.448  12.030  1.00142.12     0.149 C 
HETATM   23  C8  MIQ B 502      18.289  -7.446  11.295  1.00144.10     0.187 C 
HETATM   24  O9  MIQ B 502      17.589  -8.290  12.160  1.00148.65    -0.388 OA
HETATM   25  C10 MIQ B 502      17.568  -8.036  13.534  1.00147.44     0.187 C 
HETATM   26  C11 MIQ B 502      17.663  -6.591  14.010  1.00144.08     0.149 C 
ENDBRANCH   5  21
TORSDOF 2
ENDMDL
MODEL 8
REMARK VINA RESULT:      -5.8      5.432      6.792
REMARK  2 active torsions:
REMARK  status: ('A' for Active; 'I' for Inactive)
REMARK    1  A    between atoms: C5_5  and  N6_21 
REMARK    2  A    between atoms: C18_14  and  N17_19 
ROOT
HETATM    1  O1  MIQ B 502      20.985   0.757  18.407  1.00142.91    -0.171 OA
HETATM    2  C2  MIQ B 502      22.193   0.539  17.741  1.00141.17     0.195 A 
HETATM    3  C3  MIQ B 502      22.415  -0.412  16.521  1.00141.71     0.035 A 
HETATM    4  C4  MIQ B 502      21.518  -1.300  15.745  1.00142.86     0.046 A 
HETATM    5  C5  MIQ B 502      22.024  -2.059  14.660  1.00139.53     0.031 A 
HETATM    6  C12 MIQ B 502      23.434  -1.963  14.307  1.00139.38     0.030 A 
HETATM    7  C13 MIQ B 502      24.294  -1.111  15.050  1.00141.18     0.019 A 
HETATM    8  C14 MIQ B 502      23.756  -0.315  16.187  1.00138.77     0.033 A 
HETATM    9  C15 MIQ B 502      24.369   0.701  17.205  1.00142.10     0.195 A 
HETATM   10  N17 MIQ B 502      23.374   1.079  17.990  1.00139.42    -0.288 N 
HETATM   11  O16 MIQ B 502      25.700   1.120  17.269  1.00148.93    -0.171 OA
ENDROOT
BRANCH  10  12
HETATM   12  C18 MIQ B 502      23.580   2.018  19.076  1.00139.82     0.187 C 
HETATM   13  C19 MIQ B 502      23.209   1.309  20.384  1.00140.06     0.247 C 
HETATM   14  O25 MIQ B 502      23.680   0.253  20.620  1.00143.95    -0.271 OA
HETATM   15  N20 MIQ B 502      22.301   1.902  21.344  1.00140.02    -0.296 N 
HETATM   16  H13 MIQ B 502      22.062   1.426  22.191  1.00142.77     0.171 HD
HETATM   17  C21 MIQ B 502      21.731   3.187  21.029  1.00142.22     0.224 C 
HETATM   18  C22 MIQ B 502      21.455   3.469  19.565  1.00139.52     0.106 C 
HETATM   19  O24 MIQ B 502      21.497   3.982  21.871  1.00146.13    -0.273 OA
HETATM   20  C23 MIQ B 502      22.774   3.294  18.835  1.00139.15     0.045 C 
ENDBRANCH  10  12
BRANCH   5  21
HETATM   21  N6  MIQ B 502      21.138  -2.936  13.917  1.00140.95    -0.377 N 
HETATM   22  C7  MIQ B 502      20.325  -3.888  14.655  1.00142.12     0.149 C 
HETATM   23  C8  MIQ B 502      19.973  -5.108  13.813  1.00144.10     0.187 C 
HETATM   24  O9  MIQ B 502      19.497  -4.773  12.544  1.00148.65    -0.388 OA
HETATM   25  C10 MIQ B 502      19.584  -3.459  12.079  1.00147.44     0.187 C 
HETATM   26  C11 MIQ B 502      20.738  -2.588  12.565  1.00144.08     0.149 C 
ENDBRANCH   5  21
TORSDOF 2
ENDMDL
MODEL 9
REMARK VINA RESULT:      -5.8      2.276      8.517
REMARK  2 active torsions:
REMARK  status: ('A' for Active; 'I' for Inactive)
REMARK    1  A    between atoms: C5_5  and  N6_21 
REMARK    2  A    between atoms: C18_14  and  N17_19 
ROOT
HETATM    1  O1  MIQ B 502      16.824  -7.261  14.239  1.00142.91    -0.171 OA
HETATM    2  C2  MIQ B 502      18.174  -6.978  14.018  1.00141.17     0.195 A 
HETATM    3  C3  MIQ B 502      18.785  -5.572  13.718  1.00141.71     0.035 A 
HETATM    4  C4  MIQ B 502      18.202  -4.216  13.583  1.00142.86     0.046 A 
HETATM    5  C5  MIQ B 502      19.034  -3.103  13.301  1.00139.53     0.031 A 
HETATM    6  C12 MIQ B 502      20.469  -3.295  13.142  1.00139.38     0.030 A 
HETATM    7  C13 MIQ B 502      21.027  -4.595  13.272  1.00141.18     0.019 A 
HETATM    8  C14 MIQ B 502      20.149  -5.759  13.571  1.00138.77     0.033 A 
HETATM    9  C15 MIQ B 502      20.387  -7.290  13.783  1.00142.10     0.195 A 
HETATM   10  N17 MIQ B 502      19.197  -7.815  14.022  1.00139.42    -0.288 N 
HETATM   11  O16 MIQ B 502      21.610  -7.961  13.727  1.00148.93    -0.171 OA
ENDROOT
BRANCH  10  12
HETATM   12  C18 MIQ B 502      19.030  -9.238  14.253  1.00139.82     0.187 C 
HETATM   13  C19 MIQ B 502      17.981  -9.753  13.260  1.00140.06     0.247 C 
HETATM   14  O25 MIQ B 502      18.103  -9.505  12.113  1.00143.95    -0.271 OA
HETATM   15  N20 MIQ B 502      16.845 -10.542  13.690  1.00140.02    -0.296 N 
HETATM   16  H13 MIQ B 502      16.164 -10.867  13.032  1.00142.77     0.171 HD
HETATM   17  C21 MIQ B 502      16.712 -10.823  15.096  1.00142.22     0.224 C 
HETATM   18  C22 MIQ B 502      17.199  -9.753  16.054  1.00139.52     0.106 C 
HETATM   19  O24 MIQ B 502      16.251 -11.841  15.482  1.00146.13    -0.273 OA
HETATM   20  C23 MIQ B 502      18.656  -9.499  15.712  1.00139.15     0.045 C 
ENDBRANCH  10  12
BRANCH   5  21
HETATM   21  N6  MIQ B 502      18.448  -1.783  13.157  1.00140.95    -0.377 N 
HETATM   22  C7  MIQ B 502      17.501  -1.330  14.161  1.00142.12     0.149 C 
HETATM   23  C8  MIQ B 502      16.524  -0.305  13.601  1.00144.10     0.187 C 
HETATM   24  O9  MIQ B 502      17.156   0.708  12.876  1.00148.65    -0.388 OA
HETATM   25  C10 MIQ B 502      18.508   0.602  12.542  1.00147.44     0.187 C 
HETATM   26  C11 MIQ B 502      19.098  -0.788  12.322  1.00144.08     0.149 C 
ENDBRANCH   5  21
TORSDOF 2
ENDMDL
