MODEL 1
REMARK VINA RESULT:      -5.9      0.000      0.000
REMARK  2 active torsions:
REMARK  status: ('A' for Active; 'I' for Inactive)
REMARK    1  A    between atoms: C5_5  and  N6_21 
REMARK    2  A    between atoms: C18_14  and  N17_19 
ROOT
HETATM    1  O1  MIQ B 502       1.928 -17.880  13.879  1.00142.91    -0.171 OA
HETATM    2  C2  MIQ B 502       2.683 -18.489  14.884  1.00141.17     0.195 A 
HETATM    3  C3  MIQ B 502       4.219 -18.324  15.111  1.00141.71     0.035 A 
HETATM    4  C4  MIQ B 502       5.275 -17.549  14.418  1.00142.86     0.046 A 
HETATM    5  C5  MIQ B 502       6.617 -17.600  14.871  1.00139.53     0.031 A 
HETATM    6  C12 MIQ B 502       6.959 -18.420  16.025  1.00139.38     0.030 A 
HETATM    7  C13 MIQ B 502       5.947 -19.163  16.691  1.00141.18     0.019 A 
HETATM    8  C14 MIQ B 502       4.539 -19.103  16.212  1.00138.77     0.033 A 
HETATM    9  C15 MIQ B 502       3.194 -19.754  16.670  1.00142.10     0.195 A 
HETATM   10  N17 MIQ B 502       2.270 -19.310  15.834  1.00139.42    -0.288 N 
HETATM   11  O16 MIQ B 502       3.011 -20.628  17.743  1.00148.93    -0.171 OA
ENDROOT
BRANCH  10  12
HETATM   12  C18 MIQ B 502       0.884 -19.724  15.948  1.00139.82     0.187 C 
HETATM   13  C19 MIQ B 502       0.467 -20.338  14.605  1.00140.06     0.247 C 
HETATM   14  O25 MIQ B 502       1.139 -21.179  14.123  1.00143.95    -0.271 OA
HETATM   15  N20 MIQ B 502      -0.735 -19.918  13.914  1.00140.02    -0.296 N 
HETATM   16  H13 MIQ B 502      -0.992 -20.322  13.035  1.00142.77     0.171 HD
HETATM   17  C21 MIQ B 502      -1.533 -18.883  14.517  1.00142.22     0.224 C 
HETATM   18  C22 MIQ B 502      -0.790 -17.817  15.299  1.00139.52     0.106 C 
HETATM   19  O24 MIQ B 502      -2.710 -18.870  14.412  1.00146.13    -0.273 OA
HETATM   20  C23 MIQ B 502       0.009 -18.544  16.366  1.00139.15     0.045 C 
ENDBRANCH  10  12
BRANCH   5  21
HETATM   21  N6  MIQ B 502       7.643 -16.847  14.173  1.00140.95    -0.377 N 
HETATM   22  C7  MIQ B 502       8.923 -16.645  14.829  1.00142.12     0.149 C 
HETATM   23  C8  MIQ B 502       9.619 -15.381  14.341  1.00144.10     0.187 C 
HETATM   24  O9  MIQ B 502       9.638 -15.275  12.949  1.00148.65    -0.388 OA
HETATM   25  C10 MIQ B 502       8.879 -16.145  12.162  1.00147.44     0.187 C 
HETATM   26  C11 MIQ B 502       7.574 -16.692  12.731  1.00144.08     0.149 C 
ENDBRANCH   5  21
TORSDOF 2
ENDMDL
MODEL 2
REMARK VINA RESULT:      -5.8      2.014      3.196
REMARK  2 active torsions:
REMARK  status: ('A' for Active; 'I' for Inactive)
REMARK    1  A    between atoms: C5_5  and  N6_21 
REMARK    2  A    between atoms: C18_14  and  N17_19 
ROOT
HETATM    1  O1  MIQ B 502       5.896 -18.150  17.019  1.00142.91    -0.171 OA
HETATM    2  C2  MIQ B 502       5.439 -17.868  15.730  1.00141.17     0.195 A 
HETATM    3  C3  MIQ B 502       6.321 -17.450  14.510  1.00141.71     0.035 A 
HETATM    4  C4  MIQ B 502       7.777 -17.238  14.331  1.00142.86     0.046 A 
HETATM    5  C5  MIQ B 502       8.295 -16.851  13.069  1.00139.53     0.031 A 
HETATM    6  C12 MIQ B 502       7.390 -16.662  11.944  1.00139.38     0.030 A 
HETATM    7  C13 MIQ B 502       5.994 -16.866  12.115  1.00141.18     0.019 A 
HETATM    8  C14 MIQ B 502       5.457 -17.275  13.442  1.00138.77     0.033 A 
HETATM    9  C15 MIQ B 502       4.030 -17.587  14.001  1.00142.10     0.195 A 
HETATM   10  N17 MIQ B 502       4.198 -17.899  15.276  1.00139.42    -0.288 N 
HETATM   11  O16 MIQ B 502       2.827 -17.540  13.295  1.00148.93    -0.171 OA
ENDROOT
BRANCH  10  12
HETATM   12  C18 MIQ B 502       3.073 -18.236  16.128  1.00139.82     0.187 C 
HETATM   13  C19 MIQ B 502       2.305 -19.382  15.457  1.00140.06     0.247 C 
HETATM   14  O25 MIQ B 502       2.894 -20.342  15.106  1.00143.95    -0.271 OA
HETATM   15  N20 MIQ B 502       0.873 -19.322  15.247  1.00140.02    -0.296 N 
HETATM   16  H13 MIQ B 502       0.385 -20.074  14.802  1.00142.77     0.171 HD
HETATM   17  C21 MIQ B 502       0.178 -18.136  15.675  1.00142.22     0.224 C 
HETATM   18  C22 MIQ B 502       0.937 -16.827  15.572  1.00139.52     0.106 C 
HETATM   19  O24 MIQ B 502      -0.928 -18.183  16.091  1.00146.13    -0.273 OA
HETATM   20  C23 MIQ B 502       2.209 -17.001  16.381  1.00139.15     0.045 C 
ENDBRANCH  10  12
BRANCH   5  21
HETATM   21  N6  MIQ B 502       9.721 -16.633  12.911  1.00140.95    -0.377 N 
HETATM   22  C7  MIQ B 502      10.240 -15.286  13.076  1.00142.12     0.149 C 
HETATM   23  C8  MIQ B 502      11.527 -15.072  12.289  1.00144.10     0.187 C 
HETATM   24  O9  MIQ B 502      12.456 -16.097  12.479  1.00148.65    -0.388 OA
HETATM   25  C10 MIQ B 502      12.089 -17.272  13.139  1.00147.44     0.187 C 
HETATM   26  C11 MIQ B 502      10.644 -17.748  13.031  1.00144.08     0.149 C 
ENDBRANCH   5  21
TORSDOF 2
ENDMDL
MODEL 3
REMARK VINA RESULT:      -5.7     21.187     23.180
REMARK  2 active torsions:
REMARK  status: ('A' for Active; 'I' for Inactive)
REMARK    1  A    between atoms: C5_5  and  N6_21 
REMARK    2  A    between atoms: C18_14  and  N17_19 
ROOT
HETATM    1  O1  MIQ B 502       5.321 -36.387   3.037  1.00142.91    -0.171 OA
HETATM    2  C2  MIQ B 502       5.710 -35.919   1.780  1.00141.17     0.195 A 
HETATM    3  C3  MIQ B 502       4.800 -35.176   0.750  1.00141.71     0.035 A 
HETATM    4  C4  MIQ B 502       3.378 -34.760   0.762  1.00142.86     0.046 A 
HETATM    5  C5  MIQ B 502       2.821 -34.081  -0.351  1.00139.53     0.031 A 
HETATM    6  C12 MIQ B 502       3.652 -33.790  -1.510  1.00139.38     0.030 A 
HETATM    7  C13 MIQ B 502       5.017 -34.187  -1.521  1.00141.18     0.019 A 
HETATM    8  C14 MIQ B 502       5.596 -34.898  -0.349  1.00138.77     0.033 A 
HETATM    9  C15 MIQ B 502       7.008 -35.472   0.000  1.00142.10     0.195 A 
HETATM   10  N17 MIQ B 502       6.900 -35.998   1.209  1.00139.42    -0.288 N 
HETATM   11  O16 MIQ B 502       8.148 -35.435  -0.805  1.00148.93    -0.171 OA
ENDROOT
BRANCH  10  12
HETATM   12  C18 MIQ B 502       8.026 -36.644   1.857  1.00139.82     0.187 C 
HETATM   13  C19 MIQ B 502       7.574 -38.043   2.294  1.00140.06     0.247 C 
HETATM   14  O25 MIQ B 502       7.052 -38.752   1.508  1.00143.95    -0.271 OA
HETATM   15  N20 MIQ B 502       7.775 -38.523   3.646  1.00140.02    -0.296 N 
HETATM   16  H13 MIQ B 502       7.469 -39.436   3.921  1.00142.77     0.171 HD
HETATM   17  C21 MIQ B 502       8.404 -37.636   4.590  1.00142.22     0.224 C 
HETATM   18  C22 MIQ B 502       8.119 -36.155   4.428  1.00139.52     0.106 C 
HETATM   19  O24 MIQ B 502       9.112 -38.044   5.445  1.00146.13    -0.273 OA
HETATM   20  C23 MIQ B 502       8.536 -35.788   3.016  1.00139.15     0.045 C 
ENDBRANCH  10  12
BRANCH   5  21
HETATM   21  N6  MIQ B 502       1.422 -33.693  -0.333  1.00140.95    -0.377 N 
HETATM   22  C7  MIQ B 502       0.998 -32.582  -1.168  1.00142.12     0.149 C 
HETATM   23  C8  MIQ B 502      -0.237 -31.888  -0.608  1.00144.10     0.187 C 
HETATM   24  O9  MIQ B 502      -1.246 -32.783  -0.247  1.00148.65    -0.388 OA
HETATM   25  C10 MIQ B 502      -0.994 -34.156  -0.209  1.00147.44     0.187 C 
HETATM   26  C11 MIQ B 502       0.415 -34.630   0.133  1.00144.08     0.149 C 
ENDBRANCH   5  21
TORSDOF 2
ENDMDL
MODEL 4
REMARK VINA RESULT:      -5.6     11.245     14.451
REMARK  2 active torsions:
REMARK  status: ('A' for Active; 'I' for Inactive)
REMARK    1  A    between atoms: C5_5  and  N6_21 
REMARK    2  A    between atoms: C18_14  and  N17_19 
ROOT
HETATM    1  O1  MIQ B 502      -7.516 -24.445   9.034  1.00142.91    -0.171 OA
HETATM    2  C2  MIQ B 502      -8.159 -24.477  10.274  1.00141.17     0.195 A 
HETATM    3  C3  MIQ B 502      -8.318 -23.278  11.262  1.00141.71     0.035 A 
HETATM    4  C4  MIQ B 502      -7.891 -21.859  11.220  1.00142.86     0.046 A 
HETATM    5  C5  MIQ B 502      -8.191 -20.988  12.297  1.00139.53     0.031 A 
HETATM    6  C12 MIQ B 502      -8.923 -21.491  13.451  1.00139.38     0.030 A 
HETATM    7  C13 MIQ B 502      -9.334 -22.851  13.491  1.00141.18     0.019 A 
HETATM    8  C14 MIQ B 502      -9.018 -23.760  12.356  1.00138.77     0.033 A 
HETATM    9  C15 MIQ B 502      -9.296 -25.267  12.045  1.00142.10     0.195 A 
HETATM   10  N17 MIQ B 502      -8.758 -25.500  10.859  1.00139.42    -0.288 N 
HETATM   11  O16 MIQ B 502      -9.971 -26.178  12.859  1.00148.93    -0.171 OA
ENDROOT
BRANCH  10  12
HETATM   12  C18 MIQ B 502      -8.810 -26.816  10.249  1.00139.82     0.187 C 
HETATM   13  C19 MIQ B 502      -7.371 -27.245   9.940  1.00140.06     0.247 C 
HETATM   14  O25 MIQ B 502      -6.557 -27.186  10.791  1.00143.95    -0.271 OA
HETATM   15  N20 MIQ B 502      -6.982 -27.728   8.630  1.00140.02    -0.296 N 
HETATM   16  H13 MIQ B 502      -6.038 -27.999   8.439  1.00142.77     0.171 HD
HETATM   17  C21 MIQ B 502      -7.992 -27.781   7.604  1.00142.22     0.224 C 
HETATM   18  C22 MIQ B 502      -9.061 -26.706   7.645  1.00139.52     0.106 C 
HETATM   19  O24 MIQ B 502      -7.987 -28.624   6.776  1.00146.13    -0.273 OA
HETATM   20  C23 MIQ B 502      -9.710 -26.795   9.014  1.00139.15     0.045 C 
ENDBRANCH  10  12
BRANCH   5  21
HETATM   21  N6  MIQ B 502      -7.754 -19.605  12.249  1.00140.95    -0.377 N 
HETATM   22  C7  MIQ B 502      -6.349 -19.329  12.003  1.00142.12     0.149 C 
HETATM   23  C8  MIQ B 502      -5.920 -17.993  12.597  1.00144.10     0.187 C 
HETATM   24  O9  MIQ B 502      -6.796 -16.952  12.284  1.00148.65    -0.388 OA
HETATM   25  C10 MIQ B 502      -8.032 -17.222  11.690  1.00147.44     0.187 C 
HETATM   26  C11 MIQ B 502      -8.719 -18.547  12.005  1.00144.08     0.149 C 
ENDBRANCH   5  21
TORSDOF 2
ENDMDL
MODEL 5
REMARK VINA RESULT:      -5.5     18.670     21.312
REMARK  2 active torsions:
REMARK  status: ('A' for Active; 'I' for Inactive)
REMARK    1  A    between atoms: C5_5  and  N6_21 
REMARK    2  A    between atoms: C18_14  and  N17_19 
ROOT
HETATM    1  O1  MIQ B 502       2.494 -27.868  -1.519  1.00142.91    -0.171 OA
HETATM    2  C2  MIQ B 502       1.146 -27.847  -1.884  1.00141.17     0.195 A 
HETATM    3  C3  MIQ B 502       0.125 -29.016  -1.707  1.00141.71     0.035 A 
HETATM    4  C4  MIQ B 502       0.230 -30.386  -1.151  1.00142.86     0.046 A 
HETATM    5  C5  MIQ B 502      -0.903 -31.238  -1.124  1.00139.53     0.031 A 
HETATM    6  C12 MIQ B 502      -2.177 -30.763  -1.645  1.00139.38     0.030 A 
HETATM    7  C13 MIQ B 502      -2.278 -29.449  -2.177  1.00141.18     0.019 A 
HETATM    8  C14 MIQ B 502      -1.086 -28.558  -2.200  1.00138.77     0.033 A 
HETATM    9  C15 MIQ B 502      -0.815 -27.097  -2.686  1.00142.10     0.195 A 
HETATM   10  N17 MIQ B 502       0.462 -26.860  -2.437  1.00139.42    -0.288 N 
HETATM   11  O16 MIQ B 502      -1.737 -26.225  -3.266  1.00148.93    -0.171 OA
ENDROOT
BRANCH  10  12
HETATM   12  C18 MIQ B 502       1.077 -25.590  -2.775  1.00139.82     0.187 C 
HETATM   13  C19 MIQ B 502       2.329 -25.885  -3.612  1.00140.06     0.247 C 
HETATM   14  O25 MIQ B 502       2.241 -26.595  -4.549  1.00143.95    -0.271 OA
HETATM   15  N20 MIQ B 502       3.618 -25.310  -3.286  1.00140.02    -0.296 N 
HETATM   16  H13 MIQ B 502       4.428 -25.515  -3.836  1.00142.77     0.171 HD
HETATM   17  C21 MIQ B 502       3.702 -24.454  -2.131  1.00142.22     0.224 C 
HETATM   18  C22 MIQ B 502       2.793 -24.792  -0.965  1.00139.52     0.106 C 
HETATM   19  O24 MIQ B 502       4.440 -23.532  -2.097  1.00146.13    -0.273 OA
HETATM   20  C23 MIQ B 502       1.375 -24.789  -1.509  1.00139.15     0.045 C 
ENDBRANCH  10  12
BRANCH   5  21
HETATM   21  N6  MIQ B 502      -0.782 -32.582  -0.591  1.00140.95    -0.377 N 
HETATM   22  C7  MIQ B 502      -1.719 -33.596  -1.042  1.00142.12     0.149 C 
HETATM   23  C8  MIQ B 502      -1.913 -34.694  -0.005  1.00144.10     0.187 C 
HETATM   24  O9  MIQ B 502      -0.707 -35.181   0.503  1.00148.65    -0.388 OA
HETATM   25  C10 MIQ B 502       0.495 -34.525   0.224  1.00147.44     0.187 C 
HETATM   26  C11 MIQ B 502       0.469 -33.016   0.007  1.00144.08     0.149 C 
ENDBRANCH   5  21
TORSDOF 2
ENDMDL
MODEL 6
REMARK VINA RESULT:      -5.4     18.228     19.892
REMARK  2 active torsions:
REMARK  status: ('A' for Active; 'I' for Inactive)
REMARK    1  A    between atoms: C5_5  and  N6_21 
REMARK    2  A    between atoms: C18_14  and  N17_19 
ROOT
HETATM    1  O1  MIQ B 502       0.362 -30.231  -0.411  1.00142.91    -0.171 OA
HETATM    2  C2  MIQ B 502      -0.186 -29.278  -1.273  1.00141.17     0.195 A 
HETATM    3  C3  MIQ B 502       0.511 -27.970  -1.765  1.00141.71     0.035 A 
HETATM    4  C4  MIQ B 502       1.842 -27.368  -1.515  1.00142.86     0.046 A 
HETATM    5  C5  MIQ B 502       2.197 -26.137  -2.122  1.00139.53     0.031 A 
HETATM    6  C12 MIQ B 502       1.249 -25.462  -2.997  1.00139.38     0.030 A 
HETATM    7  C13 MIQ B 502      -0.026 -26.040  -3.239  1.00141.18     0.019 A 
HETATM    8  C14 MIQ B 502      -0.393 -27.333  -2.600  1.00138.77     0.033 A 
HETATM    9  C15 MIQ B 502      -1.658 -28.252  -2.626  1.00142.10     0.195 A 
HETATM   10  N17 MIQ B 502      -1.378 -29.282  -1.845  1.00139.42    -0.288 N 
HETATM   11  O16 MIQ B 502      -2.842 -28.025  -3.331  1.00148.93    -0.171 OA
ENDROOT
BRANCH  10  12
HETATM   12  C18 MIQ B 502      -2.341 -30.344  -1.617  1.00139.82     0.187 C 
HETATM   13  C19 MIQ B 502      -2.465 -30.544  -0.102  1.00140.06     0.247 C 
HETATM   14  O25 MIQ B 502      -2.669 -29.609   0.588  1.00143.95    -0.271 OA
HETATM   15  N20 MIQ B 502      -2.346 -31.852   0.508  1.00140.02    -0.296 N 
HETATM   16  H13 MIQ B 502      -2.423 -31.969   1.500  1.00142.77     0.171 HD
HETATM   17  C21 MIQ B 502      -2.086 -32.977  -0.353  1.00142.22     0.224 C 
HETATM   18  C22 MIQ B 502      -1.229 -32.714  -1.577  1.00139.52     0.106 C 
HETATM   19  O24 MIQ B 502      -2.525 -34.049  -0.119  1.00146.13    -0.273 OA
HETATM   20  C23 MIQ B 502      -1.919 -31.612  -2.358  1.00139.15     0.045 C 
ENDBRANCH  10  12
BRANCH   5  21
HETATM   21  N6  MIQ B 502       3.499 -25.551  -1.856  1.00140.95    -0.377 N 
HETATM   22  C7  MIQ B 502       4.602 -25.880  -2.741  1.00142.12     0.149 C 
HETATM   23  C8  MIQ B 502       5.949 -25.765  -2.038  1.00144.10     0.187 C 
HETATM   24  O9  MIQ B 502       6.090 -24.572  -1.326  1.00148.65    -0.388 OA
HETATM   25  C10 MIQ B 502       4.991 -23.732  -1.127  1.00147.44     0.187 C 
HETATM   26  C11 MIQ B 502       3.603 -24.357  -1.036  1.00144.08     0.149 C 
ENDBRANCH   5  21
TORSDOF 2
ENDMDL
MODEL 7
REMARK VINA RESULT:      -5.4     20.857     22.108
REMARK  2 active torsions:
REMARK  status: ('A' for Active; 'I' for Inactive)
REMARK    1  A    between atoms: C5_5  and  N6_21 
REMARK    2  A    between atoms: C18_14  and  N17_19 
ROOT
HETATM    1  O1  MIQ B 502       0.379 -33.860   0.980  1.00142.91    -0.171 OA
HETATM    2  C2  MIQ B 502       1.205 -33.701  -0.135  1.00141.17     0.195 A 
HETATM    3  C3  MIQ B 502       2.713 -34.095  -0.230  1.00141.71     0.035 A 
HETATM    4  C4  MIQ B 502       3.668 -34.705   0.725  1.00142.86     0.046 A 
HETATM    5  C5  MIQ B 502       5.010 -34.950   0.339  1.00139.53     0.031 A 
HETATM    6  C12 MIQ B 502       5.451 -34.600  -1.004  1.00139.38     0.030 A 
HETATM    7  C13 MIQ B 502       4.535 -34.016  -1.920  1.00141.18     0.019 A 
HETATM    8  C14 MIQ B 502       3.127 -33.763  -1.509  1.00138.77     0.033 A 
HETATM    9  C15 MIQ B 502       1.868 -33.160  -2.214  1.00142.10     0.195 A 
HETATM   10  N17 MIQ B 502       0.894 -33.201  -1.319  1.00139.42    -0.288 N 
HETATM   11  O16 MIQ B 502       1.793 -32.676  -3.521  1.00148.93    -0.171 OA
ENDROOT
BRANCH  10  12
HETATM   12  C18 MIQ B 502      -0.434 -32.703  -1.623  1.00139.82     0.187 C 
HETATM   13  C19 MIQ B 502      -0.800 -31.666  -0.554  1.00140.06     0.247 C 
HETATM   14  O25 MIQ B 502      -0.045 -30.791  -0.317  1.00143.95    -0.271 OA
HETATM   15  N20 MIQ B 502      -2.052 -31.727   0.172  1.00140.02    -0.296 N 
HETATM   16  H13 MIQ B 502      -2.276 -31.047   0.873  1.00142.77     0.171 HD
HETATM   17  C21 MIQ B 502      -2.953 -32.810  -0.126  1.00142.22     0.224 C 
HETATM   18  C22 MIQ B 502      -2.322 -34.135  -0.509  1.00139.52     0.106 C 
HETATM   19  O24 MIQ B 502      -4.126 -32.669  -0.080  1.00146.13    -0.273 OA
HETATM   20  C23 MIQ B 502      -1.430 -33.859  -1.705  1.00139.15     0.045 C 
ENDBRANCH  10  12
BRANCH   5  21
HETATM   21  N6  MIQ B 502       5.939 -35.535   1.289  1.00140.95    -0.377 N 
HETATM   22  C7  MIQ B 502       5.435 -35.951   2.586  1.00142.12     0.149 C 
HETATM   23  C8  MIQ B 502       6.521 -35.923   3.654  1.00144.10     0.187 C 
HETATM   24  O9  MIQ B 502       7.702 -36.546   3.245  1.00148.65    -0.388 OA
HETATM   25  C10 MIQ B 502       7.878 -36.920   1.910  1.00147.44     0.187 C 
HETATM   26  C11 MIQ B 502       7.196 -36.094   0.824  1.00144.08     0.149 C 
ENDBRANCH   5  21
TORSDOF 2
ENDMDL
MODEL 8
REMARK VINA RESULT:      -5.3      2.056      8.275
REMARK  2 active torsions:
REMARK  status: ('A' for Active; 'I' for Inactive)
REMARK    1  A    between atoms: C5_5  and  N6_21 
REMARK    2  A    between atoms: C18_14  and  N17_19 
ROOT
HETATM    1  O1  MIQ B 502       5.881 -16.536  11.517  1.00142.91    -0.171 OA
HETATM    2  C2  MIQ B 502       6.098 -17.038  12.802  1.00141.17     0.195 A 
HETATM    3  C3  MIQ B 502       4.999 -17.529  13.797  1.00141.71     0.035 A 
HETATM    4  C4  MIQ B 502       3.521 -17.620  13.721  1.00142.86     0.046 A 
HETATM    5  C5  MIQ B 502       2.777 -18.124  14.817  1.00139.53     0.031 A 
HETATM    6  C12 MIQ B 502       3.468 -18.555  16.023  1.00139.38     0.030 A 
HETATM    7  C13 MIQ B 502       4.885 -18.469  16.097  1.00141.18     0.019 A 
HETATM    8  C14 MIQ B 502       5.662 -17.941  14.942  1.00138.77     0.033 A 
HETATM    9  C15 MIQ B 502       7.180 -17.705  14.655  1.00142.10     0.195 A 
HETATM   10  N17 MIQ B 502       7.248 -17.206  13.432  1.00139.42    -0.288 N 
HETATM   11  O16 MIQ B 502       8.245 -17.967  15.520  1.00148.93    -0.171 OA
ENDROOT
BRANCH  10  12
HETATM   12  C18 MIQ B 502       8.518 -16.846  12.830  1.00139.82     0.187 C 
HETATM   13  C19 MIQ B 502       9.431 -18.076  12.893  1.00140.06     0.247 C 
HETATM   14  O25 MIQ B 502       9.032 -19.111  12.492  1.00143.95    -0.271 OA
HETATM   15  N20 MIQ B 502      10.776 -18.002  13.427  1.00140.02    -0.296 N 
HETATM   16  H13 MIQ B 502      11.360 -18.814  13.469  1.00142.77     0.171 HD
HETATM   17  C21 MIQ B 502      11.237 -16.729  13.920  1.00142.22     0.224 C 
HETATM   18  C22 MIQ B 502      10.198 -15.831  14.563  1.00139.52     0.106 C 
HETATM   19  O24 MIQ B 502      12.368 -16.402  13.822  1.00146.13    -0.273 OA
HETATM   20  C23 MIQ B 502       9.108 -15.622  13.528  1.00139.15     0.045 C 
ENDBRANCH  10  12
BRANCH   5  21
HETATM   21  N6  MIQ B 502       1.329 -18.194  14.734  1.00140.95    -0.377 N 
HETATM   22  C7  MIQ B 502       0.664 -19.400  15.196  1.00142.12     0.149 C 
HETATM   23  C8  MIQ B 502      -0.672 -19.617  14.496  1.00144.10     0.187 C 
HETATM   24  O9  MIQ B 502      -1.466 -18.469  14.473  1.00148.65    -0.388 OA
HETATM   25  C10 MIQ B 502      -0.936 -17.234  14.856  1.00147.44     0.187 C 
HETATM   26  C11 MIQ B 502       0.549 -16.974  14.624  1.00144.08     0.149 C 
ENDBRANCH   5  21
TORSDOF 2
ENDMDL
MODEL 9
REMARK VINA RESULT:      -5.2      9.186     10.556
REMARK  2 active torsions:
REMARK  status: ('A' for Active; 'I' for Inactive)
REMARK    1  A    between atoms: C5_5  and  N6_21 
REMARK    2  A    between atoms: C18_14  and  N17_19 
ROOT
HETATM    1  O1  MIQ B 502      10.297 -22.544  12.712  1.00142.91    -0.171 OA
HETATM    2  C2  MIQ B 502       9.678 -23.570  11.995  1.00141.17     0.195 A 
HETATM    3  C3  MIQ B 502      10.375 -24.845  11.422  1.00141.71     0.035 A 
HETATM    4  C4  MIQ B 502      11.772 -25.341  11.446  1.00142.86     0.046 A 
HETATM    5  C5  MIQ B 502      12.107 -26.569  10.822  1.00139.53     0.031 A 
HETATM    6  C12 MIQ B 502      11.073 -27.346  10.155  1.00139.38     0.030 A 
HETATM    7  C13 MIQ B 502       9.734 -26.872  10.132  1.00141.18     0.019 A 
HETATM    8  C14 MIQ B 502       9.387 -25.583  10.791  1.00138.77     0.033 A 
HETATM    9  C15 MIQ B 502       8.069 -24.762  10.974  1.00142.10     0.195 A 
HETATM   10  N17 MIQ B 502       8.404 -23.683  11.661  1.00139.42    -0.288 N 
HETATM   11  O16 MIQ B 502       6.800 -25.103  10.503  1.00148.93    -0.171 OA
ENDROOT
BRANCH  10  12
HETATM   12  C18 MIQ B 502       7.423 -22.671  12.007  1.00139.82     0.187 C 
HETATM   13  C19 MIQ B 502       7.917 -21.330  11.451  1.00140.06     0.247 C 
HETATM   14  O25 MIQ B 502       8.241 -21.261  10.318  1.00143.95    -0.271 OA
HETATM   15  N20 MIQ B 502       7.994 -20.142  12.276  1.00140.02    -0.296 N 
HETATM   16  H13 MIQ B 502       8.324 -19.274  11.902  1.00142.77     0.171 HD
HETATM   17  C21 MIQ B 502       7.603 -20.254  13.658  1.00142.22     0.224 C 
HETATM   18  C22 MIQ B 502       7.889 -21.578  14.341  1.00139.52     0.106 C 
HETATM   19  O24 MIQ B 502       7.081 -19.360  14.227  1.00146.13    -0.273 OA
HETATM   20  C23 MIQ B 502       7.194 -22.647  13.518  1.00139.15     0.045 C 
ENDBRANCH  10  12
BRANCH   5  21
HETATM   21  N6  MIQ B 502      13.482 -27.035  10.841  1.00140.95    -0.377 N 
HETATM   22  C7  MIQ B 502      14.124 -27.357   9.578  1.00142.12     0.149 C 
HETATM   23  C8  MIQ B 502      15.231 -28.388   9.750  1.00144.10     0.187 C 
HETATM   24  O9  MIQ B 502      16.100 -28.083  10.800  1.00148.65    -0.388 OA
HETATM   25  C10 MIQ B 502      15.790 -27.061  11.700  1.00147.44     0.187 C 
HETATM   26  C11 MIQ B 502      14.323 -26.767  11.995  1.00144.08     0.149 C 
ENDBRANCH   5  21
TORSDOF 2
ENDMDL
