MODEL 1
REMARK VINA RESULT:      -5.8      0.000      0.000
REMARK  2 active torsions:
REMARK  status: ('A' for Active; 'I' for Inactive)
REMARK    1  A    between atoms: C5_5  and  N6_21 
REMARK    2  A    between atoms: C18_14  and  N17_19 
ROOT
HETATM    1  O1  MIQ B 502      -5.857  -9.656 -26.447  1.00142.91    -0.171 OA
HETATM    2  C2  MIQ B 502      -7.240  -9.730 -26.262  1.00141.17     0.195 A 
HETATM    3  C3  MIQ B 502      -8.144 -10.970 -26.550  1.00141.71     0.035 A 
HETATM    4  C4  MIQ B 502      -7.870 -12.335 -27.057  1.00142.86     0.046 A 
HETATM    5  C5  MIQ B 502      -8.927 -13.267 -27.215  1.00139.53     0.031 A 
HETATM    6  C12 MIQ B 502     -10.288 -12.879 -26.876  1.00139.38     0.030 A 
HETATM    7  C13 MIQ B 502     -10.552 -11.571 -26.388  1.00141.18     0.019 A 
HETATM    8  C14 MIQ B 502      -9.438 -10.598 -26.222  1.00138.77     0.033 A 
HETATM    9  C15 MIQ B 502      -9.336  -9.118 -25.727  1.00142.10     0.195 A 
HETATM   10  N17 MIQ B 502      -8.056  -8.793 -25.810  1.00139.42    -0.288 N 
HETATM   11  O16 MIQ B 502     -10.386  -8.308 -25.291  1.00148.93    -0.171 OA
ENDROOT
BRANCH  10  12
HETATM   12  C18 MIQ B 502      -7.585  -7.471 -25.442  1.00139.82     0.187 C 
HETATM   13  C19 MIQ B 502      -8.043  -7.194 -24.004  1.00140.06     0.247 C 
HETATM   14  O25 MIQ B 502      -7.817  -7.991 -23.165  1.00143.95    -0.271 OA
HETATM   15  N20 MIQ B 502      -8.742  -5.977 -23.646  1.00140.02    -0.296 N 
HETATM   16  H13 MIQ B 502      -9.041  -5.811 -22.705  1.00142.77     0.171 HD
HETATM   17  C21 MIQ B 502      -9.015  -5.024 -24.691  1.00142.22     0.224 C 
HETATM   18  C22 MIQ B 502      -9.293  -5.587 -26.071  1.00139.52     0.106 C 
HETATM   19  O24 MIQ B 502      -9.018  -3.861 -24.481  1.00146.13    -0.273 OA
HETATM   20  C23 MIQ B 502      -8.087  -6.431 -26.443  1.00139.15     0.045 C 
ENDBRANCH  10  12
BRANCH   5  21
HETATM   21  N6  MIQ B 502      -8.645 -14.596 -27.728  1.00140.95    -0.377 N 
HETATM   22  C7  MIQ B 502      -8.653 -14.802 -29.166  1.00142.12     0.149 C 
HETATM   23  C8  MIQ B 502      -8.989 -16.242 -29.532  1.00144.10     0.187 C 
HETATM   24  O9  MIQ B 502      -8.253 -17.175 -28.800  1.00148.65    -0.388 OA
HETATM   25  C10 MIQ B 502      -7.486 -16.769 -27.704  1.00147.44     0.187 C 
HETATM   26  C11 MIQ B 502      -7.951 -15.563 -26.895  1.00144.08     0.149 C 
ENDBRANCH   5  21
TORSDOF 2
ENDMDL
MODEL 2
REMARK VINA RESULT:      -5.7     19.351     20.948
REMARK  2 active torsions:
REMARK  status: ('A' for Active; 'I' for Inactive)
REMARK    1  A    between atoms: C5_5  and  N6_21 
REMARK    2  A    between atoms: C18_14  and  N17_19 
ROOT
HETATM    1  O1  MIQ B 502       8.975  -9.151 -20.412  1.00142.91    -0.171 OA
HETATM    2  C2  MIQ B 502      10.288  -9.625 -20.373  1.00141.17     0.195 A 
HETATM    3  C3  MIQ B 502      10.878 -10.620 -19.324  1.00141.71     0.035 A 
HETATM    4  C4  MIQ B 502      10.307 -11.320 -18.149  1.00142.86     0.046 A 
HETATM    5  C5  MIQ B 502      11.113 -12.186 -17.369  1.00139.53     0.031 A 
HETATM    6  C12 MIQ B 502      12.511 -12.388 -17.724  1.00139.38     0.030 A 
HETATM    7  C13 MIQ B 502      13.059 -11.717 -18.851  1.00141.18     0.019 A 
HETATM    8  C14 MIQ B 502      12.206 -10.811 -19.668  1.00138.77     0.033 A 
HETATM    9  C15 MIQ B 502      12.442  -9.931 -20.938  1.00142.10     0.195 A 
HETATM   10  N17 MIQ B 502      11.284  -9.345 -21.196  1.00139.42    -0.288 N 
HETATM   11  O16 MIQ B 502      13.634  -9.792 -21.650  1.00148.93    -0.171 OA
ENDROOT
BRANCH  10  12
HETATM   12  C18 MIQ B 502      11.130  -8.429 -22.311  1.00139.82     0.187 C 
HETATM   13  C19 MIQ B 502      10.579  -7.109 -21.760  1.00140.06     0.247 C 
HETATM   14  O25 MIQ B 502      11.118  -6.598 -20.843  1.00143.95    -0.271 OA
HETATM   15  N20 MIQ B 502       9.418  -6.464 -22.337  1.00140.02    -0.296 N 
HETATM   16  H13 MIQ B 502       9.064  -5.606 -21.964  1.00142.77     0.171 HD
HETATM   17  C21 MIQ B 502       8.771  -7.112 -23.450  1.00142.22     0.224 C 
HETATM   18  C22 MIQ B 502       8.783  -8.628 -23.456  1.00139.52     0.106 C 
HETATM   19  O24 MIQ B 502       8.262  -6.490 -24.316  1.00146.13    -0.273 OA
HETATM   20  C23 MIQ B 502      10.240  -9.048 -23.388  1.00139.15     0.045 C 
ENDBRANCH  10  12
BRANCH   5  21
HETATM   21  N6  MIQ B 502      10.544 -12.854 -16.212  1.00140.95    -0.377 N 
HETATM   22  C7  MIQ B 502       9.499 -12.177 -15.464  1.00142.12     0.149 C 
HETATM   23  C8  MIQ B 502       9.458 -12.629 -14.010  1.00144.10     0.187 C 
HETATM   24  O9  MIQ B 502       9.487 -14.018 -13.871  1.00148.65    -0.388 OA
HETATM   25  C10 MIQ B 502       9.764 -14.833 -14.971  1.00147.44     0.187 C 
HETATM   26  C11 MIQ B 502      10.675 -14.293 -16.069  1.00144.08     0.149 C 
ENDBRANCH   5  21
TORSDOF 2
ENDMDL
MODEL 3
REMARK VINA RESULT:      -5.7     15.838     17.735
REMARK  2 active torsions:
REMARK  status: ('A' for Active; 'I' for Inactive)
REMARK    1  A    between atoms: C5_5  and  N6_21 
REMARK    2  A    between atoms: C18_14  and  N17_19 
ROOT
HETATM    1  O1  MIQ B 502       2.348 -12.409 -17.008  1.00142.91    -0.171 OA
HETATM    2  C2  MIQ B 502       3.132 -13.552 -16.833  1.00141.17     0.195 A 
HETATM    3  C3  MIQ B 502       4.653 -13.582 -16.479  1.00141.71     0.035 A 
HETATM    4  C4  MIQ B 502       5.663 -12.525 -16.235  1.00142.86     0.046 A 
HETATM    5  C5  MIQ B 502       7.002 -12.872 -15.925  1.00139.53     0.031 A 
HETATM    6  C12 MIQ B 502       7.386 -14.274 -15.846  1.00139.38     0.030 A 
HETATM    7  C13 MIQ B 502       6.417 -15.287 -16.079  1.00141.18     0.019 A 
HETATM    8  C14 MIQ B 502       5.012 -14.917 -16.402  1.00138.77     0.033 A 
HETATM    9  C15 MIQ B 502       3.706 -15.721 -16.708  1.00142.10     0.195 A 
HETATM   10  N17 MIQ B 502       2.763 -14.818 -16.921  1.00139.42    -0.288 N 
HETATM   11  O16 MIQ B 502       3.570 -17.110 -16.750  1.00148.93    -0.171 OA
ENDROOT
BRANCH  10  12
HETATM   12  C18 MIQ B 502       1.405 -15.206 -17.253  1.00139.82     0.187 C 
HETATM   13  C19 MIQ B 502       1.012 -14.475 -18.542  1.00140.06     0.247 C 
HETATM   14  O25 MIQ B 502       1.728 -14.532 -19.478  1.00143.95    -0.271 OA
HETATM   15  N20 MIQ B 502      -0.219 -13.718 -18.646  1.00140.02    -0.296 N 
HETATM   16  H13 MIQ B 502      -0.461 -13.239 -19.492  1.00142.77     0.171 HD
HETATM   17  C21 MIQ B 502      -1.071 -13.654 -17.487  1.00142.22     0.224 C 
HETATM   18  C22 MIQ B 502      -0.384 -13.654 -16.135  1.00139.52     0.106 C 
HETATM   19  O24 MIQ B 502      -2.248 -13.609 -17.587  1.00146.13    -0.273 OA
HETATM   20  C23 MIQ B 502       0.466 -14.910 -16.084  1.00139.15     0.045 C 
ENDBRANCH  10  12
BRANCH   5  21
HETATM   21  N6  MIQ B 502       7.985 -11.826 -15.703  1.00140.95    -0.377 N 
HETATM   22  C7  MIQ B 502       7.644 -10.463 -16.072  1.00142.12     0.149 C 
HETATM   23  C8  MIQ B 502       8.881  -9.637 -16.399  1.00144.10     0.187 C 
HETATM   24  O9  MIQ B 502       9.887  -9.761 -15.439  1.00148.65    -0.388 OA
HETATM   25  C10 MIQ B 502       9.796 -10.734 -14.440  1.00147.44     0.187 C 
HETATM   26  C11 MIQ B 502       9.065 -12.036 -14.754  1.00144.08     0.149 C 
ENDBRANCH   5  21
TORSDOF 2
ENDMDL
MODEL 4
REMARK VINA RESULT:      -5.6     18.950     20.976
REMARK  2 active torsions:
REMARK  status: ('A' for Active; 'I' for Inactive)
REMARK    1  A    between atoms: C5_5  and  N6_21 
REMARK    2  A    between atoms: C18_14  and  N17_19 
ROOT
HETATM    1  O1  MIQ B 502       6.794 -10.998 -16.445  1.00142.91    -0.171 OA
HETATM    2  C2  MIQ B 502       8.016 -11.520 -16.876  1.00141.17     0.195 A 
HETATM    3  C3  MIQ B 502       8.846 -11.031 -18.105  1.00141.71     0.035 A 
HETATM    4  C4  MIQ B 502       8.641  -9.965 -19.114  1.00142.86     0.046 A 
HETATM    5  C5  MIQ B 502       9.597  -9.754 -20.139  1.00139.53     0.031 A 
HETATM    6  C12 MIQ B 502      10.788 -10.590 -20.199  1.00139.38     0.030 A 
HETATM    7  C13 MIQ B 502      10.985 -11.612 -19.232  1.00141.18     0.019 A 
HETATM    8  C14 MIQ B 502       9.978 -11.827 -18.157  1.00138.77     0.033 A 
HETATM    9  C15 MIQ B 502       9.851 -12.815 -16.952  1.00142.10     0.195 A 
HETATM   10  N17 MIQ B 502       8.715 -12.510 -16.347  1.00139.42    -0.288 N 
HETATM   11  O16 MIQ B 502      10.756 -13.816 -16.593  1.00148.93    -0.171 OA
ENDROOT
BRANCH  10  12
HETATM   12  C18 MIQ B 502       8.257 -13.242 -15.181  1.00139.82     0.187 C 
HETATM   13  C19 MIQ B 502       9.385 -13.217 -14.141  1.00140.06     0.247 C 
HETATM   14  O25 MIQ B 502       9.876 -12.185 -13.849  1.00143.95    -0.271 OA
HETATM   15  N20 MIQ B 502       9.861 -14.426 -13.502  1.00140.02    -0.296 N 
HETATM   16  H13 MIQ B 502      10.602 -14.397 -12.830  1.00142.77     0.171 HD
HETATM   17  C21 MIQ B 502       9.253 -15.675 -13.883  1.00142.22     0.224 C 
HETATM   18  C22 MIQ B 502       8.799 -15.800 -15.324  1.00139.52     0.106 C 
HETATM   19  O24 MIQ B 502       9.110 -16.555 -13.107  1.00146.13    -0.273 OA
HETATM   20  C23 MIQ B 502       7.832 -14.656 -15.573  1.00139.15     0.045 C 
ENDBRANCH  10  12
BRANCH   5  21
HETATM   21  N6  MIQ B 502       9.376  -8.715 -21.129  1.00140.95    -0.377 N 
HETATM   22  C7  MIQ B 502       9.843  -7.370 -20.840  1.00142.12     0.149 C 
HETATM   23  C8  MIQ B 502       9.030  -6.315 -21.579  1.00144.10     0.187 C 
HETATM   24  O9  MIQ B 502       8.860  -6.610 -22.933  1.00148.65    -0.388 OA
HETATM   25  C10 MIQ B 502       9.218  -7.864 -23.435  1.00147.44     0.187 C 
HETATM   26  C11 MIQ B 502       9.118  -9.075 -22.512  1.00144.08     0.149 C 
ENDBRANCH   5  21
TORSDOF 2
ENDMDL
MODEL 5
REMARK VINA RESULT:      -5.6     11.381     13.688
REMARK  2 active torsions:
REMARK  status: ('A' for Active; 'I' for Inactive)
REMARK    1  A    between atoms: C5_5  and  N6_21 
REMARK    2  A    between atoms: C18_14  and  N17_19 
ROOT
HETATM    1  O1  MIQ B 502      -0.042 -15.164 -20.492  1.00142.91    -0.171 OA
HETATM    2  C2  MIQ B 502       0.126 -14.873 -19.137  1.00141.17     0.195 A 
HETATM    3  C3  MIQ B 502      -0.924 -14.189 -18.204  1.00141.71     0.035 A 
HETATM    4  C4  MIQ B 502      -2.299 -13.679 -18.419  1.00142.86     0.046 A 
HETATM    5  C5  MIQ B 502      -3.022 -13.095 -17.348  1.00139.53     0.031 A 
HETATM    6  C12 MIQ B 502      -2.409 -12.997 -16.031  1.00139.38     0.030 A 
HETATM    7  C13 MIQ B 502      -1.092 -13.487 -15.824  1.00141.18     0.019 A 
HETATM    8  C14 MIQ B 502      -0.338 -14.101 -16.951  1.00138.77     0.033 A 
HETATM    9  C15 MIQ B 502       1.083 -14.735 -17.108  1.00142.10     0.195 A 
HETATM   10  N17 MIQ B 502       1.177 -15.112 -18.372  1.00139.42    -0.288 N 
HETATM   11  O16 MIQ B 502       2.052 -14.869 -16.112  1.00148.93    -0.171 OA
ENDROOT
BRANCH  10  12
HETATM   12  C18 MIQ B 502       2.382 -15.734 -18.889  1.00139.82     0.187 C 
HETATM   13  C19 MIQ B 502       2.794 -14.975 -20.156  1.00140.06     0.247 C 
HETATM   14  O25 MIQ B 502       2.886 -13.800 -20.120  1.00143.95    -0.271 OA
HETATM   15  N20 MIQ B 502       3.079 -15.663 -21.399  1.00140.02    -0.296 N 
HETATM   16  H13 MIQ B 502       3.340 -15.155 -22.222  1.00142.77     0.171 HD
HETATM   17  C21 MIQ B 502       2.949 -17.097 -21.422  1.00142.22     0.224 C 
HETATM   18  C22 MIQ B 502       1.868 -17.697 -20.544  1.00139.52     0.106 C 
HETATM   19  O24 MIQ B 502       3.654 -17.771 -22.089  1.00146.13    -0.273 OA
HETATM   20  C23 MIQ B 502       2.150 -17.225 -19.129  1.00139.15     0.045 C 
ENDBRANCH  10  12
BRANCH   5  21
HETATM   21  N6  MIQ B 502      -4.362 -12.586 -17.576  1.00140.95    -0.377 N 
HETATM   22  C7  MIQ B 502      -5.160 -13.181 -18.634  1.00142.12     0.149 C 
HETATM   23  C8  MIQ B 502      -6.194 -12.206 -19.183  1.00144.10     0.187 C 
HETATM   24  O9  MIQ B 502      -6.919 -11.560 -18.180  1.00148.65    -0.388 OA
HETATM   25  C10 MIQ B 502      -6.526 -11.666 -16.843  1.00147.44     0.187 C 
HETATM   26  C11 MIQ B 502      -5.044 -11.844 -16.530  1.00144.08     0.149 C 
ENDBRANCH   5  21
TORSDOF 2
ENDMDL
MODEL 6
REMARK VINA RESULT:      -5.6     13.105     17.123
REMARK  2 active torsions:
REMARK  status: ('A' for Active; 'I' for Inactive)
REMARK    1  A    between atoms: C5_5  and  N6_21 
REMARK    2  A    between atoms: C18_14  and  N17_19 
ROOT
HETATM    1  O1  MIQ B 502      -1.657   1.849 -27.944  1.00142.91    -0.171 OA
HETATM    2  C2  MIQ B 502      -0.526   1.920 -28.761  1.00141.17     0.195 A 
HETATM    3  C3  MIQ B 502       0.943   2.150 -28.283  1.00141.71     0.035 A 
HETATM    4  C4  MIQ B 502       1.563   2.345 -26.951  1.00142.86     0.046 A 
HETATM    5  C5  MIQ B 502       2.963   2.533 -26.832  1.00139.53     0.031 A 
HETATM    6  C12 MIQ B 502       3.796   2.534 -28.026  1.00139.38     0.030 A 
HETATM    7  C13 MIQ B 502       3.202   2.345 -29.304  1.00141.18     0.019 A 
HETATM    8  C14 MIQ B 502       1.732   2.146 -29.422  1.00138.77     0.033 A 
HETATM    9  C15 MIQ B 502       0.747   1.912 -30.613  1.00142.10     0.195 A 
HETATM   10  N17 MIQ B 502      -0.457   1.805 -30.076  1.00139.42    -0.288 N 
HETATM   11  O16 MIQ B 502       1.077   1.834 -31.968  1.00148.93    -0.171 OA
ENDROOT
BRANCH  10  12
HETATM   12  C18 MIQ B 502      -1.636   1.596 -30.895  1.00139.82     0.187 C 
HETATM   13  C19 MIQ B 502      -2.678   2.646 -30.492  1.00140.06     0.247 C 
HETATM   14  O25 MIQ B 502      -2.366   3.783 -30.454  1.00143.95    -0.271 OA
HETATM   15  N20 MIQ B 502      -4.041   2.282 -30.163  1.00140.02    -0.296 N 
HETATM   16  H13 MIQ B 502      -4.711   2.977 -29.895  1.00142.77     0.171 HD
HETATM   17  C21 MIQ B 502      -4.396   0.887 -30.207  1.00142.22     0.224 C 
HETATM   18  C22 MIQ B 502      -3.315  -0.104 -29.822  1.00139.52     0.106 C 
HETATM   19  O24 MIQ B 502      -5.477   0.535 -30.532  1.00146.13    -0.273 OA
HETATM   20  C23 MIQ B 502      -2.139   0.161 -30.746  1.00139.15     0.045 C 
ENDBRANCH  10  12
BRANCH   5  21
HETATM   21  N6  MIQ B 502       3.555   2.738 -25.522  1.00140.95    -0.377 N 
HETATM   22  C7  MIQ B 502       4.252   3.986 -25.263  1.00142.12     0.149 C 
HETATM   23  C8  MIQ B 502       5.320   3.827 -24.188  1.00144.10     0.187 C 
HETATM   24  O9  MIQ B 502       4.855   3.156 -23.055  1.00148.65    -0.388 OA
HETATM   25  C10 MIQ B 502       3.611   2.521 -23.070  1.00147.44     0.187 C 
HETATM   26  C11 MIQ B 502       3.097   1.954 -24.389  1.00144.08     0.149 C 
ENDBRANCH   5  21
TORSDOF 2
ENDMDL
MODEL 7
REMARK VINA RESULT:      -5.6     19.950     21.748
REMARK  2 active torsions:
REMARK  status: ('A' for Active; 'I' for Inactive)
REMARK    1  A    between atoms: C5_5  and  N6_21 
REMARK    2  A    between atoms: C18_14  and  N17_19 
ROOT
HETATM    1  O1  MIQ B 502      12.296 -10.745 -16.557  1.00142.91    -0.171 OA
HETATM    2  C2  MIQ B 502      10.959 -11.137 -16.655  1.00141.17     0.195 A 
HETATM    3  C3  MIQ B 502       9.958 -10.729 -17.782  1.00141.71     0.035 A 
HETATM    4  C4  MIQ B 502      10.078  -9.886 -18.995  1.00142.86     0.046 A 
HETATM    5  C5  MIQ B 502       8.963  -9.699 -19.851  1.00139.53     0.031 A 
HETATM    6  C12 MIQ B 502       7.694 -10.339 -19.535  1.00139.38     0.030 A 
HETATM    7  C13 MIQ B 502       7.579 -11.149 -18.373  1.00141.18     0.019 A 
HETATM    8  C14 MIQ B 502       8.754 -11.344 -17.480  1.00138.77     0.033 A 
HETATM    9  C15 MIQ B 502       9.009 -12.138 -16.157  1.00142.10     0.195 A 
HETATM   10  N17 MIQ B 502      10.274 -11.920 -15.839  1.00139.42    -0.288 N 
HETATM   11  O16 MIQ B 502       8.084 -12.915 -15.458  1.00148.93    -0.171 OA
ENDROOT
BRANCH  10  12
HETATM   12  C18 MIQ B 502      10.864 -12.495 -14.644  1.00139.82     0.187 C 
HETATM   13  C19 MIQ B 502      11.503 -11.354 -13.842  1.00140.06     0.247 C 
HETATM   14  O25 MIQ B 502      10.864 -10.393 -13.599  1.00143.95    -0.271 OA
HETATM   15  N20 MIQ B 502      12.870 -11.426 -13.369  1.00140.02    -0.296 N 
HETATM   16  H13 MIQ B 502      13.278 -10.672 -12.853  1.00142.77     0.171 HD
HETATM   17  C21 MIQ B 502      13.633 -12.605 -13.688  1.00142.22     0.224 C 
HETATM   18  C22 MIQ B 502      13.337 -13.269 -15.019  1.00139.52     0.106 C 
HETATM   19  O24 MIQ B 502      14.446 -13.035 -12.945  1.00146.13    -0.273 OA
HETATM   20  C23 MIQ B 502      11.855 -13.596 -15.018  1.00139.15     0.045 C 
ENDBRANCH  10  12
BRANCH   5  21
HETATM   21  N6  MIQ B 502       9.091  -8.858 -21.027  1.00140.95    -0.377 N 
HETATM   22  C7  MIQ B 502       9.723  -7.558 -20.887  1.00142.12     0.149 C 
HETATM   23  C8  MIQ B 502       9.236  -6.572 -21.941  1.00144.10     0.187 C 
HETATM   24  O9  MIQ B 502       9.249  -7.105 -23.231  1.00148.65    -0.388 OA
HETATM   25  C10 MIQ B 502       9.468  -8.470 -23.430  1.00147.44     0.187 C 
HETATM   26  C11 MIQ B 502       9.011  -9.448 -22.352  1.00144.08     0.149 C 
ENDBRANCH   5  21
TORSDOF 2
ENDMDL
MODEL 8
REMARK VINA RESULT:      -5.6     13.477     16.548
REMARK  2 active torsions:
REMARK  status: ('A' for Active; 'I' for Inactive)
REMARK    1  A    between atoms: C5_5  and  N6_21 
REMARK    2  A    between atoms: C18_14  and  N17_19 
ROOT
HETATM    1  O1  MIQ B 502       2.650   2.087 -26.667  1.00142.91    -0.171 OA
HETATM    2  C2  MIQ B 502       1.458   2.776 -26.431  1.00141.17     0.195 A 
HETATM    3  C3  MIQ B 502       0.144   2.658 -27.267  1.00141.71     0.035 A 
HETATM    4  C4  MIQ B 502      -0.239   1.862 -28.457  1.00142.86     0.046 A 
HETATM    5  C5  MIQ B 502      -1.543   1.971 -29.003  1.00139.53     0.031 A 
HETATM    6  C12 MIQ B 502      -2.510   2.869 -28.390  1.00139.38     0.030 A 
HETATM    7  C13 MIQ B 502      -2.144   3.631 -27.248  1.00141.18     0.019 A 
HETATM    8  C14 MIQ B 502      -0.775   3.511 -26.677  1.00138.77     0.033 A 
HETATM    9  C15 MIQ B 502      -0.027   4.162 -25.468  1.00142.10     0.195 A 
HETATM   10  N17 MIQ B 502       1.192   3.646 -25.473  1.00139.42    -0.288 N 
HETATM   11  O16 MIQ B 502      -0.544   5.098 -24.572  1.00148.93    -0.171 OA
ENDROOT
BRANCH  10  12
HETATM   12  C18 MIQ B 502       2.183   4.038 -24.488  1.00139.82     0.187 C 
HETATM   13  C19 MIQ B 502       3.454   4.447 -25.241  1.00140.06     0.247 C 
HETATM   14  O25 MIQ B 502       3.376   5.229 -26.121  1.00143.95    -0.271 OA
HETATM   15  N20 MIQ B 502       4.753   3.905 -24.898  1.00140.02    -0.296 N 
HETATM   16  H13 MIQ B 502       5.575   4.176 -25.402  1.00142.77     0.171 HD
HETATM   17  C21 MIQ B 502       4.822   2.945 -23.827  1.00142.22     0.224 C 
HETATM   18  C22 MIQ B 502       3.633   2.018 -23.666  1.00139.52     0.106 C 
HETATM   19  O24 MIQ B 502       5.758   2.888 -23.107  1.00146.13    -0.273 OA
HETATM   20  C23 MIQ B 502       2.415   2.906 -23.488  1.00139.15     0.045 C 
ENDBRANCH  10  12
BRANCH   5  21
HETATM   21  N6  MIQ B 502      -1.899   1.196 -30.178  1.00140.95    -0.377 N 
HETATM   22  C7  MIQ B 502      -0.850   0.833 -31.115  1.00142.12     0.149 C 
HETATM   23  C8  MIQ B 502      -1.391   0.629 -32.524  1.00144.10     0.187 C 
HETATM   24  O9  MIQ B 502      -2.528  -0.181 -32.558  1.00148.65    -0.388 OA
HETATM   25  C10 MIQ B 502      -3.179  -0.535 -31.374  1.00147.44     0.187 C 
HETATM   26  C11 MIQ B 502      -3.136   0.436 -30.199  1.00144.08     0.149 C 
ENDBRANCH   5  21
TORSDOF 2
ENDMDL
MODEL 9
REMARK VINA RESULT:      -5.6     14.364     16.168
REMARK  2 active torsions:
REMARK  status: ('A' for Active; 'I' for Inactive)
REMARK    1  A    between atoms: C5_5  and  N6_21 
REMARK    2  A    between atoms: C18_14  and  N17_19 
ROOT
HETATM    1  O1  MIQ B 502       1.059 -13.139 -17.032  1.00142.91    -0.171 OA
HETATM    2  C2  MIQ B 502       1.869 -13.836 -17.932  1.00141.17     0.195 A 
HETATM    3  C3  MIQ B 502       3.426 -13.940 -17.881  1.00141.71     0.035 A 
HETATM    4  C4  MIQ B 502       4.455 -13.398 -16.961  1.00142.86     0.046 A 
HETATM    5  C5  MIQ B 502       5.828 -13.673 -17.179  1.00139.53     0.031 A 
HETATM    6  C12 MIQ B 502       6.229 -14.494 -18.313  1.00139.38     0.030 A 
HETATM    7  C13 MIQ B 502       5.244 -15.015 -19.194  1.00141.18     0.019 A 
HETATM    8  C14 MIQ B 502       3.803 -14.724 -18.959  1.00138.77     0.033 A 
HETATM    9  C15 MIQ B 502       2.472 -15.110 -19.682  1.00142.10     0.195 A 
HETATM   10  N17 MIQ B 502       1.501 -14.542 -18.987  1.00139.42    -0.288 N 
HETATM   11  O16 MIQ B 502       2.341 -15.892 -20.831  1.00148.93    -0.171 OA
ENDROOT
BRANCH  10  12
HETATM   12  C18 MIQ B 502       0.110 -14.673 -19.381  1.00139.82     0.187 C 
HETATM   13  C19 MIQ B 502      -0.462 -13.261 -19.555  1.00140.06     0.247 C 
HETATM   14  O25 MIQ B 502       0.115 -12.485 -20.231  1.00143.95    -0.271 OA
HETATM   15  N20 MIQ B 502      -1.698 -12.854 -18.918  1.00140.02    -0.296 N 
HETATM   16  H13 MIQ B 502      -2.057 -11.927 -19.035  1.00142.77     0.171 HD
HETATM   17  C21 MIQ B 502      -2.379 -13.816 -18.090  1.00142.22     0.224 C 
HETATM   18  C22 MIQ B 502      -1.508 -14.794 -17.325  1.00139.52     0.106 C 
HETATM   19  O24 MIQ B 502      -3.558 -13.842 -18.016  1.00146.13    -0.273 OA
HETATM   20  C23 MIQ B 502      -0.655 -15.510 -18.357  1.00139.15     0.045 C 
ENDBRANCH  10  12
BRANCH   5  21
HETATM   21  N6  MIQ B 502       6.825 -13.123 -16.279  1.00140.95    -0.377 N 
HETATM   22  C7  MIQ B 502       8.089 -13.825 -16.130  1.00142.12     0.149 C 
HETATM   23  C8  MIQ B 502       8.731 -13.558 -14.774  1.00144.10     0.187 C 
HETATM   24  O9  MIQ B 502       8.759 -12.202 -14.444  1.00148.65    -0.388 OA
HETATM   25  C10 MIQ B 502       8.047 -11.273 -15.207  1.00147.44     0.187 C 
HETATM   26  C11 MIQ B 502       6.763 -11.724 -15.895  1.00144.08     0.149 C 
ENDBRANCH   5  21
TORSDOF 2
ENDMDL
