MODEL 1
REMARK VINA RESULT:      -9.0      0.000      0.000
REMARK  2 active torsions:
REMARK  status: ('A' for Active; 'I' for Inactive)
REMARK    1  A    between atoms: C5_5  and  N6_21 
REMARK    2  A    between atoms: C18_14  and  N17_19 
ROOT
HETATM    1  O1  MIQ B 502      15.125  -8.595  -1.762  1.00142.91    -0.171 OA
HETATM    2  C2  MIQ B 502      14.822  -7.399  -2.416  1.00141.17     0.195 A 
HETATM    3  C3  MIQ B 502      15.026  -5.959  -1.847  1.00141.71     0.035 A 
HETATM    4  C4  MIQ B 502      15.555  -5.435  -0.565  1.00142.86     0.046 A 
HETATM    5  C5  MIQ B 502      15.620  -4.038  -0.334  1.00139.53     0.031 A 
HETATM    6  C12 MIQ B 502      15.164  -3.114  -1.362  1.00139.38     0.030 A 
HETATM    7  C13 MIQ B 502      14.658  -3.615  -2.591  1.00141.18     0.019 A 
HETATM    8  C14 MIQ B 502      14.595  -5.083  -2.830  1.00138.77     0.033 A 
HETATM    9  C15 MIQ B 502      14.120  -5.984  -4.016  1.00142.10     0.195 A 
HETATM   10  N17 MIQ B 502      14.315  -7.233  -3.626  1.00139.42    -0.288 N 
HETATM   11  O16 MIQ B 502      13.596  -5.553  -5.235  1.00148.93    -0.171 OA
ENDROOT
BRANCH  10  12
HETATM   12  C18 MIQ B 502      13.969  -8.356  -4.478  1.00139.82     0.187 C 
HETATM   13  C19 MIQ B 502      14.648  -8.138  -5.837  1.00140.06     0.247 C 
HETATM   14  O25 MIQ B 502      15.802  -7.898  -5.872  1.00143.95    -0.271 OA
HETATM   15  N20 MIQ B 502      13.911  -8.225  -7.081  1.00140.02    -0.296 N 
HETATM   16  H13 MIQ B 502      14.364  -8.074  -7.961  1.00142.77     0.171 HD
HETATM   17  C21 MIQ B 502      12.501  -8.509  -7.011  1.00142.22     0.224 C 
HETATM   18  C22 MIQ B 502      11.753  -7.955  -5.814  1.00139.52     0.106 C 
HETATM   19  O24 MIQ B 502      11.957  -9.146  -7.845  1.00146.13    -0.273 OA
HETATM   20  C23 MIQ B 502      12.451  -8.497  -4.580  1.00139.15     0.045 C 
ENDBRANCH  10  12
BRANCH   5  21
HETATM   21  N6  MIQ B 502      16.126  -3.540   0.932  1.00140.95    -0.377 N 
HETATM   22  C7  MIQ B 502      15.614  -4.120   2.162  1.00142.12     0.149 C 
HETATM   23  C8  MIQ B 502      15.700  -3.145   3.329  1.00144.10     0.187 C 
HETATM   24  O9  MIQ B 502      16.950  -2.531   3.434  1.00148.65    -0.388 OA
HETATM   25  C10 MIQ B 502      17.891  -2.662   2.410  1.00147.44     0.187 C 
HETATM   26  C11 MIQ B 502      17.393  -2.830   0.978  1.00144.08     0.149 C 
ENDBRANCH   5  21
TORSDOF 2
ENDMDL
MODEL 2
REMARK VINA RESULT:      -8.1      1.852      3.340
REMARK  2 active torsions:
REMARK  status: ('A' for Active; 'I' for Inactive)
REMARK    1  A    between atoms: C5_5  and  N6_21 
REMARK    2  A    between atoms: C18_14  and  N17_19 
ROOT
HETATM    1  O1  MIQ B 502      12.425  -4.887  -5.769  1.00142.91    -0.171 OA
HETATM    2  C2  MIQ B 502      12.970  -6.038  -5.196  1.00141.17     0.195 A 
HETATM    3  C3  MIQ B 502      13.890  -6.093  -3.935  1.00141.71     0.035 A 
HETATM    4  C4  MIQ B 502      14.430  -5.058  -3.021  1.00142.86     0.046 A 
HETATM    5  C5  MIQ B 502      15.259  -5.426  -1.932  1.00139.53     0.031 A 
HETATM    6  C12 MIQ B 502      15.581  -6.829  -1.711  1.00139.38     0.030 A 
HETATM    7  C13 MIQ B 502      15.063  -7.821  -2.586  1.00141.18     0.019 A 
HETATM    8  C14 MIQ B 502      14.191  -7.429  -3.726  1.00138.77     0.033 A 
HETATM    9  C15 MIQ B 502      13.453  -8.208  -4.864  1.00142.10     0.195 A 
HETATM   10  N17 MIQ B 502      12.825  -7.293  -5.585  1.00139.42    -0.288 N 
HETATM   11  O16 MIQ B 502      13.461  -9.588  -5.073  1.00148.93    -0.171 OA
ENDROOT
BRANCH  10  12
HETATM   12  C18 MIQ B 502      12.040  -7.655  -6.750  1.00139.82     0.187 C 
HETATM   13  C19 MIQ B 502      10.878  -8.536  -6.276  1.00140.06     0.247 C 
HETATM   14  O25 MIQ B 502      10.199  -8.164  -5.386  1.00143.95    -0.271 OA
HETATM   15  N20 MIQ B 502      10.586  -9.813  -6.895  1.00140.02    -0.296 N 
HETATM   16  H13 MIQ B 502       9.828 -10.382  -6.572  1.00142.77     0.171 HD
HETATM   17  C21 MIQ B 502      11.435 -10.250  -7.973  1.00142.22     0.224 C 
HETATM   18  C22 MIQ B 502      12.896  -9.849  -7.895  1.00139.52     0.106 C 
HETATM   19  O24 MIQ B 502      11.011 -10.885  -8.875  1.00146.13    -0.273 OA
HETATM   20  C23 MIQ B 502      12.923  -8.335  -7.796  1.00139.15     0.045 C 
ENDBRANCH  10  12
BRANCH   5  21
HETATM   21  N6  MIQ B 502      15.793  -4.401  -1.054  1.00140.95    -0.377 N 
HETATM   22  C7  MIQ B 502      14.902  -3.352  -0.589  1.00142.12     0.149 C 
HETATM   23  C8  MIQ B 502      15.657  -2.071  -0.258  1.00144.10     0.187 C 
HETATM   24  O9  MIQ B 502      16.783  -2.293   0.536  1.00148.65    -0.388 OA
HETATM   25  C10 MIQ B 502      17.242  -3.592   0.766  1.00147.44     0.187 C 
HETATM   26  C11 MIQ B 502      17.018  -4.647  -0.312  1.00144.08     0.149 C 
ENDBRANCH   5  21
TORSDOF 2
ENDMDL
MODEL 3
REMARK VINA RESULT:      -7.9      5.766      9.159
REMARK  2 active torsions:
REMARK  status: ('A' for Active; 'I' for Inactive)
REMARK    1  A    between atoms: C5_5  and  N6_21 
REMARK    2  A    between atoms: C18_14  and  N17_19 
ROOT
HETATM    1  O1  MIQ B 502      17.659  -1.881   5.419  1.00142.91    -0.171 OA
HETATM    2  C2  MIQ B 502      17.037  -3.058   4.994  1.00141.17     0.195 A 
HETATM    3  C3  MIQ B 502      16.511  -4.206   5.913  1.00141.71     0.035 A 
HETATM    4  C4  MIQ B 502      16.494  -4.409   7.381  1.00142.86     0.046 A 
HETATM    5  C5  MIQ B 502      15.930  -5.586   7.935  1.00139.53     0.031 A 
HETATM    6  C12 MIQ B 502      15.366  -6.600   7.056  1.00139.38     0.030 A 
HETATM    7  C13 MIQ B 502      15.381  -6.405   5.649  1.00141.18     0.019 A 
HETATM    8  C14 MIQ B 502      15.972  -5.166   5.073  1.00138.77     0.033 A 
HETATM    9  C15 MIQ B 502      16.164  -4.610   3.624  1.00142.10     0.195 A 
HETATM   10  N17 MIQ B 502      16.764  -3.439   3.759  1.00139.42    -0.288 N 
HETATM   11  O16 MIQ B 502      15.780  -5.230   2.434  1.00148.93    -0.171 OA
ENDROOT
BRANCH  10  12
HETATM   12  C18 MIQ B 502      17.118  -2.633   2.605  1.00139.82     0.187 C 
HETATM   13  C19 MIQ B 502      15.819  -2.086   2.000  1.00140.06     0.247 C 
HETATM   14  O25 MIQ B 502      15.044  -1.537   2.700  1.00143.95    -0.271 OA
HETATM   15  N20 MIQ B 502      15.519  -2.220   0.589  1.00140.02    -0.296 N 
HETATM   16  H13 MIQ B 502      14.664  -1.864   0.208  1.00142.77     0.171 HD
HETATM   17  C21 MIQ B 502      16.476  -2.903  -0.243  1.00142.22     0.224 C 
HETATM   18  C22 MIQ B 502      17.248  -4.038   0.400  1.00139.52     0.106 C 
HETATM   19  O24 MIQ B 502      16.652  -2.588  -1.368  1.00146.13    -0.273 OA
HETATM   20  C23 MIQ B 502      17.943  -3.454   1.616  1.00139.15     0.045 C 
ENDBRANCH  10  12
BRANCH   5  21
HETATM   21  N6  MIQ B 502      15.933  -5.779   9.374  1.00140.95    -0.377 N 
HETATM   22  C7  MIQ B 502      16.558  -6.975   9.913  1.00142.12     0.149 C 
HETATM   23  C8  MIQ B 502      15.958  -7.373  11.256  1.00144.10     0.187 C 
HETATM   24  O9  MIQ B 502      15.856  -6.301  12.145  1.00148.65    -0.388 OA
HETATM   25  C10 MIQ B 502      16.075  -4.993  11.704  1.00147.44     0.187 C 
HETATM   26  C11 MIQ B 502      15.736  -4.644  10.259  1.00144.08     0.149 C 
ENDBRANCH   5  21
TORSDOF 2
ENDMDL
MODEL 4
REMARK VINA RESULT:      -7.8      1.971      8.249
REMARK  2 active torsions:
REMARK  status: ('A' for Active; 'I' for Inactive)
REMARK    1  A    between atoms: C5_5  and  N6_21 
REMARK    2  A    between atoms: C18_14  and  N17_19 
ROOT
HETATM    1  O1  MIQ B 502      16.188  -4.942   0.416  1.00142.91    -0.171 OA
HETATM    2  C2  MIQ B 502      15.634  -3.956  -0.404  1.00141.17     0.195 A 
HETATM    3  C3  MIQ B 502      14.950  -4.186  -1.789  1.00141.71     0.035 A 
HETATM    4  C4  MIQ B 502      14.686  -5.394  -2.607  1.00142.86     0.046 A 
HETATM    5  C5  MIQ B 502      14.026  -5.282  -3.857  1.00139.53     0.031 A 
HETATM    6  C12 MIQ B 502      13.605  -3.974  -4.338  1.00139.38     0.030 A 
HETATM    7  C13 MIQ B 502      13.858  -2.816  -3.554  1.00141.18     0.019 A 
HETATM    8  C14 MIQ B 502      14.549  -2.940  -2.241  1.00138.77     0.033 A 
HETATM    9  C15 MIQ B 502      14.986  -1.930  -1.130  1.00142.10     0.195 A 
HETATM   10  N17 MIQ B 502      15.567  -2.654  -0.187  1.00139.42    -0.288 N 
HETATM   11  O16 MIQ B 502      14.800  -0.547  -1.138  1.00148.93    -0.171 OA
ENDROOT
BRANCH  10  12
HETATM   12  C18 MIQ B 502      16.117  -2.041   1.007  1.00139.82     0.187 C 
HETATM   13  C19 MIQ B 502      17.501  -2.654   1.253  1.00140.06     0.247 C 
HETATM   14  O25 MIQ B 502      18.284  -2.681   0.371  1.00143.95    -0.271 OA
HETATM   15  N20 MIQ B 502      17.877  -3.198   2.542  1.00140.02    -0.296 N 
HETATM   16  H13 MIQ B 502      18.782  -3.602   2.688  1.00142.77     0.171 HD
HETATM   17  C21 MIQ B 502      16.900  -3.163   3.600  1.00142.22     0.224 C 
HETATM   18  C22 MIQ B 502      15.448  -3.321   3.192  1.00139.52     0.106 C 
HETATM   19  O24 MIQ B 502      17.217  -3.014   4.729  1.00146.13    -0.273 OA
HETATM   20  C23 MIQ B 502      15.162  -2.221   2.186  1.00139.15     0.045 C 
ENDBRANCH  10  12
BRANCH   5  21
HETATM   21  N6  MIQ B 502      13.786  -6.472  -4.654  1.00140.95    -0.377 N 
HETATM   22  C7  MIQ B 502      13.680  -7.752  -3.977  1.00142.12     0.149 C 
HETATM   23  C8  MIQ B 502      14.074  -8.910  -4.885  1.00144.10     0.187 C 
HETATM   24  O9  MIQ B 502      13.466  -8.847  -6.140  1.00148.65    -0.388 OA
HETATM   25  C10 MIQ B 502      12.775  -7.699  -6.535  1.00147.44     0.187 C 
HETATM   26  C11 MIQ B 502      13.231  -6.349  -5.991  1.00144.08     0.149 C 
ENDBRANCH   5  21
TORSDOF 2
ENDMDL
MODEL 5
REMARK VINA RESULT:      -7.6      1.805      8.421
REMARK  2 active torsions:
REMARK  status: ('A' for Active; 'I' for Inactive)
REMARK    1  A    between atoms: C5_5  and  N6_21 
REMARK    2  A    between atoms: C18_14  and  N17_19 
ROOT
HETATM    1  O1  MIQ B 502      15.666  -8.305  -2.415  1.00142.91    -0.171 OA
HETATM    2  C2  MIQ B 502      15.049  -7.155  -2.912  1.00141.17     0.195 A 
HETATM    3  C3  MIQ B 502      14.041  -7.092  -4.104  1.00141.71     0.035 A 
HETATM    4  C4  MIQ B 502      13.463  -8.116  -5.005  1.00142.86     0.046 A 
HETATM    5  C5  MIQ B 502      12.547  -7.742  -6.021  1.00139.53     0.031 A 
HETATM    6  C12 MIQ B 502      12.173  -6.344  -6.177  1.00139.38     0.030 A 
HETATM    7  C13 MIQ B 502      12.726  -5.362  -5.313  1.00141.18     0.019 A 
HETATM    8  C14 MIQ B 502      13.686  -5.760  -4.247  1.00138.77     0.033 A 
HETATM    9  C15 MIQ B 502      14.477  -4.994  -3.137  1.00142.10     0.195 A 
HETATM   10  N17 MIQ B 502      15.178  -5.910  -2.490  1.00139.42    -0.288 N 
HETATM   11  O16 MIQ B 502      14.448  -3.620  -2.888  1.00148.93    -0.171 OA
ENDROOT
BRANCH  10  12
HETATM   12  C18 MIQ B 502      16.054  -5.554  -1.389  1.00139.82     0.187 C 
HETATM   13  C19 MIQ B 502      15.176  -5.268  -0.165  1.00140.06     0.247 C 
HETATM   14  O25 MIQ B 502      14.362  -6.059   0.158  1.00143.95    -0.271 OA
HETATM   15  N20 MIQ B 502      15.320  -4.054   0.612  1.00140.02    -0.296 N 
HETATM   16  H13 MIQ B 502      14.736  -3.876   1.405  1.00142.77     0.171 HD
HETATM   17  C21 MIQ B 502      16.313  -3.099   0.192  1.00142.22     0.224 C 
HETATM   18  C22 MIQ B 502      16.563  -2.987  -1.300  1.00139.52     0.106 C 
HETATM   19  O24 MIQ B 502      16.906  -2.440   0.973  1.00146.13    -0.273 OA
HETATM   20  C23 MIQ B 502      16.945  -4.376  -1.778  1.00139.15     0.045 C 
ENDBRANCH  10  12
BRANCH   5  21
HETATM   21  N6  MIQ B 502      11.999  -8.754  -6.906  1.00140.95    -0.377 N 
HETATM   22  C7  MIQ B 502      12.897  -9.432  -7.825  1.00142.12     0.149 C 
HETATM   23  C8  MIQ B 502      12.168  -9.938  -9.063  1.00144.10     0.187 C 
HETATM   24  O9  MIQ B 502      10.993 -10.628  -8.759  1.00148.65    -0.388 OA
HETATM   25  C10 MIQ B 502      10.481 -10.613  -7.459  1.00147.44     0.187 C 
HETATM   26  C11 MIQ B 502      10.729  -9.383  -6.591  1.00144.08     0.149 C 
ENDBRANCH   5  21
TORSDOF 2
ENDMDL
MODEL 6
REMARK VINA RESULT:      -7.5      8.191     12.796
REMARK  2 active torsions:
REMARK  status: ('A' for Active; 'I' for Inactive)
REMARK    1  A    between atoms: C5_5  and  N6_21 
REMARK    2  A    between atoms: C18_14  and  N17_19 
ROOT
HETATM    1  O1  MIQ B 502      16.610  -9.487   8.205  1.00142.91    -0.171 OA
HETATM    2  C2  MIQ B 502      16.331  -8.392   9.026  1.00141.17     0.195 A 
HETATM    3  C3  MIQ B 502      16.120  -6.918   8.557  1.00141.71     0.035 A 
HETATM    4  C4  MIQ B 502      16.138  -6.258   7.230  1.00142.86     0.046 A 
HETATM    5  C5  MIQ B 502      15.903  -4.864   7.120  1.00139.53     0.031 A 
HETATM    6  C12 MIQ B 502      15.641  -4.078   8.317  1.00139.38     0.030 A 
HETATM    7  C13 MIQ B 502      15.622  -4.711   9.589  1.00141.18     0.019 A 
HETATM    8  C14 MIQ B 502      15.868  -6.175   9.699  1.00138.77     0.033 A 
HETATM    9  C15 MIQ B 502      15.922  -7.194  10.883  1.00142.10     0.195 A 
HETATM   10  N17 MIQ B 502      16.185  -8.371  10.340  1.00139.42    -0.288 N 
HETATM   11  O16 MIQ B 502      15.734  -6.913  12.238  1.00148.93    -0.171 OA
ENDROOT
BRANCH  10  12
HETATM   12  C18 MIQ B 502      16.326  -9.565  11.152  1.00139.82     0.187 C 
HETATM   13  C19 MIQ B 502      17.652 -10.236  10.772  1.00140.06     0.247 C 
HETATM   14  O25 MIQ B 502      18.640  -9.592  10.761  1.00143.95    -0.271 OA
HETATM   15  N20 MIQ B 502      17.727 -11.642  10.431  1.00140.02    -0.296 N 
HETATM   16  H13 MIQ B 502      18.597 -12.066  10.178  1.00142.77     0.171 HD
HETATM   17  C21 MIQ B 502      16.505 -12.404  10.442  1.00142.22     0.224 C 
HETATM   18  C22 MIQ B 502      15.241 -11.671  10.036  1.00139.52     0.106 C 
HETATM   19  O24 MIQ B 502      16.490 -13.543  10.756  1.00146.13    -0.273 OA
HETATM   20  C23 MIQ B 502      15.115 -10.479  10.967  1.00139.15     0.045 C 
ENDBRANCH  10  12
BRANCH   5  21
HETATM   21  N6  MIQ B 502      15.939  -4.228   5.815  1.00140.95    -0.377 N 
HETATM   22  C7  MIQ B 502      16.869  -3.133   5.602  1.00142.12     0.149 C 
HETATM   23  C8  MIQ B 502      16.387  -2.181   4.514  1.00144.10     0.187 C 
HETATM   24  O9  MIQ B 502      15.971  -2.845   3.358  1.00148.65    -0.388 OA
HETATM   25  C10 MIQ B 502      15.816  -4.233   3.355  1.00147.44     0.187 C 
HETATM   26  C11 MIQ B 502      15.414  -4.925   4.654  1.00144.08     0.149 C 
ENDBRANCH   5  21
TORSDOF 2
ENDMDL
MODEL 7
REMARK VINA RESULT:      -7.5      1.691      2.447
REMARK  2 active torsions:
REMARK  status: ('A' for Active; 'I' for Inactive)
REMARK    1  A    between atoms: C5_5  and  N6_21 
REMARK    2  A    between atoms: C18_14  and  N17_19 
ROOT
HETATM    1  O1  MIQ B 502      13.600  -8.208  -3.635  1.00142.91    -0.171 OA
HETATM    2  C2  MIQ B 502      13.594  -6.889  -4.094  1.00141.17     0.195 A 
HETATM    3  C3  MIQ B 502      14.143  -5.643  -3.329  1.00141.71     0.035 A 
HETATM    4  C4  MIQ B 502      14.787  -5.462  -2.006  1.00142.86     0.046 A 
HETATM    5  C5  MIQ B 502      15.190  -4.172  -1.576  1.00139.53     0.031 A 
HETATM    6  C12 MIQ B 502      14.969  -3.021  -2.439  1.00139.38     0.030 A 
HETATM    7  C13 MIQ B 502      14.353  -3.194  -3.707  1.00141.18     0.019 A 
HETATM    8  C14 MIQ B 502      13.935  -4.551  -4.155  1.00138.77     0.033 A 
HETATM    9  C15 MIQ B 502      13.252  -5.122  -5.441  1.00142.10     0.195 A 
HETATM   10  N17 MIQ B 502      13.139  -6.425  -5.246  1.00139.42    -0.288 N 
HETATM   11  O16 MIQ B 502      12.844  -4.398  -6.562  1.00148.93    -0.171 OA
ENDROOT
BRANCH  10  12
HETATM   12  C18 MIQ B 502      12.529  -7.290  -6.239  1.00139.82     0.187 C 
HETATM   13  C19 MIQ B 502      11.340  -7.996  -5.576  1.00140.06     0.247 C 
HETATM   14  O25 MIQ B 502      10.537  -7.354  -4.999  1.00143.95    -0.271 OA
HETATM   15  N20 MIQ B 502      11.171  -9.433  -5.645  1.00140.02    -0.296 N 
HETATM   16  H13 MIQ B 502      10.394  -9.883  -5.202  1.00142.77     0.171 HD
HETATM   17  C21 MIQ B 502      12.170 -10.197  -6.347  1.00142.22     0.224 C 
HETATM   18  C22 MIQ B 502      13.594  -9.682  -6.279  1.00139.52     0.106 C 
HETATM   19  O24 MIQ B 502      11.889 -11.175  -6.949  1.00146.13    -0.273 OA
HETATM   20  C23 MIQ B 502      13.563  -8.259  -6.808  1.00139.15     0.045 C 
ENDBRANCH  10  12
BRANCH   5  21
HETATM   21  N6  MIQ B 502      15.806  -4.008  -0.272  1.00140.95    -0.377 N 
HETATM   22  C7  MIQ B 502      16.689  -2.874  -0.059  1.00142.12     0.149 C 
HETATM   23  C8  MIQ B 502      17.719  -3.151   1.028  1.00144.10     0.187 C 
HETATM   24  O9  MIQ B 502      17.156  -3.694   2.185  1.00148.65    -0.388 OA
HETATM   25  C10 MIQ B 502      15.828  -4.129   2.188  1.00147.44     0.187 C 
HETATM   26  C11 MIQ B 502      15.231  -4.663   0.890  1.00144.08     0.149 C 
ENDBRANCH   5  21
TORSDOF 2
ENDMDL
MODEL 8
REMARK VINA RESULT:      -7.4      1.698      2.245
REMARK  2 active torsions:
REMARK  status: ('A' for Active; 'I' for Inactive)
REMARK    1  A    between atoms: C5_5  and  N6_21 
REMARK    2  A    between atoms: C18_14  and  N17_19 
ROOT
HETATM    1  O1  MIQ B 502      14.881  -7.450  -1.934  1.00142.91    -0.171 OA
HETATM    2  C2  MIQ B 502      14.756  -6.085  -2.205  1.00141.17     0.195 A 
HETATM    3  C3  MIQ B 502      14.991  -4.919  -1.193  1.00141.71     0.035 A 
HETATM    4  C4  MIQ B 502      15.384  -4.872   0.235  1.00142.86     0.046 A 
HETATM    5  C5  MIQ B 502      15.521  -3.628   0.900  1.00139.53     0.031 A 
HETATM    6  C12 MIQ B 502      15.275  -2.390   0.175  1.00139.38     0.030 A 
HETATM    7  C13 MIQ B 502      14.899  -2.434  -1.194  1.00141.18     0.019 A 
HETATM    8  C14 MIQ B 502      14.759  -3.743  -1.889  1.00138.77     0.033 A 
HETATM    9  C15 MIQ B 502      14.379  -4.182  -3.340  1.00142.10     0.195 A 
HETATM   10  N17 MIQ B 502      14.427  -5.504  -3.346  1.00139.42    -0.288 N 
HETATM   11  O16 MIQ B 502      14.053  -3.345  -4.408  1.00148.93    -0.171 OA
ENDROOT
BRANCH  10  12
HETATM   12  C18 MIQ B 502      14.114  -6.268  -4.540  1.00139.82     0.187 C 
HETATM   13  C19 MIQ B 502      12.756  -6.946  -4.318  1.00140.06     0.247 C 
HETATM   14  O25 MIQ B 502      11.840  -6.296  -3.958  1.00143.95    -0.271 OA
HETATM   15  N20 MIQ B 502      12.565  -8.364  -4.544  1.00140.02    -0.296 N 
HETATM   16  H13 MIQ B 502      11.675  -8.796  -4.389  1.00142.77     0.171 HD
HETATM   17  C21 MIQ B 502      13.701  -9.138  -4.973  1.00142.22     0.224 C 
HETATM   18  C22 MIQ B 502      15.056  -8.709  -4.445  1.00139.52     0.106 C 
HETATM   19  O24 MIQ B 502      13.581 -10.058  -5.705  1.00146.13    -0.273 OA
HETATM   20  C23 MIQ B 502      15.237  -7.257  -4.848  1.00139.15     0.045 C 
ENDBRANCH  10  12
BRANCH   5  21
HETATM   21  N6  MIQ B 502      15.892  -3.598   2.303  1.00140.95    -0.377 N 
HETATM   22  C7  MIQ B 502      15.789  -4.824   3.075  1.00142.12     0.149 C 
HETATM   23  C8  MIQ B 502      15.572  -4.547   4.557  1.00144.10     0.187 C 
HETATM   24  O9  MIQ B 502      16.455  -3.593   5.067  1.00148.65    -0.388 OA
HETATM   25  C10 MIQ B 502      17.262  -2.845   4.207  1.00147.44     0.187 C 
HETATM   26  C11 MIQ B 502      16.745  -2.535   2.806  1.00144.08     0.149 C 
ENDBRANCH   5  21
TORSDOF 2
ENDMDL
MODEL 9
REMARK VINA RESULT:      -7.4      3.438      9.626
REMARK  2 active torsions:
REMARK  status: ('A' for Active; 'I' for Inactive)
REMARK    1  A    between atoms: C5_5  and  N6_21 
REMARK    2  A    between atoms: C18_14  and  N17_19 
ROOT
HETATM    1  O1  MIQ B 502      15.315  -8.336  -5.451  1.00142.91    -0.171 OA
HETATM    2  C2  MIQ B 502      13.933  -8.518  -5.376  1.00141.17     0.195 A 
HETATM    3  C3  MIQ B 502      13.028  -9.166  -6.472  1.00141.71     0.035 A 
HETATM    4  C4  MIQ B 502      13.301  -9.743  -7.809  1.00142.86     0.046 A 
HETATM    5  C5  MIQ B 502      12.244 -10.271  -8.592  1.00139.53     0.031 A 
HETATM    6  C12 MIQ B 502      10.882 -10.246  -8.078  1.00139.38     0.030 A 
HETATM    7  C13 MIQ B 502      10.619  -9.694  -6.795  1.00141.18     0.019 A 
HETATM    8  C14 MIQ B 502      11.734  -9.143  -5.977  1.00138.77     0.033 A 
HETATM    9  C15 MIQ B 502      11.837  -8.478  -4.566  1.00142.10     0.195 A 
HETATM   10  N17 MIQ B 502      13.117  -8.196  -4.387  1.00139.42    -0.288 N 
HETATM   11  O16 MIQ B 502      10.787  -8.232  -3.679  1.00148.93    -0.171 OA
ENDROOT
BRANCH  10  12
HETATM   12  C18 MIQ B 502      13.588  -7.549  -3.177  1.00139.82     0.187 C 
HETATM   13  C19 MIQ B 502      14.340  -6.277  -3.590  1.00140.06     0.247 C 
HETATM   14  O25 MIQ B 502      13.820  -5.514  -4.324  1.00143.95    -0.271 OA
HETATM   15  N20 MIQ B 502      15.670  -5.982  -3.098  1.00140.02    -0.296 N 
HETATM   16  H13 MIQ B 502      16.152  -5.152  -3.380  1.00142.77     0.171 HD
HETATM   17  C21 MIQ B 502      16.287  -6.935  -2.211  1.00142.22     0.224 C 
HETATM   18  C22 MIQ B 502      15.955  -8.396  -2.442  1.00139.52     0.106 C 
HETATM   19  O24 MIQ B 502      17.013  -6.591  -1.344  1.00146.13    -0.273 OA
HETATM   20  C23 MIQ B 502      14.444  -8.513  -2.357  1.00139.15     0.045 C 
ENDBRANCH  10  12
BRANCH   5  21
HETATM   21  N6  MIQ B 502      12.524 -10.820  -9.907  1.00140.95    -0.377 N 
HETATM   22  C7  MIQ B 502      13.377 -11.992 -10.002  1.00142.12     0.149 C 
HETATM   23  C8  MIQ B 502      14.092 -12.067 -11.346  1.00144.10     0.187 C 
HETATM   24  O9  MIQ B 502      13.235 -11.862 -12.429  1.00148.65    -0.388 OA
HETATM   25  C10 MIQ B 502      11.930 -11.408 -12.223  1.00147.44     0.187 C 
HETATM   26  C11 MIQ B 502      11.651 -10.508 -11.024  1.00144.08     0.149 C 
ENDBRANCH   5  21
TORSDOF 2
ENDMDL
