MODEL 1
REMARK VINA RESULT:      -7.9      0.000      0.000
REMARK  2 active torsions:
REMARK  status: ('A' for Active; 'I' for Inactive)
REMARK    1  A    between atoms: C5_5  and  N6_21 
REMARK    2  A    between atoms: C18_14  and  N17_19 
ROOT
HETATM    1  O1  MIQ B 502      -5.751  -1.391  19.132  1.00142.91    -0.171 OA
HETATM    2  C2  MIQ B 502      -6.716  -0.402  18.931  1.00141.17     0.195 A 
HETATM    3  C3  MIQ B 502      -8.202  -0.454  19.409  1.00141.71     0.035 A 
HETATM    4  C4  MIQ B 502      -8.998  -1.456  20.157  1.00142.86     0.046 A 
HETATM    5  C5  MIQ B 502     -10.363  -1.211  20.451  1.00139.53     0.031 A 
HETATM    6  C12 MIQ B 502     -10.985   0.031  20.017  1.00139.38     0.030 A 
HETATM    7  C13 MIQ B 502     -10.222   0.992  19.301  1.00141.18     0.019 A 
HETATM    8  C14 MIQ B 502      -8.789   0.732  18.996  1.00138.77     0.033 A 
HETATM    9  C15 MIQ B 502      -7.660   1.523  18.258  1.00142.10     0.195 A 
HETATM   10  N17 MIQ B 502      -6.582   0.759  18.314  1.00139.42    -0.288 N 
HETATM   11  O16 MIQ B 502      -7.774   2.780  17.661  1.00148.93    -0.171 OA
ENDROOT
BRANCH  10  12
HETATM   12  C18 MIQ B 502      -5.329   1.172  17.709  1.00139.82     0.187 C 
HETATM   13  C19 MIQ B 502      -4.890   0.066  16.742  1.00140.06     0.247 C 
HETATM   14  O25 MIQ B 502      -5.656  -0.334  15.939  1.00143.95    -0.271 OA
HETATM   15  N20 MIQ B 502      -3.556  -0.498  16.782  1.00140.02    -0.296 N 
HETATM   16  H13 MIQ B 502      -3.284  -1.225  16.149  1.00142.77     0.171 HD
HETATM   17  C21 MIQ B 502      -2.643  -0.001  17.778  1.00142.22     0.224 C 
HETATM   18  C22 MIQ B 502      -3.245   0.420  19.105  1.00139.52     0.106 C 
HETATM   19  O24 MIQ B 502      -1.483   0.080  17.568  1.00146.13    -0.273 OA
HETATM   20  C23 MIQ B 502      -4.291   1.473  18.789  1.00139.15     0.045 C 
ENDBRANCH  10  12
BRANCH   5  21
HETATM   21  N6  MIQ B 502     -11.135  -2.208  21.172  1.00140.95    -0.377 N 
HETATM   22  C7  MIQ B 502     -11.680  -1.858  22.472  1.00142.12     0.149 C 
HETATM   23  C8  MIQ B 502     -11.873  -3.083  23.357  1.00144.10     0.187 C 
HETATM   24  O9  MIQ B 502     -12.521  -4.131  22.700  1.00148.65    -0.388 OA
HETATM   25  C10 MIQ B 502     -12.728  -4.080  21.319  1.00147.44     0.187 C 
HETATM   26  C11 MIQ B 502     -11.719  -3.329  20.457  1.00144.08     0.149 C 
ENDBRANCH   5  21
TORSDOF 2
ENDMDL
MODEL 2
REMARK VINA RESULT:      -7.3      1.037      1.220
REMARK  2 active torsions:
REMARK  status: ('A' for Active; 'I' for Inactive)
REMARK    1  A    between atoms: C5_5  and  N6_21 
REMARK    2  A    between atoms: C18_14  and  N17_19 
ROOT
HETATM    1  O1  MIQ B 502      -6.473  -1.231  18.717  1.00142.91    -0.171 OA
HETATM    2  C2  MIQ B 502      -7.261  -0.080  18.640  1.00141.17     0.195 A 
HETATM    3  C3  MIQ B 502      -8.755   0.046  19.075  1.00141.71     0.035 A 
HETATM    4  C4  MIQ B 502      -9.731  -0.906  19.656  1.00142.86     0.046 A 
HETATM    5  C5  MIQ B 502     -11.052  -0.486  19.955  1.00139.53     0.031 A 
HETATM    6  C12 MIQ B 502     -11.451   0.889  19.690  1.00139.38     0.030 A 
HETATM    7  C13 MIQ B 502     -10.515   1.802  19.134  1.00141.18     0.019 A 
HETATM    8  C14 MIQ B 502      -9.129   1.356  18.825  1.00138.77     0.033 A 
HETATM    9  C15 MIQ B 502      -7.859   2.048  18.230  1.00142.10     0.195 A 
HETATM   10  N17 MIQ B 502      -6.918   1.118  18.198  1.00139.42    -0.288 N 
HETATM   11  O16 MIQ B 502      -7.747   3.376  17.816  1.00148.93    -0.171 OA
ENDROOT
BRANCH  10  12
HETATM   12  C18 MIQ B 502      -5.591   1.401  17.684  1.00139.82     0.187 C 
HETATM   13  C19 MIQ B 502      -5.239   0.306  16.670  1.00140.06     0.247 C 
HETATM   14  O25 MIQ B 502      -6.001   0.055  15.806  1.00143.95    -0.271 OA
HETATM   15  N20 MIQ B 502      -3.991  -0.426  16.739  1.00140.02    -0.296 N 
HETATM   16  H13 MIQ B 502      -3.776  -1.144  16.075  1.00142.77     0.171 HD
HETATM   17  C21 MIQ B 502      -3.081  -0.109  17.810  1.00142.22     0.224 C 
HETATM   18  C22 MIQ B 502      -3.701   0.308  19.130  1.00139.52     0.106 C 
HETATM   19  O24 MIQ B 502      -1.910  -0.166  17.662  1.00146.13    -0.273 OA
HETATM   20  C23 MIQ B 502      -4.587   1.504  18.831  1.00139.15     0.045 C 
ENDBRANCH  10  12
BRANCH   5  21
HETATM   21  N6  MIQ B 502     -12.002  -1.434  20.510  1.00140.95    -0.377 N 
HETATM   22  C7  MIQ B 502     -11.492  -2.635  21.148  1.00142.12     0.149 C 
HETATM   23  C8  MIQ B 502     -12.497  -3.779  21.092  1.00144.10     0.187 C 
HETATM   24  O9  MIQ B 502     -13.780  -3.394  21.484  1.00148.65    -0.388 OA
HETATM   25  C10 MIQ B 502     -14.090  -2.043  21.665  1.00147.44     0.187 C 
HETATM   26  C11 MIQ B 502     -13.354  -1.007  20.822  1.00144.08     0.149 C 
ENDBRANCH   5  21
TORSDOF 2
ENDMDL
MODEL 3
REMARK VINA RESULT:      -7.3      1.016      1.172
REMARK  2 active torsions:
REMARK  status: ('A' for Active; 'I' for Inactive)
REMARK    1  A    between atoms: C5_5  and  N6_21 
REMARK    2  A    between atoms: C18_14  and  N17_19 
ROOT
HETATM    1  O1  MIQ B 502      -6.491  -1.375  18.940  1.00142.91    -0.171 OA
HETATM    2  C2  MIQ B 502      -7.309  -0.251  18.803  1.00141.17     0.195 A 
HETATM    3  C3  MIQ B 502      -8.819  -0.155  19.190  1.00141.71     0.035 A 
HETATM    4  C4  MIQ B 502      -9.784  -1.118  19.772  1.00142.86     0.046 A 
HETATM    5  C5  MIQ B 502     -11.125  -0.728  20.019  1.00139.53     0.031 A 
HETATM    6  C12 MIQ B 502     -11.554   0.625  19.698  1.00139.38     0.030 A 
HETATM    7  C13 MIQ B 502     -10.629   1.549  19.141  1.00141.18     0.019 A 
HETATM    8  C14 MIQ B 502      -9.222   1.135  18.887  1.00138.77     0.033 A 
HETATM    9  C15 MIQ B 502      -7.955   1.845  18.308  1.00142.10     0.195 A 
HETATM   10  N17 MIQ B 502      -6.987   0.943  18.333  1.00139.42    -0.288 N 
HETATM   11  O16 MIQ B 502      -7.869   3.162  17.855  1.00148.93    -0.171 OA
ENDROOT
BRANCH  10  12
HETATM   12  C18 MIQ B 502      -5.654   1.249  17.850  1.00139.82     0.187 C 
HETATM   13  C19 MIQ B 502      -5.308   0.231  16.756  1.00140.06     0.247 C 
HETATM   14  O25 MIQ B 502      -6.068   0.056  15.871  1.00143.95    -0.271 OA
HETATM   15  N20 MIQ B 502      -4.069  -0.520  16.775  1.00140.02    -0.296 N 
HETATM   16  H13 MIQ B 502      -3.858  -1.186  16.058  1.00142.77     0.171 HD
HETATM   17  C21 MIQ B 502      -3.162  -0.296  17.871  1.00142.22     0.224 C 
HETATM   18  C22 MIQ B 502      -3.785   0.025  19.216  1.00139.52     0.106 C 
HETATM   19  O24 MIQ B 502      -1.991  -0.356  17.726  1.00146.13    -0.273 OA
HETATM   20  C23 MIQ B 502      -4.656   1.250  19.007  1.00139.15     0.045 C 
ENDBRANCH  10  12
BRANCH   5  21
HETATM   21  N6  MIQ B 502     -12.063  -1.686  20.575  1.00140.95    -0.377 N 
HETATM   22  C7  MIQ B 502     -13.449  -1.633  20.142  1.00142.12     0.149 C 
HETATM   23  C8  MIQ B 502     -14.397  -2.185  21.199  1.00144.10     0.187 C 
HETATM   24  O9  MIQ B 502     -13.979  -3.413  21.714  1.00148.65    -0.388 OA
HETATM   25  C10 MIQ B 502     -12.705  -3.907  21.422  1.00147.44     0.187 C 
HETATM   26  C11 MIQ B 502     -11.575  -2.913  21.180  1.00144.08     0.149 C 
ENDBRANCH   5  21
TORSDOF 2
ENDMDL
MODEL 4
REMARK VINA RESULT:      -6.9      1.960      2.354
REMARK  2 active torsions:
REMARK  status: ('A' for Active; 'I' for Inactive)
REMARK    1  A    between atoms: C5_5  and  N6_21 
REMARK    2  A    between atoms: C18_14  and  N17_19 
ROOT
HETATM    1  O1  MIQ B 502      -6.608  -2.700  19.226  1.00142.91    -0.171 OA
HETATM    2  C2  MIQ B 502      -6.766  -1.357  19.576  1.00141.17     0.195 A 
HETATM    3  C3  MIQ B 502      -7.958  -0.749  20.381  1.00141.71     0.035 A 
HETATM    4  C4  MIQ B 502      -9.184  -1.328  20.981  1.00142.86     0.046 A 
HETATM    5  C5  MIQ B 502     -10.104  -0.499  21.673  1.00139.53     0.031 A 
HETATM    6  C12 MIQ B 502      -9.841   0.928  21.794  1.00139.38     0.030 A 
HETATM    7  C13 MIQ B 502      -8.666   1.483  21.220  1.00141.18     0.019 A 
HETATM    8  C14 MIQ B 502      -7.703   0.608  20.497  1.00138.77     0.033 A 
HETATM    9  C15 MIQ B 502      -6.344   0.843  19.760  1.00142.10     0.195 A 
HETATM   10  N17 MIQ B 502      -5.962  -0.342  19.313  1.00139.42    -0.288 N 
HETATM   11  O16 MIQ B 502      -5.676   2.059  19.606  1.00148.93    -0.171 OA
ENDROOT
BRANCH  10  12
HETATM   12  C18 MIQ B 502      -4.734  -0.506  18.556  1.00139.82     0.187 C 
HETATM   13  C19 MIQ B 502      -3.578   0.007  19.423  1.00140.06     0.247 C 
HETATM   14  O25 MIQ B 502      -3.469  -0.387  20.530  1.00143.95    -0.271 OA
HETATM   15  N20 MIQ B 502      -2.610   0.960  18.920  1.00140.02    -0.296 N 
HETATM   16  H13 MIQ B 502      -1.864   1.292  19.498  1.00142.77     0.171 HD
HETATM   17  C21 MIQ B 502      -2.770   1.434  17.569  1.00142.22     0.224 C 
HETATM   18  C22 MIQ B 502      -4.192   1.574  17.061  1.00139.52     0.106 C 
HETATM   19  O24 MIQ B 502      -1.838   1.696  16.892  1.00146.13    -0.273 OA
HETATM   20  C23 MIQ B 502      -4.840   0.210  17.210  1.00139.15     0.045 C 
ENDBRANCH  10  12
BRANCH   5  21
HETATM   21  N6  MIQ B 502     -11.307  -1.077  22.242  1.00140.95    -0.377 N 
HETATM   22  C7  MIQ B 502     -12.505  -1.134  21.423  1.00142.12     0.149 C 
HETATM   23  C8  MIQ B 502     -13.773  -1.134  22.268  1.00144.10     0.187 C 
HETATM   24  O9  MIQ B 502     -13.725  -2.051  23.320  1.00148.65    -0.388 OA
HETATM   25  C10 MIQ B 502     -12.527  -2.693  23.645  1.00147.44     0.187 C 
HETATM   26  C11 MIQ B 502     -11.214  -1.960  23.392  1.00144.08     0.149 C 
ENDBRANCH   5  21
TORSDOF 2
ENDMDL
MODEL 5
REMARK VINA RESULT:      -6.9      1.817      2.951
REMARK  2 active torsions:
REMARK  status: ('A' for Active; 'I' for Inactive)
REMARK    1  A    between atoms: C5_5  and  N6_21 
REMARK    2  A    between atoms: C18_14  and  N17_19 
ROOT
HETATM    1  O1  MIQ B 502      -7.800   2.781  17.662  1.00142.91    -0.171 OA
HETATM    2  C2  MIQ B 502      -7.654   1.522  18.249  1.00141.17     0.195 A 
HETATM    3  C3  MIQ B 502      -8.760   0.726  19.012  1.00141.71     0.035 A 
HETATM    4  C4  MIQ B 502     -10.180   1.005  19.331  1.00142.86     0.046 A 
HETATM    5  C5  MIQ B 502     -10.951   0.063  20.057  1.00139.53     0.031 A 
HETATM    6  C12 MIQ B 502     -10.342  -1.187  20.491  1.00139.38     0.030 A 
HETATM    7  C13 MIQ B 502      -8.981  -1.455  20.185  1.00141.18     0.019 A 
HETATM    8  C14 MIQ B 502      -8.178  -0.463  19.420  1.00138.77     0.033 A 
HETATM    9  C15 MIQ B 502      -6.702  -0.405  18.907  1.00142.10     0.195 A 
HETATM   10  N17 MIQ B 502      -6.578   0.754  18.281  1.00139.42    -0.288 N 
HETATM   11  O16 MIQ B 502      -5.718  -1.379  19.081  1.00148.93    -0.171 OA
ENDROOT
BRANCH  10  12
HETATM   12  C18 MIQ B 502      -5.321   1.160  17.681  1.00139.82     0.187 C 
HETATM   13  C19 MIQ B 502      -4.875   0.046  16.727  1.00140.06     0.247 C 
HETATM   14  O25 MIQ B 502      -5.635  -0.361  15.922  1.00143.95    -0.271 OA
HETATM   15  N20 MIQ B 502      -3.543  -0.519  16.782  1.00140.02    -0.296 N 
HETATM   16  H13 MIQ B 502      -3.266  -1.251  16.158  1.00142.77     0.171 HD
HETATM   17  C21 MIQ B 502      -2.636  -0.013  17.780  1.00142.22     0.224 C 
HETATM   18  C22 MIQ B 502      -3.248   0.419  19.099  1.00139.52     0.106 C 
HETATM   19  O24 MIQ B 502      -1.475   0.065  17.577  1.00146.13    -0.273 OA
HETATM   20  C23 MIQ B 502      -4.291   1.471  18.766  1.00139.15     0.045 C 
ENDBRANCH  10  12
BRANCH   5  21
HETATM   21  N6  MIQ B 502     -12.336   0.356  20.375  1.00140.95    -0.377 N 
HETATM   22  C7  MIQ B 502     -13.130   1.094  19.407  1.00142.12     0.149 C 
HETATM   23  C8  MIQ B 502     -14.262   1.867  20.071  1.00144.10     0.187 C 
HETATM   24  O9  MIQ B 502     -14.992   1.093  20.975  1.00148.65    -0.388 OA
HETATM   25  C10 MIQ B 502     -14.533  -0.171  21.356  1.00147.44     0.187 C 
HETATM   26  C11 MIQ B 502     -13.029  -0.423  21.386  1.00144.08     0.149 C 
ENDBRANCH   5  21
TORSDOF 2
ENDMDL
MODEL 6
REMARK VINA RESULT:      -6.8      1.584      1.837
REMARK  2 active torsions:
REMARK  status: ('A' for Active; 'I' for Inactive)
REMARK    1  A    between atoms: C5_5  and  N6_21 
REMARK    2  A    between atoms: C18_14  and  N17_19 
ROOT
HETATM    1  O1  MIQ B 502      -5.777   0.080  19.770  1.00142.91    -0.171 OA
HETATM    2  C2  MIQ B 502      -7.022   0.111  19.138  1.00141.17     0.195 A 
HETATM    3  C3  MIQ B 502      -8.383  -0.337  19.759  1.00141.71     0.035 A 
HETATM    4  C4  MIQ B 502      -8.770  -0.882  21.082  1.00142.86     0.046 A 
HETATM    5  C5  MIQ B 502     -10.123  -1.202  21.358  1.00139.53     0.031 A 
HETATM    6  C12 MIQ B 502     -11.138  -0.992  20.335  1.00139.38     0.030 A 
HETATM    7  C13 MIQ B 502     -10.768  -0.468  19.067  1.00141.18     0.019 A 
HETATM    8  C14 MIQ B 502      -9.346  -0.132  18.784  1.00138.77     0.033 A 
HETATM    9  C15 MIQ B 502      -8.578   0.447  17.551  1.00142.10     0.195 A 
HETATM   10  N17 MIQ B 502      -7.308   0.521  17.914  1.00139.42    -0.288 N 
HETATM   11  O16 MIQ B 502      -9.127   0.809  16.319  1.00148.93    -0.171 OA
ENDROOT
BRANCH  10  12
HETATM   12  C18 MIQ B 502      -6.288   1.005  17.003  1.00139.82     0.187 C 
HETATM   13  C19 MIQ B 502      -5.221  -0.089  16.871  1.00140.06     0.247 C 
HETATM   14  O25 MIQ B 502      -5.555  -1.190  16.612  1.00143.95    -0.271 OA
HETATM   15  N20 MIQ B 502      -3.812   0.193  17.049  1.00140.02    -0.296 N 
HETATM   16  H13 MIQ B 502      -3.126  -0.531  16.967  1.00142.77     0.171 HD
HETATM   17  C21 MIQ B 502      -3.430   1.543  17.375  1.00142.22     0.224 C 
HETATM   18  C22 MIQ B 502      -4.397   2.337  18.232  1.00139.52     0.106 C 
HETATM   19  O24 MIQ B 502      -2.415   2.009  16.988  1.00146.13    -0.273 OA
HETATM   20  C23 MIQ B 502      -5.725   2.337  17.496  1.00139.15     0.045 C 
ENDBRANCH  10  12
BRANCH   5  21
HETATM   21  N6  MIQ B 502     -10.485  -1.749  22.653  1.00140.95    -0.377 N 
HETATM   22  C7  MIQ B 502     -10.115  -1.010  23.847  1.00142.12     0.149 C 
HETATM   23  C8  MIQ B 502      -9.955  -1.924  25.055  1.00144.10     0.187 C 
HETATM   24  O9  MIQ B 502     -11.021  -2.812  25.209  1.00148.65    -0.388 OA
HETATM   25  C10 MIQ B 502     -11.976  -2.954  24.199  1.00147.44     0.187 C 
HETATM   26  C11 MIQ B 502     -11.545  -2.737  22.752  1.00144.08     0.149 C 
ENDBRANCH   5  21
TORSDOF 2
ENDMDL
MODEL 7
REMARK VINA RESULT:      -6.6      2.342      3.056
REMARK  2 active torsions:
REMARK  status: ('A' for Active; 'I' for Inactive)
REMARK    1  A    between atoms: C5_5  and  N6_21 
REMARK    2  A    between atoms: C18_14  and  N17_19 
ROOT
HETATM    1  O1  MIQ B 502      -8.079   0.428  16.847  1.00142.91    -0.171 OA
HETATM    2  C2  MIQ B 502      -7.930   0.908  18.150  1.00141.17     0.195 A 
HETATM    3  C3  MIQ B 502      -8.621   0.335  19.429  1.00141.71     0.035 A 
HETATM    4  C4  MIQ B 502      -9.560  -0.788  19.663  1.00142.86     0.046 A 
HETATM    5  C5  MIQ B 502     -10.024  -1.072  20.972  1.00139.53     0.031 A 
HETATM    6  C12 MIQ B 502      -9.575  -0.257  22.091  1.00139.38     0.030 A 
HETATM    7  C13 MIQ B 502      -8.674   0.819  21.867  1.00141.18     0.019 A 
HETATM    8  C14 MIQ B 502      -8.188   1.112  20.491  1.00138.77     0.033 A 
HETATM    9  C15 MIQ B 502      -7.223   2.172  19.869  1.00142.10     0.195 A 
HETATM   10  N17 MIQ B 502      -7.189   1.919  18.571  1.00139.42    -0.288 N 
HETATM   11  O16 MIQ B 502      -6.539   3.182  20.549  1.00148.93    -0.171 OA
ENDROOT
BRANCH  10  12
HETATM   12  C18 MIQ B 502      -6.396   2.725  17.662  1.00139.82     0.187 C 
HETATM   13  C19 MIQ B 502      -4.962   2.767  18.204  1.00140.06     0.247 C 
HETATM   14  O25 MIQ B 502      -4.421   1.756  18.482  1.00143.95    -0.271 OA
HETATM   15  N20 MIQ B 502      -4.248   4.015  18.379  1.00140.02    -0.296 N 
HETATM   16  H13 MIQ B 502      -3.314   4.029  18.740  1.00142.77     0.171 HD
HETATM   17  C21 MIQ B 502      -4.933   5.237  18.043  1.00142.22     0.224 C 
HETATM   18  C22 MIQ B 502      -6.429   5.268  18.286  1.00139.52     0.106 C 
HETATM   19  O24 MIQ B 502      -4.355   6.165  17.595  1.00146.13    -0.273 OA
HETATM   20  C23 MIQ B 502      -7.018   4.111  17.499  1.00139.15     0.045 C 
ENDBRANCH  10  12
BRANCH   5  21
HETATM   21  N6  MIQ B 502     -10.955  -2.165  21.185  1.00140.95    -0.377 N 
HETATM   22  C7  MIQ B 502     -11.612  -2.277  22.476  1.00142.12     0.149 C 
HETATM   23  C8  MIQ B 502     -12.009  -3.714  22.790  1.00144.10     0.187 C 
HETATM   24  O9  MIQ B 502     -12.666  -4.340  21.730  1.00148.65    -0.388 OA
HETATM   25  C10 MIQ B 502     -12.711  -3.739  20.470  1.00147.44     0.187 C 
HETATM   26  C11 MIQ B 502     -11.549  -2.845  20.047  1.00144.08     0.149 C 
ENDBRANCH   5  21
TORSDOF 2
ENDMDL
MODEL 8
REMARK VINA RESULT:      -6.3      3.939      6.003
REMARK  2 active torsions:
REMARK  status: ('A' for Active; 'I' for Inactive)
REMARK    1  A    between atoms: C5_5  and  N6_21 
REMARK    2  A    between atoms: C18_14  and  N17_19 
ROOT
HETATM    1  O1  MIQ B 502      -9.321   0.373  18.808  1.00142.91    -0.171 OA
HETATM    2  C2  MIQ B 502      -8.557   1.472  18.409  1.00141.17     0.195 A 
HETATM    3  C3  MIQ B 502      -9.105   2.875  17.997  1.00141.71     0.035 A 
HETATM    4  C4  MIQ B 502     -10.468   3.450  17.905  1.00142.86     0.046 A 
HETATM    5  C5  MIQ B 502     -10.653   4.793  17.490  1.00139.53     0.031 A 
HETATM    6  C12 MIQ B 502      -9.497   5.611  17.153  1.00139.38     0.030 A 
HETATM    7  C13 MIQ B 502      -8.190   5.060  17.242  1.00141.18     0.019 A 
HETATM    8  C14 MIQ B 502      -8.001   3.651  17.681  1.00138.77     0.033 A 
HETATM    9  C15 MIQ B 502      -6.761   2.723  17.898  1.00142.10     0.195 A 
HETATM   10  N17 MIQ B 502      -7.242   1.559  18.302  1.00139.42    -0.288 N 
HETATM   11  O16 MIQ B 502      -5.421   3.061  17.702  1.00148.93    -0.171 OA
ENDROOT
BRANCH  10  12
HETATM   12  C18 MIQ B 502      -6.368   0.437  18.588  1.00139.82     0.187 C 
HETATM   13  C19 MIQ B 502      -5.296   0.919  19.573  1.00140.06     0.247 C 
HETATM   14  O25 MIQ B 502      -5.627   1.480  20.556  1.00143.95    -0.271 OA
HETATM   15  N20 MIQ B 502      -3.884   0.698  19.334  1.00140.02    -0.296 N 
HETATM   16  H13 MIQ B 502      -3.194   1.024  19.982  1.00142.77     0.171 HD
HETATM   17  C21 MIQ B 502      -3.504   0.019  18.122  1.00142.22     0.224 C 
HETATM   18  C22 MIQ B 502      -4.371   0.264  16.903  1.00139.52     0.106 C 
HETATM   19  O24 MIQ B 502      -2.564  -0.697  18.084  1.00146.13    -0.273 OA
HETATM   20  C23 MIQ B 502      -5.785  -0.127  17.293  1.00139.15     0.045 C 
ENDBRANCH  10  12
BRANCH   5  21
HETATM   21  N6  MIQ B 502     -11.994   5.338  17.390  1.00140.95    -0.377 N 
HETATM   22  C7  MIQ B 502     -12.384   6.397  18.306  1.00142.12     0.149 C 
HETATM   23  C8  MIQ B 502     -13.888   6.419  18.543  1.00144.10     0.187 C 
HETATM   24  O9  MIQ B 502     -14.626   6.352  17.359  1.00148.65    -0.388 OA
HETATM   25  C10 MIQ B 502     -13.995   6.060  16.147  1.00147.44     0.187 C 
HETATM   26  C11 MIQ B 502     -12.757   5.169  16.166  1.00144.08     0.149 C 
ENDBRANCH   5  21
TORSDOF 2
ENDMDL
MODEL 9
REMARK VINA RESULT:      -6.3      3.384      5.587
REMARK  2 active torsions:
REMARK  status: ('A' for Active; 'I' for Inactive)
REMARK    1  A    between atoms: C5_5  and  N6_21 
REMARK    2  A    between atoms: C18_14  and  N17_19 
ROOT
HETATM    1  O1  MIQ B 502      -6.756   2.189  17.439  1.00142.91    -0.171 OA
HETATM    2  C2  MIQ B 502      -7.703   1.542  18.237  1.00141.17     0.195 A 
HETATM    3  C3  MIQ B 502      -9.189   1.978  18.441  1.00141.71     0.035 A 
HETATM    4  C4  MIQ B 502     -10.004   3.097  17.912  1.00142.86     0.046 A 
HETATM    5  C5  MIQ B 502     -11.365   3.233  18.288  1.00139.53     0.031 A 
HETATM    6  C12 MIQ B 502     -11.963   2.266  19.198  1.00139.38     0.030 A 
HETATM    7  C13 MIQ B 502     -11.182   1.192  19.703  1.00141.18     0.019 A 
HETATM    8  C14 MIQ B 502      -9.755   1.053  19.303  1.00138.77     0.033 A 
HETATM    9  C15 MIQ B 502      -8.614   0.038  19.637  1.00142.10     0.195 A 
HETATM   10  N17 MIQ B 502      -7.550   0.450  18.966  1.00139.42    -0.288 N 
HETATM   11  O16 MIQ B 502      -8.703  -1.075  20.475  1.00148.93    -0.171 OA
ENDROOT
BRANCH  10  12
HETATM   12  C18 MIQ B 502      -6.283  -0.252  19.049  1.00139.82     0.187 C 
HETATM   13  C19 MIQ B 502      -5.209   0.767  19.448  1.00140.06     0.247 C 
HETATM   14  O25 MIQ B 502      -5.391   1.459  20.386  1.00143.95    -0.271 OA
HETATM   15  N20 MIQ B 502      -3.971   0.901  18.707  1.00140.02    -0.296 N 
HETATM   16  H13 MIQ B 502      -3.281   1.575  18.974  1.00142.77     0.171 HD
HETATM   17  C21 MIQ B 502      -3.776   0.053  17.560  1.00142.22     0.224 C 
HETATM   18  C22 MIQ B 502      -5.013  -0.305  16.760  1.00139.52     0.106 C 
HETATM   19  O24 MIQ B 502      -2.705  -0.347  17.263  1.00146.13    -0.273 OA
HETATM   20  C23 MIQ B 502      -5.980  -0.960  17.729  1.00139.15     0.045 C 
ENDBRANCH  10  12
BRANCH   5  21
HETATM   21  N6  MIQ B 502     -12.147   4.342  17.775  1.00140.95    -0.377 N 
HETATM   22  C7  MIQ B 502     -12.974   5.097  18.702  1.00142.12     0.149 C 
HETATM   23  C8  MIQ B 502     -14.164   5.744  18.005  1.00144.10     0.187 C 
HETATM   24  O9  MIQ B 502     -13.808   6.419  16.836  1.00148.65    -0.388 OA
HETATM   25  C10 MIQ B 502     -12.526   6.277  16.299  1.00147.44     0.187 C 
HETATM   26  C11 MIQ B 502     -11.789   4.959  16.510  1.00144.08     0.149 C 
ENDBRANCH   5  21
TORSDOF 2
ENDMDL
