MODEL 1
REMARK VINA RESULT:      -6.5      0.000      0.000
REMARK  2 active torsions:
REMARK  status: ('A' for Active; 'I' for Inactive)
REMARK    1  A    between atoms: C5_5  and  N6_21 
REMARK    2  A    between atoms: C18_14  and  N17_19 
ROOT
HETATM    1  O1  MIQ B 502       3.807 -25.656   0.195  1.00142.91    -0.171 OA
HETATM    2  C2  MIQ B 502       4.052 -24.555   1.020  1.00141.17     0.195 A 
HETATM    3  C3  MIQ B 502       3.193 -23.253   1.100  1.00141.71     0.035 A 
HETATM    4  C4  MIQ B 502       1.964 -22.799   0.407  1.00142.86     0.046 A 
HETATM    5  C5  MIQ B 502       1.403 -21.530   0.700  1.00139.53     0.031 A 
HETATM    6  C12 MIQ B 502       2.038 -20.671   1.688  1.00139.38     0.030 A 
HETATM    7  C13 MIQ B 502       3.216 -21.106   2.354  1.00141.18     0.019 A 
HETATM    8  C14 MIQ B 502       3.799 -22.440   2.043  1.00138.77     0.033 A 
HETATM    9  C15 MIQ B 502       5.041 -23.242   2.553  1.00142.10     0.195 A 
HETATM   10  N17 MIQ B 502       5.033 -24.387   1.890  1.00139.42    -0.288 N 
HETATM   11  O16 MIQ B 502       5.968 -22.828   3.511  1.00148.93    -0.171 OA
ENDROOT
BRANCH  10  12
HETATM   12  C18 MIQ B 502       6.063 -25.388   2.096  1.00139.82     0.187 C 
HETATM   13  C19 MIQ B 502       6.142 -25.673   3.601  1.00140.06     0.247 C 
HETATM   14  O25 MIQ B 502       5.154 -25.929   4.192  1.00143.95    -0.271 OA
HETATM   15  N20 MIQ B 502       7.400 -25.643   4.319  1.00140.02    -0.296 N 
HETATM   16  H13 MIQ B 502       7.438 -25.825   5.302  1.00142.77     0.171 HD
HETATM   17  C21 MIQ B 502       8.592 -25.318   3.577  1.00142.22     0.224 C 
HETATM   18  C22 MIQ B 502       8.436 -24.334   2.434  1.00139.52     0.106 C 
HETATM   19  O24 MIQ B 502       9.637 -25.800   3.846  1.00146.13    -0.273 OA
HETATM   20  C23 MIQ B 502       7.389 -24.918   1.502  1.00139.15     0.045 C 
ENDBRANCH  10  12
BRANCH   5  21
HETATM   21  N6  MIQ B 502       0.208 -21.092   0.003  1.00140.95    -0.377 N 
HETATM   22  C7  MIQ B 502      -0.246 -21.856  -1.146  1.00142.12     0.149 C 
HETATM   23  C8  MIQ B 502      -1.041 -20.998  -2.122  1.00144.10     0.187 C 
HETATM   24  O9  MIQ B 502      -2.021 -20.228  -1.494  1.00148.65    -0.388 OA
HETATM   25  C10 MIQ B 502      -2.055 -20.124  -0.101  1.00147.44     0.187 C 
HETATM   26  C11 MIQ B 502      -0.742 -20.219   0.670  1.00144.08     0.149 C 
ENDBRANCH   5  21
TORSDOF 2
ENDMDL
MODEL 2
REMARK VINA RESULT:      -6.4     15.286     16.605
REMARK  2 active torsions:
REMARK  status: ('A' for Active; 'I' for Inactive)
REMARK    1  A    between atoms: C5_5  and  N6_21 
REMARK    2  A    between atoms: C18_14  and  N17_19 
ROOT
HETATM    1  O1  MIQ B 502      -2.428 -34.373  10.446  1.00142.91    -0.171 OA
HETATM    2  C2  MIQ B 502      -2.817 -34.762   9.162  1.00141.17     0.195 A 
HETATM    3  C3  MIQ B 502      -4.205 -35.355   8.759  1.00141.71     0.035 A 
HETATM    4  C4  MIQ B 502      -5.439 -35.666   9.518  1.00142.86     0.046 A 
HETATM    5  C5  MIQ B 502      -6.569 -36.211   8.857  1.00139.53     0.031 A 
HETATM    6  C12 MIQ B 502      -6.515 -36.465   7.424  1.00139.38     0.030 A 
HETATM    7  C13 MIQ B 502      -5.332 -36.166   6.696  1.00141.18     0.019 A 
HETATM    8  C14 MIQ B 502      -4.150 -35.592   7.395  1.00138.77     0.033 A 
HETATM    9  C15 MIQ B 502      -2.720 -35.143   6.949  1.00142.10     0.195 A 
HETATM   10  N17 MIQ B 502      -2.116 -34.709   8.043  1.00139.42    -0.288 N 
HETATM   11  O16 MIQ B 502      -2.193 -35.195   5.658  1.00148.93    -0.171 OA
ENDROOT
BRANCH  10  12
HETATM   12  C18 MIQ B 502      -0.749 -34.222   8.010  1.00139.82     0.187 C 
HETATM   13  C19 MIQ B 502       0.043 -34.981   9.081  1.00140.06     0.247 C 
HETATM   14  O25 MIQ B 502      -0.004 -36.160   9.105  1.00143.95    -0.271 OA
HETATM   15  N20 MIQ B 502       0.855 -34.292  10.063  1.00140.02    -0.296 N 
HETATM   16  H13 MIQ B 502       1.363 -34.800  10.761  1.00142.77     0.171 HD
HETATM   17  C21 MIQ B 502       0.888 -32.853  10.021  1.00142.22     0.224 C 
HETATM   18  C22 MIQ B 502      -0.383 -32.155   9.577  1.00139.52     0.106 C 
HETATM   19  O24 MIQ B 502       1.861 -32.249  10.313  1.00146.13    -0.273 OA
HETATM   20  C23 MIQ B 502      -0.720 -32.706   8.203  1.00139.15     0.045 C 
ENDBRANCH  10  12
BRANCH   5  21
HETATM   21  N6  MIQ B 502      -7.766 -36.525   9.615  1.00140.95    -0.377 N 
HETATM   22  C7  MIQ B 502      -7.747 -36.332  11.055  1.00142.12     0.149 C 
HETATM   23  C8  MIQ B 502      -8.732 -37.252  11.765  1.00144.10     0.187 C 
HETATM   24  O9  MIQ B 502      -9.999 -37.247  11.179  1.00148.65    -0.388 OA
HETATM   25  C10 MIQ B 502     -10.205 -36.629   9.943  1.00147.44     0.187 C 
HETATM   26  C11 MIQ B 502      -9.053 -36.593   8.945  1.00144.08     0.149 C 
ENDBRANCH   5  21
TORSDOF 2
ENDMDL
MODEL 3
REMARK VINA RESULT:      -6.3     16.398     20.481
REMARK  2 active torsions:
REMARK  status: ('A' for Active; 'I' for Inactive)
REMARK    1  A    between atoms: C5_5  and  N6_21 
REMARK    2  A    between atoms: C18_14  and  N17_19 
ROOT
HETATM    1  O1  MIQ B 502     -16.172 -27.529  -1.442  1.00142.91    -0.171 OA
HETATM    2  C2  MIQ B 502     -15.571 -27.524  -0.182  1.00141.17     0.195 A 
HETATM    3  C3  MIQ B 502     -16.142 -28.180   1.115  1.00141.71     0.035 A 
HETATM    4  C4  MIQ B 502     -17.376 -28.946   1.412  1.00142.86     0.046 A 
HETATM    5  C5  MIQ B 502     -17.624 -29.427   2.722  1.00139.53     0.031 A 
HETATM    6  C12 MIQ B 502     -16.660 -29.167   3.782  1.00139.38     0.030 A 
HETATM    7  C13 MIQ B 502     -15.476 -28.434   3.498  1.00141.18     0.019 A 
HETATM    8  C14 MIQ B 502     -15.220 -27.933   2.119  1.00138.77     0.033 A 
HETATM    9  C15 MIQ B 502     -14.069 -27.120   1.442  1.00142.10     0.195 A 
HETATM   10  N17 MIQ B 502     -14.418 -26.983   0.173  1.00139.42    -0.288 N 
HETATM   11  O16 MIQ B 502     -12.913 -26.637   2.056  1.00148.93    -0.171 OA
ENDROOT
BRANCH  10  12
HETATM   12  C18 MIQ B 502     -13.583 -26.259  -0.768  1.00139.82     0.187 C 
HETATM   13  C19 MIQ B 502     -12.169 -26.845  -0.686  1.00140.06     0.247 C 
HETATM   14  O25 MIQ B 502     -12.023 -28.012  -0.777  1.00143.95    -0.271 OA
HETATM   15  N20 MIQ B 502     -11.002 -26.005  -0.506  1.00140.02    -0.296 N 
HETATM   16  H13 MIQ B 502     -10.085 -26.400  -0.448  1.00142.77     0.171 HD
HETATM   17  C21 MIQ B 502     -11.207 -24.584  -0.388  1.00142.22     0.224 C 
HETATM   18  C22 MIQ B 502     -12.483 -24.134   0.297  1.00139.52     0.106 C 
HETATM   19  O24 MIQ B 502     -10.420 -23.809  -0.809  1.00146.13    -0.273 OA
HETATM   20  C23 MIQ B 502     -13.630 -24.760  -0.475  1.00139.15     0.045 C 
ENDBRANCH  10  12
BRANCH   5  21
HETATM   21  N6  MIQ B 502     -18.844 -30.162   3.001  1.00140.95    -0.377 N 
HETATM   22  C7  MIQ B 502     -19.603 -29.822   4.192  1.00142.12     0.149 C 
HETATM   23  C8  MIQ B 502     -20.419 -31.003   4.703  1.00144.10     0.187 C 
HETATM   24  O9  MIQ B 502     -21.145 -31.638   3.694  1.00148.65    -0.388 OA
HETATM   25  C10 MIQ B 502     -20.917 -31.323   2.352  1.00147.44     0.187 C 
HETATM   26  C11 MIQ B 502     -19.518 -30.880   1.934  1.00144.08     0.149 C 
ENDBRANCH   5  21
TORSDOF 2
ENDMDL
MODEL 4
REMARK VINA RESULT:      -6.3     14.199     15.566
REMARK  2 active torsions:
REMARK  status: ('A' for Active; 'I' for Inactive)
REMARK    1  A    between atoms: C5_5  and  N6_21 
REMARK    2  A    between atoms: C18_14  and  N17_19 
ROOT
HETATM    1  O1  MIQ B 502      -1.191 -34.035  10.827  1.00142.91    -0.171 OA
HETATM    2  C2  MIQ B 502      -1.418 -34.479   9.522  1.00141.17     0.195 A 
HETATM    3  C3  MIQ B 502      -2.804 -34.841   8.899  1.00141.71     0.035 A 
HETATM    4  C4  MIQ B 502      -4.191 -34.832   9.423  1.00142.86     0.046 A 
HETATM    5  C5  MIQ B 502      -5.273 -35.223   8.595  1.00139.53     0.031 A 
HETATM    6  C12 MIQ B 502      -5.019 -35.635   7.222  1.00139.38     0.030 A 
HETATM    7  C13 MIQ B 502      -3.690 -35.643   6.718  1.00141.18     0.019 A 
HETATM    8  C14 MIQ B 502      -2.558 -35.229   7.592  1.00138.77     0.033 A 
HETATM    9  C15 MIQ B 502      -1.011 -35.107   7.403  1.00142.10     0.195 A 
HETATM   10  N17 MIQ B 502      -0.534 -34.679   8.560  1.00139.42    -0.288 N 
HETATM   11  O16 MIQ B 502      -0.286 -35.395   6.245  1.00148.93    -0.171 OA
ENDROOT
BRANCH  10  12
HETATM   12  C18 MIQ B 502       0.887 -34.463   8.760  1.00139.82     0.187 C 
HETATM   13  C19 MIQ B 502       1.294 -35.192  10.047  1.00140.06     0.247 C 
HETATM   14  O25 MIQ B 502       0.996 -36.325  10.185  1.00143.95    -0.271 OA
HETATM   15  N20 MIQ B 502       2.039 -34.529  11.097  1.00140.02    -0.296 N 
HETATM   16  H13 MIQ B 502       2.293 -35.014  11.935  1.00142.77     0.171 HD
HETATM   17  C21 MIQ B 502       2.382 -33.143  10.909  1.00142.22     0.224 C 
HETATM   18  C22 MIQ B 502       1.388 -32.294  10.139  1.00139.52     0.106 C 
HETATM   19  O24 MIQ B 502       3.390 -32.693  11.331  1.00146.13    -0.273 OA
HETATM   20  C23 MIQ B 502       1.198 -32.968   8.792  1.00139.15     0.045 C 
ENDBRANCH  10  12
BRANCH   5  21
HETATM   21  N6  MIQ B 502      -6.624 -35.223   9.126  1.00140.95    -0.377 N 
HETATM   22  C7  MIQ B 502      -7.710 -35.646   8.259  1.00142.12     0.149 C 
HETATM   23  C8  MIQ B 502      -9.037 -35.016   8.662  1.00144.10     0.187 C 
HETATM   24  O9  MIQ B 502      -9.293 -35.116  10.031  1.00148.65    -0.388 OA
HETATM   25  C10 MIQ B 502      -8.293 -35.545  10.908  1.00147.44     0.187 C 
HETATM   26  C11 MIQ B 502      -6.839 -35.240  10.562  1.00144.08     0.149 C 
ENDBRANCH   5  21
TORSDOF 2
ENDMDL
MODEL 5
REMARK VINA RESULT:      -6.2     16.658     21.221
REMARK  2 active torsions:
REMARK  status: ('A' for Active; 'I' for Inactive)
REMARK    1  A    between atoms: C5_5  and  N6_21 
REMARK    2  A    between atoms: C18_14  and  N17_19 
ROOT
HETATM    1  O1  MIQ B 502     -14.904 -20.751   4.412  1.00142.91    -0.171 OA
HETATM    2  C2  MIQ B 502     -15.611 -20.555   5.601  1.00141.17     0.195 A 
HETATM    3  C3  MIQ B 502     -17.162 -20.617   5.772  1.00141.71     0.035 A 
HETATM    4  C4  MIQ B 502     -18.281 -20.878   4.836  1.00142.86     0.046 A 
HETATM    5  C5  MIQ B 502     -19.621 -20.869   5.300  1.00139.53     0.031 A 
HETATM    6  C12 MIQ B 502     -19.897 -20.601   6.705  1.00139.38     0.030 A 
HETATM    7  C13 MIQ B 502     -18.824 -20.352   7.602  1.00141.18     0.019 A 
HETATM    8  C14 MIQ B 502     -17.420 -20.365   7.110  1.00138.77     0.033 A 
HETATM    9  C15 MIQ B 502     -16.020 -20.146   7.773  1.00142.10     0.195 A 
HETATM   10  N17 MIQ B 502     -15.131 -20.288   6.803  1.00139.42    -0.288 N 
HETATM   11  O16 MIQ B 502     -15.767 -19.858   9.115  1.00148.93    -0.171 OA
ENDROOT
BRANCH  10  12
HETATM   12  C18 MIQ B 502     -13.710 -20.135   7.052  1.00139.82     0.187 C 
HETATM   13  C19 MIQ B 502     -13.198 -19.001   6.155  1.00140.06     0.247 C 
HETATM   14  O25 MIQ B 502     -13.760 -17.964   6.161  1.00143.95    -0.271 OA
HETATM   15  N20 MIQ B 502     -12.037 -19.165   5.304  1.00140.02    -0.296 N 
HETATM   16  H13 MIQ B 502     -11.717 -18.419   4.718  1.00142.77     0.171 HD
HETATM   17  C21 MIQ B 502     -11.375 -20.444   5.306  1.00142.22     0.224 C 
HETATM   18  C22 MIQ B 502     -12.251 -21.665   5.506  1.00139.52     0.106 C 
HETATM   19  O24 MIQ B 502     -10.205 -20.534   5.164  1.00146.13    -0.273 OA
HETATM   20  C23 MIQ B 502     -12.984 -21.460   6.819  1.00139.15     0.045 C 
ENDBRANCH  10  12
BRANCH   5  21
HETATM   21  N6  MIQ B 502     -20.708 -21.112   4.370  1.00140.95    -0.377 N 
HETATM   22  C7  MIQ B 502     -20.635 -22.278   3.506  1.00142.12     0.149 C 
HETATM   23  C8  MIQ B 502     -21.421 -22.081   2.216  1.00144.10     0.187 C 
HETATM   24  O9  MIQ B 502     -22.706 -21.578   2.434  1.00148.65    -0.388 OA
HETATM   25  C10 MIQ B 502     -23.077 -21.108   3.697  1.00147.44     0.187 C 
HETATM   26  C11 MIQ B 502     -22.005 -20.497   4.592  1.00144.08     0.149 C 
ENDBRANCH   5  21
TORSDOF 2
ENDMDL
MODEL 6
REMARK VINA RESULT:      -6.2     17.564     22.185
REMARK  2 active torsions:
REMARK  status: ('A' for Active; 'I' for Inactive)
REMARK    1  A    between atoms: C5_5  and  N6_21 
REMARK    2  A    between atoms: C18_14  and  N17_19 
ROOT
HETATM    1  O1  MIQ B 502     -17.736 -28.834  -0.678  1.00142.91    -0.171 OA
HETATM    2  C2  MIQ B 502     -17.535 -28.975   0.697  1.00141.17     0.195 A 
HETATM    3  C3  MIQ B 502     -16.320 -28.428   1.512  1.00141.71     0.035 A 
HETATM    4  C4  MIQ B 502     -15.109 -27.658   1.143  1.00142.86     0.046 A 
HETATM    5  C5  MIQ B 502     -14.160 -27.295   2.132  1.00139.53     0.031 A 
HETATM    6  C12 MIQ B 502     -14.378 -27.683   3.518  1.00139.38     0.030 A 
HETATM    7  C13 MIQ B 502     -15.539 -28.421   3.873  1.00141.18     0.019 A 
HETATM    8  C14 MIQ B 502     -16.533 -28.796   2.830  1.00138.77     0.033 A 
HETATM    9  C15 MIQ B 502     -17.889 -29.576   2.834  1.00142.10     0.195 A 
HETATM   10  N17 MIQ B 502     -18.310 -29.582   1.580  1.00139.42    -0.288 N 
HETATM   11  O16 MIQ B 502     -18.520 -30.149   3.939  1.00148.93    -0.171 OA
ENDROOT
BRANCH  10  12
HETATM   12  C18 MIQ B 502     -19.546 -30.239   1.199  1.00139.82     0.187 C 
HETATM   13  C19 MIQ B 502     -19.225 -31.215   0.060  1.00140.06     0.247 C 
HETATM   14  O25 MIQ B 502     -18.341 -31.983   0.192  1.00143.95    -0.271 OA
HETATM   15  N20 MIQ B 502     -19.984 -31.223  -1.174  1.00140.02    -0.296 N 
HETATM   16  H13 MIQ B 502     -19.760 -31.861  -1.913  1.00142.77     0.171 HD
HETATM   17  C21 MIQ B 502     -21.052 -30.268  -1.316  1.00142.22     0.224 C 
HETATM   18  C22 MIQ B 502     -20.856 -28.922  -0.646  1.00139.52     0.106 C 
HETATM   19  O24 MIQ B 502     -22.035 -30.525  -1.920  1.00146.13    -0.273 OA
HETATM   20  C23 MIQ B 502     -20.605 -29.204   0.824  1.00139.15     0.045 C 
ENDBRANCH  10  12
BRANCH   5  21
HETATM   21  N6  MIQ B 502     -12.971 -26.553   1.753  1.00140.95    -0.377 N 
HETATM   22  C7  MIQ B 502     -11.777 -27.295   1.386  1.00142.12     0.149 C 
HETATM   23  C8  MIQ B 502     -10.508 -26.493   1.643  1.00144.10     0.187 C 
HETATM   24  O9  MIQ B 502     -10.578 -25.190   1.146  1.00148.65    -0.388 OA
HETATM   25  C10 MIQ B 502     -11.792 -24.673   0.687  1.00147.44     0.187 C 
HETATM   26  C11 MIQ B 502     -13.085 -25.171   1.323  1.00144.08     0.149 C 
ENDBRANCH   5  21
TORSDOF 2
ENDMDL
MODEL 7
REMARK VINA RESULT:      -6.1     15.786     18.051
REMARK  2 active torsions:
REMARK  status: ('A' for Active; 'I' for Inactive)
REMARK    1  A    between atoms: C5_5  and  N6_21 
REMARK    2  A    between atoms: C18_14  and  N17_19 
ROOT
HETATM    1  O1  MIQ B 502      -6.287 -35.355  10.299  1.00142.91    -0.171 OA
HETATM    2  C2  MIQ B 502      -5.742 -35.602   9.036  1.00141.17     0.195 A 
HETATM    3  C3  MIQ B 502      -4.293 -35.249   8.573  1.00141.71     0.035 A 
HETATM    4  C4  MIQ B 502      -3.136 -34.609   9.242  1.00142.86     0.046 A 
HETATM    5  C5  MIQ B 502      -1.917 -34.421   8.543  1.00139.53     0.031 A 
HETATM    6  C12 MIQ B 502      -1.802 -34.861   7.160  1.00139.38     0.030 A 
HETATM    7  C13 MIQ B 502      -2.911 -35.476   6.518  1.00141.18     0.019 A 
HETATM    8  C14 MIQ B 502      -4.187 -35.673   7.258  1.00138.77     0.033 A 
HETATM    9  C15 MIQ B 502      -5.578 -36.293   6.904  1.00142.10     0.195 A 
HETATM   10  N17 MIQ B 502      -6.318 -36.176   7.994  1.00139.42    -0.288 N 
HETATM   11  O16 MIQ B 502      -5.958 -36.851   5.682  1.00148.93    -0.171 OA
ENDROOT
BRANCH  10  12
HETATM   12  C18 MIQ B 502      -7.694 -36.637   8.029  1.00139.82     0.187 C 
HETATM   13  C19 MIQ B 502      -8.555 -35.495   8.582  1.00140.06     0.247 C 
HETATM   14  O25 MIQ B 502      -8.463 -34.421   8.104  1.00143.95    -0.271 OA
HETATM   15  N20 MIQ B 502      -9.486 -35.700   9.672  1.00140.02    -0.296 N 
HETATM   16  H13 MIQ B 502     -10.039 -34.945  10.029  1.00142.77     0.171 HD
HETATM   17  C21 MIQ B 502      -9.574 -37.018  10.246  1.00142.22     0.224 C 
HETATM   18  C22 MIQ B 502      -8.295 -37.833  10.280  1.00139.52     0.106 C 
HETATM   19  O24 MIQ B 502     -10.594 -37.444  10.664  1.00146.13    -0.273 OA
HETATM   20  C23 MIQ B 502      -7.803 -37.923   8.846  1.00139.15     0.045 C 
ENDBRANCH  10  12
BRANCH   5  21
HETATM   21  N6  MIQ B 502      -0.797 -33.778   9.206  1.00140.95    -0.377 N 
HETATM   22  C7  MIQ B 502       0.056 -34.582  10.064  1.00142.12     0.149 C 
HETATM   23  C8  MIQ B 502       0.727 -33.744  11.145  1.00144.10     0.187 C 
HETATM   24  O9  MIQ B 502       1.311 -32.579  10.645  1.00148.65    -0.388 OA
HETATM   25  C10 MIQ B 502       1.065 -32.172   9.331  1.00147.44     0.187 C 
HETATM   26  C11 MIQ B 502      -0.278 -32.520   8.699  1.00144.08     0.149 C 
ENDBRANCH   5  21
TORSDOF 2
ENDMDL
MODEL 8
REMARK VINA RESULT:      -6.1     17.942     22.594
REMARK  2 active torsions:
REMARK  status: ('A' for Active; 'I' for Inactive)
REMARK    1  A    between atoms: C5_5  and  N6_21 
REMARK    2  A    between atoms: C18_14  and  N17_19 
ROOT
HETATM    1  O1  MIQ B 502     -18.507 -27.082  -0.211  1.00142.91    -0.171 OA
HETATM    2  C2  MIQ B 502     -18.122 -27.755   0.951  1.00141.17     0.195 A 
HETATM    3  C3  MIQ B 502     -16.719 -27.687   1.635  1.00141.71     0.035 A 
HETATM    4  C4  MIQ B 502     -15.465 -26.962   1.318  1.00142.86     0.046 A 
HETATM    5  C5  MIQ B 502     -14.327 -27.103   2.151  1.00139.53     0.031 A 
HETATM    6  C12 MIQ B 502     -14.391 -27.963   3.324  1.00139.38     0.030 A 
HETATM    7  C13 MIQ B 502     -15.593 -28.657   3.628  1.00141.18     0.019 A 
HETATM    8  C14 MIQ B 502     -16.786 -28.504   2.752  1.00138.77     0.033 A 
HETATM    9  C15 MIQ B 502     -18.238 -29.082   2.762  1.00142.10     0.195 A 
HETATM   10  N17 MIQ B 502     -18.843 -28.568   1.704  1.00139.42    -0.288 N 
HETATM   11  O16 MIQ B 502     -18.780 -29.964   3.698  1.00148.93    -0.171 OA
ENDROOT
BRANCH  10  12
HETATM   12  C18 MIQ B 502     -20.219 -28.901   1.381  1.00139.82     0.187 C 
HETATM   13  C19 MIQ B 502     -21.072 -28.618   2.624  1.00140.06     0.247 C 
HETATM   14  O25 MIQ B 502     -20.985 -27.569   3.156  1.00143.95    -0.271 OA
HETATM   15  N20 MIQ B 502     -21.987 -29.604   3.163  1.00140.02    -0.296 N 
HETATM   16  H13 MIQ B 502     -22.533 -29.409   3.979  1.00142.77     0.171 HD
HETATM   17  C21 MIQ B 502     -22.067 -30.882   2.503  1.00142.22     0.224 C 
HETATM   18  C22 MIQ B 502     -20.788 -31.408   1.880  1.00139.52     0.106 C 
HETATM   19  O24 MIQ B 502     -23.081 -31.485   2.446  1.00146.13    -0.273 OA
HETATM   20  C23 MIQ B 502     -20.317 -30.348   0.901  1.00139.15     0.045 C 
ENDBRANCH  10  12
BRANCH   5  21
HETATM   21  N6  MIQ B 502     -13.101 -26.399   1.820  1.00140.95    -0.377 N 
HETATM   22  C7  MIQ B 502     -11.965 -27.169   1.342  1.00142.12     0.149 C 
HETATM   23  C8  MIQ B 502     -10.642 -26.479   1.647  1.00144.10     0.187 C 
HETATM   24  O9  MIQ B 502     -10.638 -25.129   1.294  1.00148.65    -0.388 OA
HETATM   25  C10 MIQ B 502     -11.826 -24.490   0.927  1.00147.44     0.187 C 
HETATM   26  C11 MIQ B 502     -13.134 -24.973   1.544  1.00144.08     0.149 C 
ENDBRANCH   5  21
TORSDOF 2
ENDMDL
MODEL 9
REMARK VINA RESULT:      -6.1     17.485     19.364
REMARK  2 active torsions:
REMARK  status: ('A' for Active; 'I' for Inactive)
REMARK    1  A    between atoms: C5_5  and  N6_21 
REMARK    2  A    between atoms: C18_14  and  N17_19 
ROOT
HETATM    1  O1  MIQ B 502     -12.023 -21.452   6.348  1.00142.91    -0.171 OA
HETATM    2  C2  MIQ B 502     -13.136 -21.017   5.626  1.00141.17     0.195 A 
HETATM    3  C3  MIQ B 502     -13.760 -21.722   4.379  1.00141.71     0.035 A 
HETATM    4  C4  MIQ B 502     -13.419 -22.954   3.629  1.00142.86     0.046 A 
HETATM    5  C5  MIQ B 502     -14.194 -23.348   2.509  1.00139.53     0.031 A 
HETATM    6  C12 MIQ B 502     -15.330 -22.537   2.095  1.00139.38     0.030 A 
HETATM    7  C13 MIQ B 502     -15.658 -21.357   2.815  1.00141.18     0.019 A 
HETATM    8  C14 MIQ B 502     -14.842 -20.949   3.991  1.00138.77     0.033 A 
HETATM    9  C15 MIQ B 502     -14.891 -19.758   5.004  1.00142.10     0.195 A 
HETATM   10  N17 MIQ B 502     -13.884 -19.948   5.840  1.00139.42    -0.288 N 
HETATM   11  O16 MIQ B 502     -15.812 -18.709   5.016  1.00148.93    -0.171 OA
ENDROOT
BRANCH  10  12
HETATM   12  C18 MIQ B 502     -13.609 -19.017   6.918  1.00139.82     0.187 C 
HETATM   13  C19 MIQ B 502     -14.898 -18.851   7.733  1.00140.06     0.247 C 
HETATM   14  O25 MIQ B 502     -15.465 -19.812   8.115  1.00143.95    -0.271 OA
HETATM   15  N20 MIQ B 502     -15.436 -17.545   8.052  1.00140.02    -0.296 N 
HETATM   16  H13 MIQ B 502     -16.282 -17.450   8.579  1.00142.77     0.171 HD
HETATM   17  C21 MIQ B 502     -14.732 -16.387   7.566  1.00142.22     0.224 C 
HETATM   18  C22 MIQ B 502     -14.034 -16.527   6.226  1.00139.52     0.106 C 
HETATM   19  O24 MIQ B 502     -14.696 -15.380   8.184  1.00146.13    -0.273 OA
HETATM   20  C23 MIQ B 502     -13.077 -17.698   6.359  1.00139.15     0.045 C 
ENDBRANCH  10  12
BRANCH   5  21
HETATM   21  N6  MIQ B 502     -13.840 -24.548   1.774  1.00140.95    -0.377 N 
HETATM   22  C7  MIQ B 502     -14.451 -25.807   2.165  1.00142.12     0.149 C 
HETATM   23  C8  MIQ B 502     -13.575 -27.000   1.805  1.00144.10     0.187 C 
HETATM   24  O9  MIQ B 502     -13.099 -26.950   0.494  1.00148.65    -0.388 OA
HETATM   25  C10 MIQ B 502     -13.252 -25.790  -0.271  1.00147.44     0.187 C 
HETATM   26  C11 MIQ B 502     -13.267 -24.443   0.443  1.00144.08     0.149 C 
ENDBRANCH   5  21
TORSDOF 2
ENDMDL
