MODEL 1
REMARK VINA RESULT:      -7.6      0.000      0.000
REMARK  2 active torsions:
REMARK  status: ('A' for Active; 'I' for Inactive)
REMARK    1  A    between atoms: C5_5  and  N6_21 
REMARK    2  A    between atoms: C18_14  and  N17_19 
ROOT
HETATM    1  O1  MIQ B 502      -9.041  16.816  -0.226  1.00142.91    -0.171 OA
HETATM    2  C2  MIQ B 502      -8.282  15.653  -0.084  1.00141.17     0.195 A 
HETATM    3  C3  MIQ B 502      -8.798  14.188  -0.249  1.00141.71     0.035 A 
HETATM    4  C4  MIQ B 502     -10.120  13.605  -0.579  1.00142.86     0.046 A 
HETATM    5  C5  MIQ B 502     -10.283  12.199  -0.660  1.00139.53     0.031 A 
HETATM    6  C12 MIQ B 502      -9.144  11.324  -0.419  1.00139.38     0.030 A 
HETATM    7  C13 MIQ B 502      -7.877  11.883  -0.104  1.00141.18     0.019 A 
HETATM    8  C14 MIQ B 502      -7.711  13.360  -0.022  1.00138.77     0.033 A 
HETATM    9  C15 MIQ B 502      -6.513  14.316   0.285  1.00142.10     0.195 A 
HETATM   10  N17 MIQ B 502      -6.997  15.545   0.208  1.00139.42    -0.288 N 
HETATM   11  O16 MIQ B 502      -5.201  13.943   0.582  1.00148.93    -0.171 OA
ENDROOT
BRANCH  10  12
HETATM   12  C18 MIQ B 502      -6.161  16.705   0.452  1.00139.82     0.187 C 
HETATM   13  C19 MIQ B 502      -4.932  16.597  -0.459  1.00140.06     0.247 C 
HETATM   14  O25 MIQ B 502      -5.085  16.400  -1.612  1.00143.95    -0.271 OA
HETATM   15  N20 MIQ B 502      -3.585  16.735   0.056  1.00140.02    -0.296 N 
HETATM   16  H13 MIQ B 502      -2.791  16.656  -0.548  1.00142.77     0.171 HD
HETATM   17  C21 MIQ B 502      -3.423  16.964   1.469  1.00142.22     0.224 C 
HETATM   18  C22 MIQ B 502      -4.439  16.311   2.386  1.00139.52     0.106 C 
HETATM   19  O24 MIQ B 502      -2.544  17.633   1.889  1.00146.13    -0.273 OA
HETATM   20  C23 MIQ B 502      -5.803  16.800   1.935  1.00139.15     0.045 C 
ENDBRANCH  10  12
BRANCH   5  21
HETATM   21  N6  MIQ B 502     -11.587  11.641  -0.970  1.00140.95    -0.377 N 
HETATM   22  C7  MIQ B 502     -12.216  10.765   0.004  1.00142.12     0.149 C 
HETATM   23  C8  MIQ B 502     -13.181   9.785  -0.652  1.00144.10     0.187 C 
HETATM   24  O9  MIQ B 502     -14.052  10.401  -1.553  1.00148.65    -0.388 OA
HETATM   25  C10 MIQ B 502     -13.850  11.728  -1.938  1.00147.44     0.187 C 
HETATM   26  C11 MIQ B 502     -12.424  12.268  -1.978  1.00144.08     0.149 C 
ENDBRANCH   5  21
TORSDOF 2
ENDMDL
MODEL 2
REMARK VINA RESULT:      -7.6      1.501      2.409
REMARK  2 active torsions:
REMARK  status: ('A' for Active; 'I' for Inactive)
REMARK    1  A    between atoms: C5_5  and  N6_21 
REMARK    2  A    between atoms: C18_14  and  N17_19 
ROOT
HETATM    1  O1  MIQ B 502      -6.880  12.605  -2.290  1.00142.91    -0.171 OA
HETATM    2  C2  MIQ B 502      -7.525  13.446  -1.381  1.00141.17     0.195 A 
HETATM    3  C3  MIQ B 502      -9.016  13.342  -0.926  1.00141.71     0.035 A 
HETATM    4  C4  MIQ B 502     -10.122  12.416  -1.265  1.00142.86     0.046 A 
HETATM    5  C5  MIQ B 502     -11.400  12.578  -0.672  1.00139.53     0.031 A 
HETATM    6  C12 MIQ B 502     -11.625  13.660   0.276  1.00139.38     0.030 A 
HETATM    7  C13 MIQ B 502     -10.564  14.547   0.602  1.00141.18     0.019 A 
HETATM    8  C14 MIQ B 502      -9.224  14.371  -0.022  1.00138.77     0.033 A 
HETATM    9  C15 MIQ B 502      -7.855  15.118   0.085  1.00142.10     0.195 A 
HETATM   10  N17 MIQ B 502      -7.026  14.480  -0.725  1.00139.42    -0.288 N 
HETATM   11  O16 MIQ B 502      -7.571  16.233   0.875  1.00148.93    -0.171 OA
ENDROOT
BRANCH  10  12
HETATM   12  C18 MIQ B 502      -5.651  14.911  -0.895  1.00139.82     0.187 C 
HETATM   13  C19 MIQ B 502      -5.008  14.982   0.496  1.00140.06     0.247 C 
HETATM   14  O25 MIQ B 502      -5.092  14.053   1.217  1.00143.95    -0.271 OA
HETATM   15  N20 MIQ B 502      -4.294  16.158   0.948  1.00140.02    -0.296 N 
HETATM   16  H13 MIQ B 502      -3.884  16.194   1.860  1.00142.77     0.171 HD
HETATM   17  C21 MIQ B 502      -4.213  17.284   0.053  1.00142.22     0.224 C 
HETATM   18  C22 MIQ B 502      -5.404  17.518  -0.856  1.00139.52     0.106 C 
HETATM   19  O24 MIQ B 502      -3.263  17.986   0.026  1.00146.13    -0.273 OA
HETATM   20  C23 MIQ B 502      -5.599  16.238  -1.650  1.00139.15     0.045 C 
ENDBRANCH  10  12
BRANCH   5  21
HETATM   21  N6  MIQ B 502     -12.478  11.672  -1.025  1.00140.95    -0.377 N 
HETATM   22  C7  MIQ B 502     -12.787  10.575  -0.124  1.00142.12     0.149 C 
HETATM   23  C8  MIQ B 502     -13.421   9.400  -0.856  1.00144.10     0.187 C 
HETATM   24  O9  MIQ B 502     -14.461   9.785  -1.705  1.00148.65    -0.388 OA
HETATM   25  C10 MIQ B 502     -14.683  11.136  -1.983  1.00147.44     0.187 C 
HETATM   26  C11 MIQ B 502     -13.491  12.088  -1.980  1.00144.08     0.149 C 
ENDBRANCH   5  21
TORSDOF 2
ENDMDL
MODEL 3
REMARK VINA RESULT:      -7.4      3.391      9.949
REMARK  2 active torsions:
REMARK  status: ('A' for Active; 'I' for Inactive)
REMARK    1  A    between atoms: C5_5  and  N6_21 
REMARK    2  A    between atoms: C18_14  and  N17_19 
ROOT
HETATM    1  O1  MIQ B 502     -12.669   9.197  -3.117  1.00142.91    -0.171 OA
HETATM    2  C2  MIQ B 502     -13.098  10.248  -2.303  1.00141.17     0.195 A 
HETATM    3  C3  MIQ B 502     -12.181  11.259  -1.543  1.00141.71     0.035 A 
HETATM    4  C4  MIQ B 502     -10.712  11.427  -1.445  1.00142.86     0.046 A 
HETATM    5  C5  MIQ B 502     -10.161  12.468  -0.656  1.00139.53     0.031 A 
HETATM    6  C12 MIQ B 502     -11.044  13.378   0.059  1.00139.38     0.030 A 
HETATM    7  C13 MIQ B 502     -12.453  13.218  -0.036  1.00141.18     0.019 A 
HETATM    8  C14 MIQ B 502     -13.026  12.124  -0.867  1.00138.77     0.033 A 
HETATM    9  C15 MIQ B 502     -14.475  11.648  -1.210  1.00142.10     0.195 A 
HETATM   10  N17 MIQ B 502     -14.337  10.606  -2.013  1.00139.42    -0.288 N 
HETATM   11  O16 MIQ B 502     -15.669  12.210  -0.754  1.00148.93    -0.171 OA
ENDROOT
BRANCH  10  12
HETATM   12  C18 MIQ B 502     -15.488   9.887  -2.526  1.00139.82     0.187 C 
HETATM   13  C19 MIQ B 502     -15.245   8.390  -2.299  1.00140.06     0.247 C 
HETATM   14  O25 MIQ B 502     -14.934   8.014  -1.225  1.00143.95    -0.271 OA
HETATM   15  N20 MIQ B 502     -15.392   7.422  -3.366  1.00140.02    -0.296 N 
HETATM   16  H13 MIQ B 502     -15.223   6.448  -3.207  1.00142.77     0.171 HD
HETATM   17  C21 MIQ B 502     -15.762   7.907  -4.671  1.00142.22     0.224 C 
HETATM   18  C22 MIQ B 502     -15.242   9.277  -5.061  1.00139.52     0.106 C 
HETATM   19  O24 MIQ B 502     -16.442   7.269  -5.397  1.00146.13    -0.273 OA
HETATM   20  C23 MIQ B 502     -15.726  10.242  -3.993  1.00139.15     0.045 C 
ENDBRANCH  10  12
BRANCH   5  21
HETATM   21  N6  MIQ B 502      -8.720  12.612  -0.557  1.00140.95    -0.377 N 
HETATM   22  C7  MIQ B 502      -7.958  11.550   0.079  1.00142.12     0.149 C 
HETATM   23  C8  MIQ B 502      -6.659  12.066   0.684  1.00144.10     0.187 C 
HETATM   24  O9  MIQ B 502      -5.935  12.877  -0.193  1.00148.65    -0.388 OA
HETATM   25  C10 MIQ B 502      -6.511  13.317  -1.388  1.00147.44     0.187 C 
HETATM   26  C11 MIQ B 502      -8.020  13.534  -1.434  1.00144.08     0.149 C 
ENDBRANCH   5  21
TORSDOF 2
ENDMDL
MODEL 4
REMARK VINA RESULT:      -7.2      1.938      3.185
REMARK  2 active torsions:
REMARK  status: ('A' for Active; 'I' for Inactive)
REMARK    1  A    between atoms: C5_5  and  N6_21 
REMARK    2  A    between atoms: C18_14  and  N17_19 
ROOT
HETATM    1  O1  MIQ B 502      -8.398  12.481  -3.115  1.00142.91    -0.171 OA
HETATM    2  C2  MIQ B 502      -8.880  12.915  -1.878  1.00141.17     0.195 A 
HETATM    3  C3  MIQ B 502     -10.256  12.541  -1.241  1.00141.71     0.035 A 
HETATM    4  C4  MIQ B 502     -11.387  11.692  -1.685  1.00142.86     0.046 A 
HETATM    5  C5  MIQ B 502     -12.535  11.541  -0.866  1.00139.53     0.031 A 
HETATM    6  C12 MIQ B 502     -12.600  12.223   0.419  1.00139.38     0.030 A 
HETATM    7  C13 MIQ B 502     -11.516  13.036   0.845  1.00141.18     0.019 A 
HETATM    8  C14 MIQ B 502     -10.313  13.190  -0.018  1.00138.77     0.033 A 
HETATM    9  C15 MIQ B 502      -8.963  13.970   0.105  1.00142.10     0.195 A 
HETATM   10  N17 MIQ B 502      -8.288  13.709  -1.002  1.00139.42    -0.288 N 
HETATM   11  O16 MIQ B 502      -8.560  14.778   1.169  1.00148.93    -0.171 OA
ENDROOT
BRANCH  10  12
HETATM   12  C18 MIQ B 502      -6.978  14.284  -1.243  1.00139.82     0.187 C 
HETATM   13  C19 MIQ B 502      -6.077  13.909  -0.061  1.00140.06     0.247 C 
HETATM   14  O25 MIQ B 502      -6.007  12.780   0.274  1.00143.95    -0.271 OA
HETATM   15  N20 MIQ B 502      -5.303  14.902   0.655  1.00140.02    -0.296 N 
HETATM   16  H13 MIQ B 502      -4.723  14.645   1.430  1.00142.77     0.171 HD
HETATM   17  C21 MIQ B 502      -5.413  16.275   0.234  1.00142.22     0.224 C 
HETATM   18  C22 MIQ B 502      -6.762  16.717  -0.300  1.00139.52     0.106 C 
HETATM   19  O24 MIQ B 502      -4.495  17.016   0.298  1.00146.13    -0.273 OA
HETATM   20  C23 MIQ B 502      -7.091  15.793  -1.457  1.00139.15     0.045 C 
ENDBRANCH  10  12
BRANCH   5  21
HETATM   21  N6  MIQ B 502     -13.641  10.718  -1.320  1.00140.95    -0.377 N 
HETATM   22  C7  MIQ B 502     -14.423  11.172  -2.457  1.00142.12     0.149 C 
HETATM   23  C8  MIQ B 502     -15.845  10.627  -2.423  1.00144.10     0.187 C 
HETATM   24  O9  MIQ B 502     -15.895   9.254  -2.174  1.00148.65    -0.388 OA
HETATM   25  C10 MIQ B 502     -14.747   8.565  -1.775  1.00147.44     0.187 C 
HETATM   26  C11 MIQ B 502     -13.694   9.312  -0.962  1.00144.08     0.149 C 
ENDBRANCH   5  21
TORSDOF 2
ENDMDL
MODEL 5
REMARK VINA RESULT:      -7.2      5.983     12.893
REMARK  2 active torsions:
REMARK  status: ('A' for Active; 'I' for Inactive)
REMARK    1  A    between atoms: C5_5  and  N6_21 
REMARK    2  A    between atoms: C18_14  and  N17_19 
ROOT
HETATM    1  O1  MIQ B 502     -14.278   5.852  -4.659  1.00142.91    -0.171 OA
HETATM    2  C2  MIQ B 502     -15.111   6.964  -4.801  1.00141.17     0.195 A 
HETATM    3  C3  MIQ B 502     -14.907   8.361  -4.132  1.00141.71     0.035 A 
HETATM    4  C4  MIQ B 502     -13.873   8.916  -3.226  1.00142.86     0.046 A 
HETATM    5  C5  MIQ B 502     -13.960  10.257  -2.776  1.00139.53     0.031 A 
HETATM    6  C12 MIQ B 502     -15.070  11.094  -3.209  1.00139.38     0.030 A 
HETATM    7  C13 MIQ B 502     -16.060  10.563  -4.078  1.00141.18     0.019 A 
HETATM    8  C14 MIQ B 502     -15.963   9.155  -4.549  1.00138.77     0.033 A 
HETATM    9  C15 MIQ B 502     -16.828   8.246  -5.482  1.00142.10     0.195 A 
HETATM   10  N17 MIQ B 502     -16.218   7.072  -5.516  1.00139.42    -0.288 N 
HETATM   11  O16 MIQ B 502     -18.005   8.604  -6.141  1.00148.93    -0.171 OA
ENDROOT
BRANCH  10  12
HETATM   12  C18 MIQ B 502     -16.753   5.962  -6.282  1.00139.82     0.187 C 
HETATM   13  C19 MIQ B 502     -16.876   4.759  -5.339  1.00140.06     0.247 C 
HETATM   14  O25 MIQ B 502     -17.432   4.891  -4.307  1.00143.95    -0.271 OA
HETATM   15  N20 MIQ B 502     -16.332   3.461  -5.682  1.00140.02    -0.296 N 
HETATM   16  H13 MIQ B 502     -16.414   2.685  -5.055  1.00142.77     0.171 HD
HETATM   17  C21 MIQ B 502     -15.649   3.328  -6.943  1.00142.22     0.224 C 
HETATM   18  C22 MIQ B 502     -14.879   4.540  -7.432  1.00139.52     0.106 C 
HETATM   19  O24 MIQ B 502     -15.692   2.325  -7.566  1.00146.13    -0.273 OA
HETATM   20  C23 MIQ B 502     -15.874   5.684  -7.500  1.00139.15     0.045 C 
ENDBRANCH  10  12
BRANCH   5  21
HETATM   21  N6  MIQ B 502     -12.949  10.783  -1.877  1.00140.95    -0.377 N 
HETATM   22  C7  MIQ B 502     -12.478  12.142  -2.079  1.00142.12     0.149 C 
HETATM   23  C8  MIQ B 502     -11.061  12.338  -1.554  1.00144.10     0.187 C 
HETATM   24  O9  MIQ B 502     -10.884  11.830  -0.266  1.00148.65    -0.388 OA
HETATM   25  C10 MIQ B 502     -11.871  11.035   0.323  1.00147.44     0.187 C 
HETATM   26  C11 MIQ B 502     -12.742  10.166  -0.578  1.00144.08     0.149 C 
ENDBRANCH   5  21
TORSDOF 2
ENDMDL
MODEL 6
REMARK VINA RESULT:      -7.2      7.417     14.178
REMARK  2 active torsions:
REMARK  status: ('A' for Active; 'I' for Inactive)
REMARK    1  A    between atoms: C5_5  and  N6_21 
REMARK    2  A    between atoms: C18_14  and  N17_19 
ROOT
HETATM    1  O1  MIQ B 502     -17.129   5.273  -4.580  1.00142.91    -0.171 OA
HETATM    2  C2  MIQ B 502     -16.055   5.550  -5.429  1.00141.17     0.195 A 
HETATM    3  C3  MIQ B 502     -14.957   6.638  -5.201  1.00141.71     0.035 A 
HETATM    4  C4  MIQ B 502     -14.711   7.628  -4.126  1.00142.86     0.046 A 
HETATM    5  C5  MIQ B 502     -13.599   8.504  -4.199  1.00139.53     0.031 A 
HETATM    6  C12 MIQ B 502     -12.694   8.430  -5.337  1.00139.38     0.030 A 
HETATM    7  C13 MIQ B 502     -12.929   7.480  -6.368  1.00141.18     0.019 A 
HETATM    8  C14 MIQ B 502     -14.097   6.560  -6.284  1.00138.77     0.033 A 
HETATM    9  C15 MIQ B 502     -14.664   5.419  -7.189  1.00142.10     0.195 A 
HETATM   10  N17 MIQ B 502     -15.742   4.965  -6.572  1.00139.42    -0.288 N 
HETATM   11  O16 MIQ B 502     -14.136   4.974  -8.402  1.00148.93    -0.171 OA
ENDROOT
BRANCH  10  12
HETATM   12  C18 MIQ B 502     -16.546   3.898  -7.138  1.00139.82     0.187 C 
HETATM   13  C19 MIQ B 502     -18.013   4.344  -7.097  1.00140.06     0.247 C 
HETATM   14  O25 MIQ B 502     -18.306   5.398  -7.539  1.00143.95    -0.271 OA
HETATM   15  N20 MIQ B 502     -19.051   3.505  -6.536  1.00140.02    -0.296 N 
HETATM   16  H13 MIQ B 502     -20.004   3.811  -6.509  1.00142.77     0.171 HD
HETATM   17  C21 MIQ B 502     -18.666   2.227  -5.993  1.00142.22     0.224 C 
HETATM   18  C22 MIQ B 502     -17.299   2.148  -5.341  1.00139.52     0.106 C 
HETATM   19  O24 MIQ B 502     -19.380   1.288  -6.059  1.00146.13    -0.273 OA
HETATM   20  C23 MIQ B 502     -16.295   2.589  -6.390  1.00139.15     0.045 C 
ENDBRANCH  10  12
BRANCH   5  21
HETATM   21  N6  MIQ B 502     -13.379   9.479  -3.146  1.00140.95    -0.377 N 
HETATM   22  C7  MIQ B 502     -14.456  10.393  -2.810  1.00142.12     0.149 C 
HETATM   23  C8  MIQ B 502     -13.933  11.697  -2.220  1.00144.10     0.187 C 
HETATM   24  O9  MIQ B 502     -12.985  11.496  -1.215  1.00148.65    -0.388 OA
HETATM   25  C10 MIQ B 502     -12.448  10.226  -0.992  1.00147.44     0.187 C 
HETATM   26  C11 MIQ B 502     -12.322   9.269  -2.173  1.00144.08     0.149 C 
ENDBRANCH   5  21
TORSDOF 2
ENDMDL
MODEL 7
REMARK VINA RESULT:      -7.2      2.220      8.233
REMARK  2 active torsions:
REMARK  status: ('A' for Active; 'I' for Inactive)
REMARK    1  A    between atoms: C5_5  and  N6_21 
REMARK    2  A    between atoms: C18_14  and  N17_19 
ROOT
HETATM    1  O1  MIQ B 502      -9.971  16.236   0.893  1.00142.91    -0.171 OA
HETATM    2  C2  MIQ B 502      -9.105  15.333   0.272  1.00141.17     0.195 A 
HETATM    3  C3  MIQ B 502      -7.648  15.633  -0.205  1.00141.71     0.035 A 
HETATM    4  C4  MIQ B 502      -6.789  16.840  -0.161  1.00142.86     0.046 A 
HETATM    5  C5  MIQ B 502      -5.473  16.803  -0.687  1.00139.53     0.031 A 
HETATM    6  C12 MIQ B 502      -4.963  15.572  -1.272  1.00139.38     0.030 A 
HETATM    7  C13 MIQ B 502      -5.786  14.414  -1.314  1.00141.18     0.019 A 
HETATM    8  C14 MIQ B 502      -7.166  14.458  -0.758  1.00138.77     0.033 A 
HETATM    9  C15 MIQ B 502      -8.330  13.423  -0.624  1.00142.10     0.195 A 
HETATM   10  N17 MIQ B 502      -9.324  14.066  -0.033  1.00139.42    -0.288 N 
HETATM   11  O16 MIQ B 502      -8.319  12.092  -1.046  1.00148.93    -0.171 OA
ENDROOT
BRANCH  10  12
HETATM   12  C18 MIQ B 502     -10.590  13.413   0.244  1.00139.82     0.187 C 
HETATM   13  C19 MIQ B 502     -10.295  12.140   1.046  1.00140.06     0.247 C 
HETATM   14  O25 MIQ B 502      -9.616  12.210   2.009  1.00143.95    -0.271 OA
HETATM   15  N20 MIQ B 502     -10.831  10.851   0.659  1.00140.02    -0.296 N 
HETATM   16  H13 MIQ B 502     -10.625  10.027   1.187  1.00142.77     0.171 HD
HETATM   17  C21 MIQ B 502     -11.647  10.789  -0.526  1.00142.22     0.224 C 
HETATM   18  C22 MIQ B 502     -11.293  11.745  -1.649  1.00139.52     0.106 C 
HETATM   19  O24 MIQ B 502     -12.552  10.033  -0.614  1.00146.13    -0.273 OA
HETATM   20  C23 MIQ B 502     -11.343  13.142  -1.058  1.00139.15     0.045 C 
ENDBRANCH  10  12
BRANCH   5  21
HETATM   21  N6  MIQ B 502      -4.648  17.997  -0.650  1.00140.95    -0.377 N 
HETATM   22  C7  MIQ B 502      -3.326  17.910  -0.055  1.00142.12     0.149 C 
HETATM   23  C8  MIQ B 502      -2.860  19.252   0.495  1.00144.10     0.187 C 
HETATM   24  O9  MIQ B 502      -3.040  20.301  -0.408  1.00148.65    -0.388 OA
HETATM   25  C10 MIQ B 502      -3.786  20.111  -1.574  1.00147.44     0.187 C 
HETATM   26  C11 MIQ B 502      -4.928  19.100  -1.553  1.00144.08     0.149 C 
ENDBRANCH   5  21
TORSDOF 2
ENDMDL
MODEL 8
REMARK VINA RESULT:      -7.0      6.716     11.082
REMARK  2 active torsions:
REMARK  status: ('A' for Active; 'I' for Inactive)
REMARK    1  A    between atoms: C5_5  and  N6_21 
REMARK    2  A    between atoms: C18_14  and  N17_19 
ROOT
HETATM    1  O1  MIQ B 502     -16.660   7.382  -1.642  1.00142.91    -0.171 OA
HETATM    2  C2  MIQ B 502     -15.728   7.486  -2.676  1.00141.17     0.195 A 
HETATM    3  C3  MIQ B 502     -15.609   6.536  -3.910  1.00141.71     0.035 A 
HETATM    4  C4  MIQ B 502     -16.363   5.338  -4.350  1.00142.86     0.046 A 
HETATM    5  C5  MIQ B 502     -16.011   4.671  -5.550  1.00139.53     0.031 A 
HETATM    6  C12 MIQ B 502     -14.903   5.165  -6.354  1.00139.38     0.030 A 
HETATM    7  C13 MIQ B 502     -14.180   6.314  -5.933  1.00141.18     0.019 A 
HETATM    8  C14 MIQ B 502     -14.555   7.012  -4.673  1.00138.77     0.033 A 
HETATM    9  C15 MIQ B 502     -14.018   8.266  -3.910  1.00142.10     0.195 A 
HETATM   10  N17 MIQ B 502     -14.775   8.390  -2.832  1.00139.42    -0.288 N 
HETATM   11  O16 MIQ B 502     -12.952   9.083  -4.291  1.00148.93    -0.171 OA
ENDROOT
BRANCH  10  12
HETATM   12  C18 MIQ B 502     -14.553   9.451  -1.868  1.00139.82     0.187 C 
HETATM   13  C19 MIQ B 502     -14.575  10.784  -2.626  1.00140.06     0.247 C 
HETATM   14  O25 MIQ B 502     -15.481  11.024  -3.343  1.00143.95    -0.271 OA
HETATM   15  N20 MIQ B 502     -13.517  11.763  -2.482  1.00140.02    -0.296 N 
HETATM   16  H13 MIQ B 502     -13.540  12.627  -2.987  1.00142.77     0.171 HD
HETATM   17  C21 MIQ B 502     -12.417  11.443  -1.608  1.00142.22     0.224 C 
HETATM   18  C22 MIQ B 502     -12.011   9.984  -1.531  1.00139.52     0.106 C 
HETATM   19  O24 MIQ B 502     -11.864  12.278  -0.981  1.00146.13    -0.273 OA
HETATM   20  C23 MIQ B 502     -13.249   9.214  -1.108  1.00139.15     0.045 C 
ENDBRANCH  10  12
BRANCH   5  21
HETATM   21  N6  MIQ B 502     -16.749   3.490  -5.962  1.00140.95    -0.377 N 
HETATM   22  C7  MIQ B 502     -16.317   2.781  -7.153  1.00142.12     0.149 C 
HETATM   23  C8  MIQ B 502     -17.464   2.029  -7.816  1.00144.10     0.187 C 
HETATM   24  O9  MIQ B 502     -18.214   1.275  -6.911  1.00148.65    -0.388 OA
HETATM   25  C10 MIQ B 502     -18.023   1.426  -5.535  1.00147.44     0.187 C 
HETATM   26  C11 MIQ B 502     -17.585   2.787  -5.005  1.00144.08     0.149 C 
ENDBRANCH   5  21
TORSDOF 2
ENDMDL
MODEL 9
REMARK VINA RESULT:      -7.0      2.296      3.743
REMARK  2 active torsions:
REMARK  status: ('A' for Active; 'I' for Inactive)
REMARK    1  A    between atoms: C5_5  and  N6_21 
REMARK    2  A    between atoms: C18_14  and  N17_19 
ROOT
HETATM    1  O1  MIQ B 502      -8.761  13.364  -2.258  1.00142.91    -0.171 OA
HETATM    2  C2  MIQ B 502      -9.493  13.110  -1.095  1.00141.17     0.195 A 
HETATM    3  C3  MIQ B 502     -10.859  12.358  -1.012  1.00141.71     0.035 A 
HETATM    4  C4  MIQ B 502     -11.739  11.728  -2.024  1.00142.86     0.046 A 
HETATM    5  C5  MIQ B 502     -12.950  11.103  -1.632  1.00139.53     0.031 A 
HETATM    6  C12 MIQ B 502     -13.329  11.080  -0.227  1.00139.38     0.030 A 
HETATM    7  C13 MIQ B 502     -12.485  11.683   0.744  1.00141.18     0.019 A 
HETATM    8  C14 MIQ B 502     -11.214  12.336   0.327  1.00138.77     0.033 A 
HETATM    9  C15 MIQ B 502     -10.061  13.078   1.079  1.00142.10     0.195 A 
HETATM   10  N17 MIQ B 502      -9.191  13.438   0.149  1.00139.42    -0.288 N 
HETATM   11  O16 MIQ B 502      -9.973  13.312   2.452  1.00148.93    -0.171 OA
ENDROOT
BRANCH  10  12
HETATM   12  C18 MIQ B 502      -7.986  14.172   0.484  1.00139.82     0.187 C 
HETATM   13  C19 MIQ B 502      -8.007  15.490  -0.301  1.00140.06     0.247 C 
HETATM   14  O25 MIQ B 502      -8.967  16.174  -0.251  1.00143.95    -0.271 OA
HETATM   15  N20 MIQ B 502      -6.878  15.923  -1.098  1.00140.02    -0.296 N 
HETATM   16  H13 MIQ B 502      -6.907  16.782  -1.611  1.00142.77     0.171 HD
HETATM   17  C21 MIQ B 502      -5.721  15.066  -1.150  1.00142.22     0.224 C 
HETATM   18  C22 MIQ B 502      -5.977  13.572  -1.085  1.00139.52     0.106 C 
HETATM   19  O24 MIQ B 502      -4.628  15.507  -1.235  1.00146.13    -0.273 OA
HETATM   20  C23 MIQ B 502      -6.749  13.322   0.198  1.00139.15     0.045 C 
ENDBRANCH  10  12
BRANCH   5  21
HETATM   21  N6  MIQ B 502     -13.809  10.503  -2.636  1.00140.95    -0.377 N 
HETATM   22  C7  MIQ B 502     -13.429   9.219  -3.199  1.00142.12     0.149 C 
HETATM   23  C8  MIQ B 502     -13.988   9.024  -4.602  1.00144.10     0.187 C 
HETATM   24  O9  MIQ B 502     -15.346   9.337  -4.694  1.00148.65    -0.388 OA
HETATM   25  C10 MIQ B 502     -15.998   9.977  -3.637  1.00147.44     0.187 C 
HETATM   26  C11 MIQ B 502     -15.195  10.924  -2.751  1.00144.08     0.149 C 
ENDBRANCH   5  21
TORSDOF 2
ENDMDL
