MODEL 1
REMARK VINA RESULT:      -6.6      0.000      0.000
REMARK  2 active torsions:
REMARK  status: ('A' for Active; 'I' for Inactive)
REMARK    1  A    between atoms: C5_5  and  N6_21 
REMARK    2  A    between atoms: C18_14  and  N17_19 
ROOT
HETATM    1  O1  MIQ B 502       5.089 -15.671 -13.463  1.00142.91    -0.171 OA
HETATM    2  C2  MIQ B 502       5.278 -15.885 -12.096  1.00141.17     0.195 A 
HETATM    3  C3  MIQ B 502       6.080 -14.965 -11.121  1.00141.71     0.035 A 
HETATM    4  C4  MIQ B 502       6.825 -13.696 -11.298  1.00142.86     0.046 A 
HETATM    5  C5  MIQ B 502       7.467 -13.082 -10.194  1.00139.53     0.031 A 
HETATM    6  C12 MIQ B 502       7.393 -13.701  -8.878  1.00139.38     0.030 A 
HETATM    7  C13 MIQ B 502       6.678 -14.917  -8.708  1.00141.18     0.019 A 
HETATM    8  C14 MIQ B 502       6.004 -15.557  -9.871  1.00138.77     0.033 A 
HETATM    9  C15 MIQ B 502       5.149 -16.851 -10.070  1.00142.10     0.195 A 
HETATM   10  N17 MIQ B 502       4.827 -16.881 -11.353  1.00139.42    -0.288 N 
HETATM   11  O16 MIQ B 502       4.802 -17.783  -9.091  1.00148.93    -0.171 OA
ENDROOT
BRANCH  10  12
HETATM   12  C18 MIQ B 502       4.038 -17.964 -11.910  1.00139.82     0.187 C 
HETATM   13  C19 MIQ B 502       4.818 -18.551 -13.093  1.00140.06     0.247 C 
HETATM   14  O25 MIQ B 502       5.946 -18.860 -12.941  1.00143.95    -0.271 OA
HETATM   15  N20 MIQ B 502       4.207 -18.741 -14.392  1.00140.02    -0.296 N 
HETATM   16  H13 MIQ B 502       4.730 -19.119 -15.158  1.00142.77     0.171 HD
HETATM   17  C21 MIQ B 502       2.832 -18.346 -14.555  1.00142.22     0.224 C 
HETATM   18  C22 MIQ B 502       2.369 -17.144 -13.755  1.00139.52     0.106 C 
HETATM   19  O24 MIQ B 502       2.101 -18.934 -15.274  1.00146.13    -0.273 OA
HETATM   20  C23 MIQ B 502       2.647 -17.464 -12.297  1.00139.15     0.045 C 
ENDBRANCH  10  12
BRANCH   5  21
HETATM   21  N6  MIQ B 502       8.206 -11.847 -10.385  1.00140.95    -0.377 N 
HETATM   22  C7  MIQ B 502       8.507 -11.420 -11.740  1.00142.12     0.149 C 
HETATM   23  C8  MIQ B 502       9.758 -10.552 -11.799  1.00144.10     0.187 C 
HETATM   24  O9  MIQ B 502       9.760  -9.537 -10.840  1.00148.65    -0.388 OA
HETATM   25  C10 MIQ B 502       8.804  -9.525  -9.820  1.00147.44     0.187 C 
HETATM   26  C11 MIQ B 502       8.251 -10.856  -9.323  1.00144.08     0.149 C 
ENDBRANCH   5  21
TORSDOF 2
ENDMDL
MODEL 2
REMARK VINA RESULT:      -6.3      2.884      4.226
REMARK  2 active torsions:
REMARK  status: ('A' for Active; 'I' for Inactive)
REMARK    1  A    between atoms: C5_5  and  N6_21 
REMARK    2  A    between atoms: C18_14  and  N17_19 
ROOT
HETATM    1  O1  MIQ B 502       4.873 -16.766 -11.029  1.00142.91    -0.171 OA
HETATM    2  C2  MIQ B 502       5.288 -16.522  -9.718  1.00141.17     0.195 A 
HETATM    3  C3  MIQ B 502       6.143 -15.309  -9.232  1.00141.71     0.035 A 
HETATM    4  C4  MIQ B 502       6.733 -14.137  -9.921  1.00142.86     0.046 A 
HETATM    5  C5  MIQ B 502       7.478 -13.176  -9.191  1.00139.53     0.031 A 
HETATM    6  C12 MIQ B 502       7.664 -13.343  -7.757  1.00139.38     0.030 A 
HETATM    7  C13 MIQ B 502       7.097 -14.466  -7.095  1.00141.18     0.019 A 
HETATM    8  C14 MIQ B 502       6.314 -15.470  -7.866  1.00138.77     0.033 A 
HETATM    9  C15 MIQ B 502       5.560 -16.791  -7.503  1.00142.10     0.195 A 
HETATM   10  N17 MIQ B 502       5.049 -17.243  -8.636  1.00139.42    -0.288 N 
HETATM   11  O16 MIQ B 502       5.454 -17.371  -6.238  1.00148.93    -0.171 OA
ENDROOT
BRANCH  10  12
HETATM   12  C18 MIQ B 502       4.286 -18.477  -8.683  1.00139.82     0.187 C 
HETATM   13  C19 MIQ B 502       3.185 -18.387  -7.619  1.00140.06     0.247 C 
HETATM   14  O25 MIQ B 502       2.485 -17.437  -7.593  1.00143.95    -0.271 OA
HETATM   15  N20 MIQ B 502       2.974 -19.439  -6.647  1.00140.02    -0.296 N 
HETATM   16  H13 MIQ B 502       2.256 -19.365  -5.953  1.00142.77     0.171 HD
HETATM   17  C21 MIQ B 502       3.848 -20.584  -6.692  1.00142.22     0.224 C 
HETATM   18  C22 MIQ B 502       5.279 -20.332  -7.124  1.00139.52     0.106 C 
HETATM   19  O24 MIQ B 502       3.463 -21.666  -6.411  1.00146.13    -0.273 OA
HETATM   20  C23 MIQ B 502       5.208 -19.680  -8.493  1.00139.15     0.045 C 
ENDBRANCH  10  12
BRANCH   5  21
HETATM   21  N6  MIQ B 502       8.063 -12.041  -9.882  1.00140.95    -0.377 N 
HETATM   22  C7  MIQ B 502       8.111 -12.061 -11.333  1.00142.12     0.149 C 
HETATM   23  C8  MIQ B 502       9.253 -11.211 -11.876  1.00144.10     0.187 C 
HETATM   24  O9  MIQ B 502       9.312  -9.944 -11.294  1.00148.65    -0.388 OA
HETATM   25  C10 MIQ B 502       8.529  -9.641 -10.178  1.00147.44     0.187 C 
HETATM   26  C11 MIQ B 502       8.182 -10.762  -9.204  1.00144.08     0.149 C 
ENDBRANCH   5  21
TORSDOF 2
ENDMDL
MODEL 3
REMARK VINA RESULT:      -6.3      3.216      4.471
REMARK  2 active torsions:
REMARK  status: ('A' for Active; 'I' for Inactive)
REMARK    1  A    between atoms: C5_5  and  N6_21 
REMARK    2  A    between atoms: C18_14  and  N17_19 
ROOT
HETATM    1  O1  MIQ B 502       7.033 -15.496  -5.983  1.00142.91    -0.171 OA
HETATM    2  C2  MIQ B 502       6.490 -15.763  -7.242  1.00141.17     0.195 A 
HETATM    3  C3  MIQ B 502       6.693 -14.908  -8.534  1.00141.71     0.035 A 
HETATM    4  C4  MIQ B 502       7.448 -13.666  -8.826  1.00142.86     0.046 A 
HETATM    5  C5  MIQ B 502       7.443 -13.115 -10.132  1.00139.53     0.031 A 
HETATM    6  C12 MIQ B 502       6.693 -13.774 -11.192  1.00139.38     0.030 A 
HETATM    7  C13 MIQ B 502       5.970 -14.965 -10.912  1.00141.18     0.019 A 
HETATM    8  C14 MIQ B 502       5.980 -15.540  -9.540  1.00138.77     0.033 A 
HETATM    9  C15 MIQ B 502       5.332 -16.795  -8.869  1.00142.10     0.195 A 
HETATM   10  N17 MIQ B 502       5.715 -16.771  -7.603  1.00139.42    -0.288 N 
HETATM   11  O16 MIQ B 502       4.514 -17.743  -9.486  1.00148.93    -0.171 OA
ENDROOT
BRANCH  10  12
HETATM   12  C18 MIQ B 502       5.284 -17.789  -6.662  1.00139.82     0.187 C 
HETATM   13  C19 MIQ B 502       5.594 -19.158  -7.280  1.00140.06     0.247 C 
HETATM   14  O25 MIQ B 502       6.677 -19.371  -7.695  1.00143.95    -0.271 OA
HETATM   15  N20 MIQ B 502       4.592 -20.201  -7.365  1.00140.02    -0.296 N 
HETATM   16  H13 MIQ B 502       4.805 -21.088  -7.777  1.00142.77     0.171 HD
HETATM   17  C21 MIQ B 502       3.274 -19.913  -6.862  1.00142.22     0.224 C 
HETATM   18  C22 MIQ B 502       2.784 -18.485  -7.012  1.00139.52     0.106 C 
HETATM   19  O24 MIQ B 502       2.610 -20.748  -6.354  1.00146.13    -0.273 OA
HETATM   20  C23 MIQ B 502       3.807 -17.604  -6.318  1.00139.15     0.045 C 
ENDBRANCH  10  12
BRANCH   5  21
HETATM   21  N6  MIQ B 502       8.174 -11.890 -10.400  1.00140.95    -0.377 N 
HETATM   22  C7  MIQ B 502       8.444 -11.531 -11.782  1.00142.12     0.149 C 
HETATM   23  C8  MIQ B 502       9.691 -10.665 -11.911  1.00144.10     0.187 C 
HETATM   24  O9  MIQ B 502       9.713  -9.605 -11.003  1.00148.65    -0.388 OA
HETATM   25  C10 MIQ B 502       8.781  -9.543  -9.964  1.00147.44     0.187 C 
HETATM   26  C11 MIQ B 502       8.241 -10.849  -9.390  1.00144.08     0.149 C 
ENDBRANCH   5  21
TORSDOF 2
ENDMDL
MODEL 4
REMARK VINA RESULT:      -6.2      2.048      2.325
REMARK  2 active torsions:
REMARK  status: ('A' for Active; 'I' for Inactive)
REMARK    1  A    between atoms: C5_5  and  N6_21 
REMARK    2  A    between atoms: C18_14  and  N17_19 
ROOT
HETATM    1  O1  MIQ B 502       5.197 -16.774 -11.320  1.00142.91    -0.171 OA
HETATM    2  C2  MIQ B 502       5.474 -16.487  -9.981  1.00141.17     0.195 A 
HETATM    3  C3  MIQ B 502       6.242 -15.236  -9.447  1.00141.71     0.035 A 
HETATM    4  C4  MIQ B 502       6.863 -14.063 -10.106  1.00142.86     0.046 A 
HETATM    5  C5  MIQ B 502       7.504 -13.062  -9.333  1.00139.53     0.031 A 
HETATM    6  C12 MIQ B 502       7.552 -13.189  -7.883  1.00139.38     0.030 A 
HETATM    7  C13 MIQ B 502       6.956 -14.314  -7.251  1.00141.18     0.019 A 
HETATM    8  C14 MIQ B 502       6.282 -15.360  -8.067  1.00138.77     0.033 A 
HETATM    9  C15 MIQ B 502       5.534 -16.694  -7.744  1.00142.10     0.195 A 
HETATM   10  N17 MIQ B 502       5.150 -17.189  -8.909  1.00139.42    -0.288 N 
HETATM   11  O16 MIQ B 502       5.320 -17.248  -6.481  1.00148.93    -0.171 OA
ENDROOT
BRANCH  10  12
HETATM   12  C18 MIQ B 502       4.431 -18.447  -8.998  1.00139.82     0.187 C 
HETATM   13  C19 MIQ B 502       5.210 -19.364  -9.949  1.00140.06     0.247 C 
HETATM   14  O25 MIQ B 502       6.364 -19.528  -9.774  1.00143.95    -0.271 OA
HETATM   15  N20 MIQ B 502       4.565 -20.041 -11.056  1.00140.02    -0.296 N 
HETATM   16  H13 MIQ B 502       5.085 -20.632 -11.674  1.00142.77     0.171 HD
HETATM   17  C21 MIQ B 502       3.156 -19.816 -11.255  1.00142.22     0.224 C 
HETATM   18  C22 MIQ B 502       2.628 -18.440 -10.897  1.00139.52     0.106 C 
HETATM   19  O24 MIQ B 502       2.448 -20.665 -11.672  1.00146.13    -0.273 OA
HETATM   20  C23 MIQ B 502       2.989 -18.205  -9.442  1.00139.15     0.045 C 
ENDBRANCH  10  12
BRANCH   5  21
HETATM   21  N6  MIQ B 502       8.121 -11.926  -9.992  1.00140.95    -0.377 N 
HETATM   22  C7  MIQ B 502       8.222 -11.935 -11.442  1.00142.12     0.149 C 
HETATM   23  C8  MIQ B 502       9.389 -11.090 -11.936  1.00144.10     0.187 C 
HETATM   24  O9  MIQ B 502       9.434  -9.827 -11.342  1.00148.65    -0.388 OA
HETATM   25  C10 MIQ B 502       8.612  -9.527 -10.253  1.00147.44     0.187 C 
HETATM   26  C11 MIQ B 502       8.223 -10.653  -9.301  1.00144.08     0.149 C 
ENDBRANCH   5  21
TORSDOF 2
ENDMDL
MODEL 5
REMARK VINA RESULT:      -6.1      4.091      8.480
REMARK  2 active torsions:
REMARK  status: ('A' for Active; 'I' for Inactive)
REMARK    1  A    between atoms: C5_5  and  N6_21 
REMARK    2  A    between atoms: C18_14  and  N17_19 
ROOT
HETATM    1  O1  MIQ B 502       4.715 -15.062  -9.324  1.00142.91    -0.171 OA
HETATM    2  C2  MIQ B 502       5.383 -16.070  -8.626  1.00141.17     0.195 A 
HETATM    3  C3  MIQ B 502       4.724 -17.303  -7.929  1.00141.71     0.035 A 
HETATM    4  C4  MIQ B 502       3.323 -17.767  -7.792  1.00142.86     0.046 A 
HETATM    5  C5  MIQ B 502       3.030 -18.959  -7.083  1.00139.53     0.031 A 
HETATM    6  C12 MIQ B 502       4.111 -19.730  -6.486  1.00139.38     0.030 A 
HETATM    7  C13 MIQ B 502       5.454 -19.285  -6.618  1.00141.18     0.019 A 
HETATM    8  C14 MIQ B 502       5.757 -18.035  -7.366  1.00138.77     0.033 A 
HETATM    9  C15 MIQ B 502       7.065 -17.252  -7.716  1.00142.10     0.195 A 
HETATM   10  N17 MIQ B 502       6.682 -16.196  -8.415  1.00139.42    -0.288 N 
HETATM   11  O16 MIQ B 502       8.368 -17.601  -7.358  1.00148.93    -0.171 OA
ENDROOT
BRANCH  10  12
HETATM   12  C18 MIQ B 502       7.642 -15.223  -8.902  1.00139.82     0.187 C 
HETATM   13  C19 MIQ B 502       7.189 -13.839  -8.421  1.00140.06     0.247 C 
HETATM   14  O25 MIQ B 502       6.941 -13.679  -7.279  1.00143.95    -0.271 OA
HETATM   15  N20 MIQ B 502       7.063 -12.718  -9.329  1.00140.02    -0.296 N 
HETATM   16  H13 MIQ B 502       6.761 -11.821  -9.004  1.00142.77     0.171 HD
HETATM   17  C21 MIQ B 502       7.362 -12.940 -10.721  1.00142.22     0.224 C 
HETATM   18  C22 MIQ B 502       7.027 -14.310 -11.278  1.00139.52     0.106 C 
HETATM   19  O24 MIQ B 502       7.848 -12.097 -11.391  1.00146.13    -0.273 OA
HETATM   20  C23 MIQ B 502       7.771 -15.318 -10.422  1.00139.15     0.045 C 
ENDBRANCH  10  12
BRANCH   5  21
HETATM   21  N6  MIQ B 502       1.652 -19.395  -6.944  1.00140.95    -0.377 N 
HETATM   22  C7  MIQ B 502       1.095 -19.525  -5.609  1.00142.12     0.149 C 
HETATM   23  C8  MIQ B 502      -0.033 -20.547  -5.560  1.00144.10     0.187 C 
HETATM   24  O9  MIQ B 502      -0.968 -20.373  -6.581  1.00148.65    -0.388 OA
HETATM   25  C10 MIQ B 502      -0.710 -19.492  -7.635  1.00147.44     0.187 C 
HETATM   26  C11 MIQ B 502       0.736 -19.273  -8.065  1.00144.08     0.149 C 
ENDBRANCH   5  21
TORSDOF 2
ENDMDL
MODEL 6
REMARK VINA RESULT:      -5.8      2.334      2.728
REMARK  2 active torsions:
REMARK  status: ('A' for Active; 'I' for Inactive)
REMARK    1  A    between atoms: C5_5  and  N6_21 
REMARK    2  A    between atoms: C18_14  and  N17_19 
ROOT
HETATM    1  O1  MIQ B 502       8.060 -16.458 -14.545  1.00142.91    -0.171 OA
HETATM    2  C2  MIQ B 502       7.200 -16.534 -13.448  1.00141.17     0.195 A 
HETATM    3  C3  MIQ B 502       7.074 -15.482 -12.300  1.00141.71     0.035 A 
HETATM    4  C4  MIQ B 502       7.748 -14.191 -12.022  1.00142.86     0.046 A 
HETATM    5  C5  MIQ B 502       7.410 -13.440 -10.868  1.00139.53     0.031 A 
HETATM    6  C12 MIQ B 502       6.395 -13.940  -9.952  1.00139.38     0.030 A 
HETATM    7  C13 MIQ B 502       5.748 -15.177 -10.219  1.00141.18     0.019 A 
HETATM    8  C14 MIQ B 502       6.105 -15.960 -11.433  1.00138.77     0.033 A 
HETATM    9  C15 MIQ B 502       5.626 -17.316 -12.047  1.00142.10     0.195 A 
HETATM   10  N17 MIQ B 502       6.327 -17.483 -13.156  1.00139.42    -0.288 N 
HETATM   11  O16 MIQ B 502       4.657 -18.174 -11.524  1.00148.93    -0.171 OA
ENDROOT
BRANCH  10  12
HETATM   12  C18 MIQ B 502       6.157 -18.658 -13.990  1.00139.82     0.187 C 
HETATM   13  C19 MIQ B 502       7.544 -19.268 -14.228  1.00140.06     0.247 C 
HETATM   14  O25 MIQ B 502       8.246 -19.481 -13.303  1.00143.95    -0.271 OA
HETATM   15  N20 MIQ B 502       8.017 -19.595 -15.557  1.00140.02    -0.296 N 
HETATM   16  H13 MIQ B 502       8.927 -19.986 -15.699  1.00142.77     0.171 HD
HETATM   17  C21 MIQ B 502       7.147 -19.315 -16.670  1.00142.22     0.224 C 
HETATM   18  C22 MIQ B 502       6.252 -18.097 -16.546  1.00139.52     0.106 C 
HETATM   19  O24 MIQ B 502       7.129 -20.006 -17.629  1.00146.13    -0.273 OA
HETATM   20  C23 MIQ B 502       5.432 -18.292 -15.284  1.00139.15     0.045 C 
ENDBRANCH  10  12
BRANCH   5  21
HETATM   21  N6  MIQ B 502       8.088 -12.185 -10.601  1.00140.95    -0.377 N 
HETATM   22  C7  MIQ B 502       8.495 -11.362 -11.726  1.00142.12     0.149 C 
HETATM   23  C8  MIQ B 502       9.691 -10.482 -11.385  1.00144.10     0.187 C 
HETATM   24  O9  MIQ B 502       9.539  -9.804 -10.174  1.00148.65    -0.388 OA
HETATM   25  C10 MIQ B 502       8.490 -10.126  -9.309  1.00147.44     0.187 C 
HETATM   26  C11 MIQ B 502       7.970 -11.560  -9.295  1.00144.08     0.149 C 
ENDBRANCH   5  21
TORSDOF 2
ENDMDL
MODEL 7
REMARK VINA RESULT:      -5.7      4.005      5.147
REMARK  2 active torsions:
REMARK  status: ('A' for Active; 'I' for Inactive)
REMARK    1  A    between atoms: C5_5  and  N6_21 
REMARK    2  A    between atoms: C18_14  and  N17_19 
ROOT
HETATM    1  O1  MIQ B 502       2.306 -17.505  -8.238  1.00142.91    -0.171 OA
HETATM    2  C2  MIQ B 502       3.521 -17.987  -7.744  1.00141.17     0.195 A 
HETATM    3  C3  MIQ B 502       4.903 -17.264  -7.830  1.00141.71     0.035 A 
HETATM    4  C4  MIQ B 502       5.341 -15.967  -8.396  1.00142.86     0.046 A 
HETATM    5  C5  MIQ B 502       6.700 -15.573  -8.318  1.00139.53     0.031 A 
HETATM    6  C12 MIQ B 502       7.671 -16.449  -7.676  1.00139.38     0.030 A 
HETATM    7  C13 MIQ B 502       7.251 -17.692  -7.132  1.00141.18     0.019 A 
HETATM    8  C14 MIQ B 502       5.822 -18.099  -7.215  1.00138.77     0.033 A 
HETATM    9  C15 MIQ B 502       5.005 -19.347  -6.745  1.00142.10     0.195 A 
HETATM   10  N17 MIQ B 502       3.754 -19.125  -7.112  1.00139.42    -0.288 N 
HETATM   11  O16 MIQ B 502       5.502 -20.468  -6.076  1.00148.93    -0.171 OA
ENDROOT
BRANCH  10  12
HETATM   12  C18 MIQ B 502       2.704 -20.092  -6.851  1.00139.82     0.187 C 
HETATM   13  C19 MIQ B 502       2.043 -20.438  -8.191  1.00140.06     0.247 C 
HETATM   14  O25 MIQ B 502       2.720 -20.759  -9.101  1.00143.95    -0.271 OA
HETATM   15  N20 MIQ B 502       0.606 -20.388  -8.369  1.00140.02    -0.296 N 
HETATM   16  H13 MIQ B 502       0.187 -20.610  -9.250  1.00142.77     0.171 HD
HETATM   17  C21 MIQ B 502      -0.199 -19.983  -7.245  1.00142.22     0.224 C 
HETATM   18  C22 MIQ B 502       0.408 -18.958  -6.307  1.00139.52     0.106 C 
HETATM   19  O24 MIQ B 502      -1.276 -20.434  -7.063  1.00146.13    -0.273 OA
HETATM   20  C23 MIQ B 502       1.721 -19.543  -5.819  1.00139.15     0.045 C 
ENDBRANCH  10  12
BRANCH   5  21
HETATM   21  N6  MIQ B 502       7.118 -14.306  -8.891  1.00140.95    -0.377 N 
HETATM   22  C7  MIQ B 502       6.617 -13.938 -10.203  1.00142.12     0.149 C 
HETATM   23  C8  MIQ B 502       7.567 -12.997 -10.932  1.00144.10     0.187 C 
HETATM   24  O9  MIQ B 502       7.993 -11.932 -10.136  1.00148.65    -0.388 OA
HETATM   25  C10 MIQ B 502       7.728 -11.923  -8.764  1.00147.44     0.187 C 
HETATM   26  C11 MIQ B 502       7.637 -13.257  -8.030  1.00144.08     0.149 C 
ENDBRANCH   5  21
TORSDOF 2
ENDMDL
MODEL 8
REMARK VINA RESULT:      -5.7      8.426     12.315
REMARK  2 active torsions:
REMARK  status: ('A' for Active; 'I' for Inactive)
REMARK    1  A    between atoms: C5_5  and  N6_21 
REMARK    2  A    between atoms: C18_14  and  N17_19 
ROOT
HETATM    1  O1  MIQ B 502      15.119 -14.298 -12.244  1.00142.91    -0.171 OA
HETATM    2  C2  MIQ B 502      15.678 -15.148 -13.201  1.00141.17     0.195 A 
HETATM    3  C3  MIQ B 502      14.902 -16.168 -14.095  1.00141.71     0.035 A 
HETATM    4  C4  MIQ B 502      13.471 -16.533 -14.217  1.00142.86     0.046 A 
HETATM    5  C5  MIQ B 502      13.060 -17.522 -15.146  1.00139.53     0.031 A 
HETATM    6  C12 MIQ B 502      14.051 -18.182 -15.984  1.00139.38     0.030 A 
HETATM    7  C13 MIQ B 502      15.423 -17.832 -15.868  1.00141.18     0.019 A 
HETATM    8  C14 MIQ B 502      15.848 -16.790 -14.893  1.00138.77     0.033 A 
HETATM    9  C15 MIQ B 502      17.219 -16.153 -14.493  1.00142.10     0.195 A 
HETATM   10  N17 MIQ B 502      16.948 -15.266 -13.550  1.00139.42    -0.288 N 
HETATM   11  O16 MIQ B 502      18.472 -16.465 -15.024  1.00148.93    -0.171 OA
ENDROOT
BRANCH  10  12
HETATM   12  C18 MIQ B 502      17.996 -14.483 -12.923  1.00139.82     0.187 C 
HETATM   13  C19 MIQ B 502      17.802 -14.572 -11.405  1.00140.06     0.247 C 
HETATM   14  O25 MIQ B 502      17.682 -15.631 -10.900  1.00143.95    -0.271 OA
HETATM   15  N20 MIQ B 502      17.766 -13.389 -10.569  1.00140.02    -0.296 N 
HETATM   16  H13 MIQ B 502      17.632 -13.460  -9.579  1.00142.77     0.171 HD
HETATM   17  C21 MIQ B 502      17.904 -12.106 -11.209  1.00142.22     0.224 C 
HETATM   18  C22 MIQ B 502      17.319 -11.974 -12.602  1.00139.52     0.106 C 
HETATM   19  O24 MIQ B 502      18.451 -11.205 -10.675  1.00146.13    -0.273 OA
HETATM   20  C23 MIQ B 502      17.975 -13.048 -13.449  1.00139.15     0.045 C 
ENDBRANCH  10  12
BRANCH   5  21
HETATM   21  N6  MIQ B 502      11.657 -17.880 -15.244  1.00140.95    -0.377 N 
HETATM   22  C7  MIQ B 502      10.664 -16.820 -15.194  1.00142.12     0.149 C 
HETATM   23  C8  MIQ B 502       9.325 -17.320 -14.668  1.00144.10     0.187 C 
HETATM   24  O9  MIQ B 502       8.906 -18.501 -15.283  1.00148.65    -0.388 OA
HETATM   25  C10 MIQ B 502       9.777 -19.218 -16.107  1.00147.44     0.187 C 
HETATM   26  C11 MIQ B 502      11.273 -19.160 -15.813  1.00144.08     0.149 C 
ENDBRANCH   5  21
TORSDOF 2
ENDMDL
MODEL 9
REMARK VINA RESULT:      -5.7     19.953     23.524
REMARK  2 active torsions:
REMARK  status: ('A' for Active; 'I' for Inactive)
REMARK    1  A    between atoms: C5_5  and  N6_21 
REMARK    2  A    between atoms: C18_14  and  N17_19 
ROOT
HETATM    1  O1  MIQ B 502      16.622  -2.892 -26.392  1.00142.91    -0.171 OA
HETATM    2  C2  MIQ B 502      16.145  -2.865 -27.704  1.00141.17     0.195 A 
HETATM    3  C3  MIQ B 502      14.657  -2.677 -28.141  1.00141.71     0.035 A 
HETATM    4  C4  MIQ B 502      13.392  -2.481 -27.393  1.00142.86     0.046 A 
HETATM    5  C5  MIQ B 502      12.165  -2.335 -28.086  1.00139.53     0.031 A 
HETATM    6  C12 MIQ B 502      12.147  -2.377 -29.542  1.00139.38     0.030 A 
HETATM    7  C13 MIQ B 502      13.360  -2.563 -30.259  1.00141.18     0.019 A 
HETATM    8  C14 MIQ B 502      14.646  -2.714 -29.526  1.00138.77     0.033 A 
HETATM    9  C15 MIQ B 502      16.136  -2.926 -29.951  1.00142.10     0.195 A 
HETATM   10  N17 MIQ B 502      16.831  -2.986 -28.828  1.00139.42    -0.288 N 
HETATM   11  O16 MIQ B 502      16.626  -3.032 -31.254  1.00148.93    -0.171 OA
ENDROOT
BRANCH  10  12
HETATM   12  C18 MIQ B 502      18.267  -3.194 -28.836  1.00139.82     0.187 C 
HETATM   13  C19 MIQ B 502      18.574  -4.377 -27.910  1.00140.06     0.247 C 
HETATM   14  O25 MIQ B 502      17.982  -5.388 -28.051  1.00143.95    -0.271 OA
HETATM   15  N20 MIQ B 502      19.576  -4.291 -26.868  1.00140.02    -0.296 N 
HETATM   16  H13 MIQ B 502      19.763  -5.069 -26.265  1.00142.77     0.171 HD
HETATM   17  C21 MIQ B 502      20.279  -3.044 -26.708  1.00142.22     0.224 C 
HETATM   18  C22 MIQ B 502      19.498  -1.779 -27.008  1.00139.52     0.106 C 
HETATM   19  O24 MIQ B 502      21.410  -3.011 -26.367  1.00146.13    -0.273 OA
HETATM   20  C23 MIQ B 502      18.993  -1.911 -28.433  1.00139.15     0.045 C 
ENDBRANCH  10  12
BRANCH   5  21
HETATM   21  N6  MIQ B 502      10.932  -2.159 -27.341  1.00140.95    -0.377 N 
HETATM   22  C7  MIQ B 502      10.545  -3.183 -26.387  1.00142.12     0.149 C 
HETATM   23  C8  MIQ B 502       9.036  -3.227 -26.179  1.00144.10     0.187 C 
HETATM   24  O9  MIQ B 502       8.482  -1.965 -25.957  1.00148.65    -0.388 OA
HETATM   25  C10 MIQ B 502       9.246  -0.812 -26.153  1.00147.44     0.187 C 
HETATM   26  C11 MIQ B 502      10.346  -0.836 -27.209  1.00144.08     0.149 C 
ENDBRANCH   5  21
TORSDOF 2
ENDMDL
