MODEL 1
REMARK VINA RESULT:      -7.1      0.000      0.000
REMARK  2 active torsions:
REMARK  status: ('A' for Active; 'I' for Inactive)
REMARK    1  A    between atoms: C5_5  and  N6_21 
REMARK    2  A    between atoms: C18_14  and  N17_19 
ROOT
HETATM    1  O1  MIQ B 502      17.793   3.512  -7.194  1.00142.91    -0.171 OA
HETATM    2  C2  MIQ B 502      17.793   4.636  -8.022  1.00141.17     0.195 A 
HETATM    3  C3  MIQ B 502      16.536   5.434  -8.494  1.00141.71     0.035 A 
HETATM    4  C4  MIQ B 502      15.083   5.285  -8.245  1.00142.86     0.046 A 
HETATM    5  C5  MIQ B 502      14.160   6.191  -8.827  1.00139.53     0.031 A 
HETATM    6  C12 MIQ B 502      14.644   7.273  -9.672  1.00139.38     0.030 A 
HETATM    7  C13 MIQ B 502      16.038   7.417  -9.909  1.00141.18     0.019 A 
HETATM    8  C14 MIQ B 502      17.002   6.464  -9.294  1.00138.77     0.033 A 
HETATM    9  C15 MIQ B 502      18.557   6.305  -9.319  1.00142.10     0.195 A 
HETATM   10  N17 MIQ B 502      18.829   5.252  -8.566  1.00139.42    -0.288 N 
HETATM   11  O16 MIQ B 502      19.469   7.112 -10.002  1.00148.93    -0.171 OA
ENDROOT
BRANCH  10  12
HETATM   12  C18 MIQ B 502      20.191   4.791  -8.371  1.00139.82     0.187 C 
HETATM   13  C19 MIQ B 502      20.266   3.336  -8.850  1.00140.06     0.247 C 
HETATM   14  O25 MIQ B 502      19.858   3.061  -9.921  1.00143.95    -0.271 OA
HETATM   15  N20 MIQ B 502      20.831   2.289  -8.024  1.00140.02    -0.296 N 
HETATM   16  H13 MIQ B 502      20.868   1.342  -8.345  1.00142.77     0.171 HD
HETATM   17  C21 MIQ B 502      21.313   2.648  -6.715  1.00142.22     0.224 C 
HETATM   18  C22 MIQ B 502      20.569   3.757  -5.995  1.00139.52     0.106 C 
HETATM   19  O24 MIQ B 502      22.246   2.108  -6.231  1.00146.13    -0.273 OA
HETATM   20  C23 MIQ B 502      20.607   4.966  -6.911  1.00139.15     0.045 C 
ENDBRANCH  10  12
BRANCH   5  21
HETATM   21  N6  MIQ B 502      12.738   6.025  -8.587  1.00140.95    -0.377 N 
HETATM   22  C7  MIQ B 502      12.163   6.611  -7.388  1.00142.12     0.149 C 
HETATM   23  C8  MIQ B 502      10.915   5.864  -6.933  1.00144.10     0.187 C 
HETATM   24  O9  MIQ B 502      10.014   5.626  -7.972  1.00148.65    -0.388 OA
HETATM   25  C10 MIQ B 502      10.385   5.862  -9.298  1.00147.44     0.187 C 
HETATM   26  C11 MIQ B 502      11.850   5.692  -9.687  1.00144.08     0.149 C 
ENDBRANCH   5  21
TORSDOF 2
ENDMDL
MODEL 2
REMARK VINA RESULT:      -7.0     13.516     16.092
REMARK  2 active torsions:
REMARK  status: ('A' for Active; 'I' for Inactive)
REMARK    1  A    between atoms: C5_5  and  N6_21 
REMARK    2  A    between atoms: C18_14  and  N17_19 
ROOT
HETATM    1  O1  MIQ B 502       5.740   3.603 -19.762  1.00142.91    -0.171 OA
HETATM    2  C2  MIQ B 502       5.616   3.447 -18.379  1.00141.17     0.195 A 
HETATM    3  C3  MIQ B 502       4.329   3.005 -17.613  1.00141.71     0.035 A 
HETATM    4  C4  MIQ B 502       2.960   2.638 -18.047  1.00142.86     0.046 A 
HETATM    5  C5  MIQ B 502       1.980   2.268 -17.092  1.00139.53     0.031 A 
HETATM    6  C12 MIQ B 502       2.322   2.248 -15.677  1.00139.38     0.030 A 
HETATM    7  C13 MIQ B 502       3.634   2.598 -15.260  1.00141.18     0.019 A 
HETATM    8  C14 MIQ B 502       4.660   2.983 -16.268  1.00138.77     0.033 A 
HETATM    9  C15 MIQ B 502       6.161   3.414 -16.199  1.00142.10     0.195 A 
HETATM   10  N17 MIQ B 502       6.537   3.631 -17.449  1.00139.42    -0.288 N 
HETATM   11  O16 MIQ B 502       6.941   3.546 -15.049  1.00148.93    -0.171 OA
ENDROOT
BRANCH  10  12
HETATM   12  C18 MIQ B 502       7.883   4.067 -17.770  1.00139.82     0.187 C 
HETATM   13  C19 MIQ B 502       7.772   5.348 -18.607  1.00140.06     0.247 C 
HETATM   14  O25 MIQ B 502       7.103   6.236 -18.214  1.00143.95    -0.271 OA
HETATM   15  N20 MIQ B 502       8.471   5.500 -19.866  1.00140.02    -0.296 N 
HETATM   16  H13 MIQ B 502       8.386   6.339 -20.406  1.00142.77     0.171 HD
HETATM   17  C21 MIQ B 502       9.273   4.397 -20.330  1.00142.22     0.224 C 
HETATM   18  C22 MIQ B 502       8.779   3.005 -19.990  1.00139.52     0.106 C 
HETATM   19  O24 MIQ B 502      10.270   4.572 -20.941  1.00146.13    -0.273 OA
HETATM   20  C23 MIQ B 502       8.648   2.951 -18.479  1.00139.15     0.045 C 
ENDBRANCH  10  12
BRANCH   5  21
HETATM   21  N6  MIQ B 502       0.639   1.926 -17.530  1.00140.95    -0.377 N 
HETATM   22  C7  MIQ B 502       0.389   1.780 -18.953  1.00142.12     0.149 C 
HETATM   23  C8  MIQ B 502      -1.064   2.066 -19.308  1.00144.10     0.187 C 
HETATM   24  O9  MIQ B 502      -1.968   1.406 -18.473  1.00148.65    -0.388 OA
HETATM   25  C10 MIQ B 502      -1.522   0.763 -17.316  1.00147.44     0.187 C 
HETATM   26  C11 MIQ B 502      -0.296   1.319 -16.598  1.00144.08     0.149 C 
ENDBRANCH   5  21
TORSDOF 2
ENDMDL
MODEL 3
REMARK VINA RESULT:      -7.0      1.846      7.878
REMARK  2 active torsions:
REMARK  status: ('A' for Active; 'I' for Inactive)
REMARK    1  A    between atoms: C5_5  and  N6_21 
REMARK    2  A    between atoms: C18_14  and  N17_19 
ROOT
HETATM    1  O1  MIQ B 502      14.115   4.818  -7.854  1.00142.91    -0.171 OA
HETATM    2  C2  MIQ B 502      14.828   5.713  -8.654  1.00141.17     0.195 A 
HETATM    3  C3  MIQ B 502      16.361   5.663  -8.953  1.00141.71     0.035 A 
HETATM    4  C4  MIQ B 502      17.451   4.750  -8.536  1.00142.86     0.046 A 
HETATM    5  C5  MIQ B 502      18.779   4.968  -8.984  1.00139.53     0.031 A 
HETATM    6  C12 MIQ B 502      19.071   6.095  -9.858  1.00139.38     0.030 A 
HETATM    7  C13 MIQ B 502      18.025   6.970 -10.258  1.00141.18     0.019 A 
HETATM    8  C14 MIQ B 502      16.633   6.735  -9.787  1.00138.77     0.033 A 
HETATM    9  C15 MIQ B 502      15.262   7.454 -10.008  1.00142.10     0.195 A 
HETATM   10  N17 MIQ B 502      14.372   6.761  -9.317  1.00139.42    -0.288 N 
HETATM   11  O16 MIQ B 502      15.031   8.595 -10.777  1.00148.93    -0.171 OA
ENDROOT
BRANCH  10  12
HETATM   12  C18 MIQ B 502      12.975   7.152  -9.276  1.00139.82     0.187 C 
HETATM   13  C19 MIQ B 502      12.577   7.314  -7.804  1.00140.06     0.247 C 
HETATM   14  O25 MIQ B 502      13.243   7.986  -7.098  1.00143.95    -0.271 OA
HETATM   15  N20 MIQ B 502      11.402   6.670  -7.254  1.00140.02    -0.296 N 
HETATM   16  H13 MIQ B 502      11.157   6.779  -6.290  1.00142.77     0.171 HD
HETATM   17  C21 MIQ B 502      10.611   5.847  -8.133  1.00142.22     0.224 C 
HETATM   18  C22 MIQ B 502      11.358   5.092  -9.215  1.00139.52     0.106 C 
HETATM   19  O24 MIQ B 502       9.437   5.770  -8.017  1.00146.13    -0.273 OA
HETATM   20  C23 MIQ B 502      12.115   6.132 -10.022  1.00139.15     0.045 C 
ENDBRANCH  10  12
BRANCH   5  21
HETATM   21  N6  MIQ B 502      19.840   4.074  -8.556  1.00140.95    -0.377 N 
HETATM   22  C7  MIQ B 502      19.863   3.637  -7.171  1.00142.12     0.149 C 
HETATM   23  C8  MIQ B 502      21.271   3.284  -6.710  1.00144.10     0.187 C 
HETATM   24  O9  MIQ B 502      21.946   2.455  -7.609  1.00148.65    -0.388 OA
HETATM   25  C10 MIQ B 502      21.417   2.210  -8.879  1.00147.44     0.187 C 
HETATM   26  C11 MIQ B 502      20.572   3.295  -9.539  1.00144.08     0.149 C 
ENDBRANCH   5  21
TORSDOF 2
ENDMDL
MODEL 4
REMARK VINA RESULT:      -6.8      4.599      5.056
REMARK  2 active torsions:
REMARK  status: ('A' for Active; 'I' for Inactive)
REMARK    1  A    between atoms: C5_5  and  N6_21 
REMARK    2  A    between atoms: C18_14  and  N17_19 
ROOT
HETATM    1  O1  MIQ B 502      18.125   5.651  -5.427  1.00142.91    -0.171 OA
HETATM    2  C2  MIQ B 502      18.427   6.707  -6.290  1.00141.17     0.195 A 
HETATM    3  C3  MIQ B 502      17.951   8.187  -6.138  1.00141.71     0.035 A 
HETATM    4  C4  MIQ B 502      17.115   8.891  -5.136  1.00142.86     0.046 A 
HETATM    5  C5  MIQ B 502      16.852  10.278  -5.270  1.00139.53     0.031 A 
HETATM    6  C12 MIQ B 502      17.407  11.013  -6.397  1.00139.38     0.030 A 
HETATM    7  C13 MIQ B 502      18.209  10.339  -7.357  1.00141.18     0.019 A 
HETATM    8  C14 MIQ B 502      18.484   8.883  -7.210  1.00138.77     0.033 A 
HETATM    9  C15 MIQ B 502      19.296   7.830  -8.032  1.00142.10     0.195 A 
HETATM   10  N17 MIQ B 502      19.163   6.682  -7.387  1.00139.42    -0.288 N 
HETATM   11  O16 MIQ B 502      20.011   8.059  -9.209  1.00148.93    -0.171 OA
ENDROOT
BRANCH  10  12
HETATM   12  C18 MIQ B 502      19.778   5.463  -7.877  1.00139.82     0.187 C 
HETATM   13  C19 MIQ B 502      18.693   4.381  -7.934  1.00140.06     0.247 C 
HETATM   14  O25 MIQ B 502      17.676   4.614  -8.486  1.00143.95    -0.271 OA
HETATM   15  N20 MIQ B 502      18.882   3.077  -7.333  1.00140.02    -0.296 N 
HETATM   16  H13 MIQ B 502      18.162   2.382  -7.372  1.00142.77     0.171 HD
HETATM   17  C21 MIQ B 502      20.127   2.820  -6.656  1.00142.22     0.224 C 
HETATM   18  C22 MIQ B 502      20.772   3.996  -5.949  1.00139.52     0.106 C 
HETATM   19  O24 MIQ B 502      20.621   1.747  -6.658  1.00146.13    -0.273 OA
HETATM   20  C23 MIQ B 502      20.966   5.076  -6.997  1.00139.15     0.045 C 
ENDBRANCH  10  12
BRANCH   5  21
HETATM   21  N6  MIQ B 502      16.020  10.951  -4.289  1.00140.95    -0.377 N 
HETATM   22  C7  MIQ B 502      16.590  12.055  -3.536  1.00142.12     0.149 C 
HETATM   23  C8  MIQ B 502      15.914  12.228  -2.182  1.00144.10     0.187 C 
HETATM   24  O9  MIQ B 502      14.520  12.219  -2.266  1.00148.65    -0.388 OA
HETATM   25  C10 MIQ B 502      13.885  11.850  -3.454  1.00147.44     0.187 C 
HETATM   26  C11 MIQ B 502      14.574  10.842  -4.367  1.00144.08     0.149 C 
ENDBRANCH   5  21
TORSDOF 2
ENDMDL
MODEL 5
REMARK VINA RESULT:      -6.7      2.616      8.278
REMARK  2 active torsions:
REMARK  status: ('A' for Active; 'I' for Inactive)
REMARK    1  A    between atoms: C5_5  and  N6_21 
REMARK    2  A    between atoms: C18_14  and  N17_19 
ROOT
HETATM    1  O1  MIQ B 502      17.700   5.145 -10.074  1.00142.91    -0.171 OA
HETATM    2  C2  MIQ B 502      18.129   5.197  -8.745  1.00141.17     0.195 A 
HETATM    3  C3  MIQ B 502      19.286   4.357  -8.116  1.00141.71     0.035 A 
HETATM    4  C4  MIQ B 502      20.217   3.339  -8.658  1.00142.86     0.046 A 
HETATM    5  C5  MIQ B 502      21.189   2.738  -7.819  1.00139.53     0.031 A 
HETATM    6  C12 MIQ B 502      21.272   3.125  -6.418  1.00139.38     0.030 A 
HETATM    7  C13 MIQ B 502      20.381   4.102  -5.898  1.00141.18     0.019 A 
HETATM    8  C14 MIQ B 502      19.364   4.731  -6.785  1.00138.77     0.033 A 
HETATM    9  C15 MIQ B 502      18.250   5.810  -6.586  1.00142.10     0.195 A 
HETATM   10  N17 MIQ B 502      17.664   5.951  -7.764  1.00139.42    -0.288 N 
HETATM   11  O16 MIQ B 502      17.938   6.482  -5.403  1.00148.93    -0.171 OA
ENDROOT
BRANCH  10  12
HETATM   12  C18 MIQ B 502      16.558   6.871  -7.955  1.00139.82     0.187 C 
HETATM   13  C19 MIQ B 502      15.412   6.094  -8.614  1.00140.06     0.247 C 
HETATM   14  O25 MIQ B 502      15.060   5.073  -8.139  1.00143.95    -0.271 OA
HETATM   15  N20 MIQ B 502      14.745   6.581  -9.804  1.00140.02    -0.296 N 
HETATM   16  H13 MIQ B 502      14.002   6.061 -10.229  1.00142.77     0.171 HD
HETATM   17  C21 MIQ B 502      15.200   7.824 -10.372  1.00142.22     0.224 C 
HETATM   18  C22 MIQ B 502      16.681   8.127 -10.249  1.00139.52     0.106 C 
HETATM   19  O24 MIQ B 502      14.454   8.571 -10.902  1.00146.13    -0.273 OA
HETATM   20  C23 MIQ B 502      17.009   8.083  -8.768  1.00139.15     0.045 C 
ENDBRANCH  10  12
BRANCH   5  21
HETATM   21  N6  MIQ B 502      22.084   1.731  -8.359  1.00140.95    -0.377 N 
HETATM   22  C7  MIQ B 502      22.276   1.672  -9.797  1.00142.12     0.149 C 
HETATM   23  C8  MIQ B 502      22.665   0.274 -10.262  1.00144.10     0.187 C 
HETATM   24  O9  MIQ B 502      23.692  -0.286  -9.500  1.00148.65    -0.388 OA
HETATM   25  C10 MIQ B 502      24.105   0.324  -8.313  1.00147.44     0.187 C 
HETATM   26  C11 MIQ B 502      23.082   1.113  -7.503  1.00144.08     0.149 C 
ENDBRANCH   5  21
TORSDOF 2
ENDMDL
MODEL 6
REMARK VINA RESULT:      -6.7     13.379     19.487
REMARK  2 active torsions:
REMARK  status: ('A' for Active; 'I' for Inactive)
REMARK    1  A    between atoms: C5_5  and  N6_21 
REMARK    2  A    between atoms: C18_14  and  N17_19 
ROOT
HETATM    1  O1  MIQ B 502       0.257   3.988 -18.838  1.00142.91    -0.171 OA
HETATM    2  C2  MIQ B 502       0.547   3.005 -17.889  1.00141.17     0.195 A 
HETATM    3  C3  MIQ B 502       1.830   2.931 -17.001  1.00141.71     0.035 A 
HETATM    4  C4  MIQ B 502       3.034   3.785 -16.877  1.00142.86     0.046 A 
HETATM    5  C5  MIQ B 502       4.058   3.452 -15.955  1.00139.53     0.031 A 
HETATM    6  C12 MIQ B 502       3.924   2.263 -15.125  1.00139.38     0.030 A 
HETATM    7  C13 MIQ B 502       2.769   1.444 -15.243  1.00141.18     0.019 A 
HETATM    8  C14 MIQ B 502       1.696   1.800 -16.211  1.00138.77     0.033 A 
HETATM    9  C15 MIQ B 502       0.322   1.170 -16.611  1.00142.10     0.195 A 
HETATM   10  N17 MIQ B 502      -0.183   1.957 -17.546  1.00139.42    -0.288 N 
HETATM   11  O16 MIQ B 502      -0.248   0.009 -16.087  1.00148.93    -0.171 OA
ENDROOT
BRANCH  10  12
HETATM   12  C18 MIQ B 502      -1.461   1.669 -18.170  1.00139.82     0.187 C 
HETATM   13  C19 MIQ B 502      -1.274   1.775 -19.689  1.00140.06     0.247 C 
HETATM   14  O25 MIQ B 502      -0.389   1.186 -20.202  1.00143.95    -0.271 OA
HETATM   15  N20 MIQ B 502      -2.157   2.573 -20.513  1.00140.02    -0.296 N 
HETATM   16  H13 MIQ B 502      -2.020   2.640 -21.502  1.00142.77     0.171 HD
HETATM   17  C21 MIQ B 502      -3.223   3.291 -19.862  1.00142.22     0.224 C 
HETATM   18  C22 MIQ B 502      -2.940   3.809 -18.465  1.00139.52     0.106 C 
HETATM   19  O24 MIQ B 502      -4.266   3.460 -20.389  1.00146.13    -0.273 OA
HETATM   20  C23 MIQ B 502      -2.540   2.606 -17.631  1.00139.15     0.045 C 
ENDBRANCH  10  12
BRANCH   5  21
HETATM   21  N6  MIQ B 502       5.239   4.290 -15.854  1.00140.95    -0.377 N 
HETATM   22  C7  MIQ B 502       6.510   3.664 -15.533  1.00142.12     0.149 C 
HETATM   23  C8  MIQ B 502       7.463   4.632 -14.845  1.00144.10     0.187 C 
HETATM   24  O9  MIQ B 502       7.553   5.863 -15.498  1.00148.65    -0.388 OA
HETATM   25  C10 MIQ B 502       6.661   6.186 -16.525  1.00147.44     0.187 C 
HETATM   26  C11 MIQ B 502       5.253   5.601 -16.479  1.00144.08     0.149 C 
ENDBRANCH   5  21
TORSDOF 2
ENDMDL
MODEL 7
REMARK VINA RESULT:      -6.6      3.773      4.562
REMARK  2 active torsions:
REMARK  status: ('A' for Active; 'I' for Inactive)
REMARK    1  A    between atoms: C5_5  and  N6_21 
REMARK    2  A    between atoms: C18_14  and  N17_19 
ROOT
HETATM    1  O1  MIQ B 502      17.539   3.546  -6.349  1.00142.91    -0.171 OA
HETATM    2  C2  MIQ B 502      18.522   4.404  -6.848  1.00141.17     0.195 A 
HETATM    3  C3  MIQ B 502      18.502   5.965  -6.783  1.00141.71     0.035 A 
HETATM    4  C4  MIQ B 502      17.543   6.950  -6.229  1.00142.86     0.046 A 
HETATM    5  C5  MIQ B 502      17.809   8.339  -6.323  1.00139.53     0.031 A 
HETATM    6  C12 MIQ B 502      19.031   8.800  -6.967  1.00139.38     0.030 A 
HETATM    7  C13 MIQ B 502      19.951   7.856  -7.497  1.00141.18     0.019 A 
HETATM    8  C14 MIQ B 502      19.668   6.398  -7.394  1.00138.77     0.033 A 
HETATM    9  C15 MIQ B 502      20.415   5.099  -7.840  1.00142.10     0.195 A 
HETATM   10  N17 MIQ B 502      19.650   4.089  -7.461  1.00139.42    -0.288 N 
HETATM   11  O16 MIQ B 502      21.640   5.026  -8.505  1.00148.93    -0.171 OA
ENDROOT
BRANCH  10  12
HETATM   12  C18 MIQ B 502      20.025   2.713  -7.727  1.00139.82     0.187 C 
HETATM   13  C19 MIQ B 502      21.416   2.483  -7.124  1.00140.06     0.247 C 
HETATM   14  O25 MIQ B 502      21.614   2.784  -6.001  1.00143.95    -0.271 OA
HETATM   15  N20 MIQ B 502      22.495   1.899  -7.895  1.00140.02    -0.296 N 
HETATM   16  H13 MIQ B 502      23.401   1.760  -7.491  1.00142.77     0.171 HD
HETATM   17  C21 MIQ B 502      22.232   1.550  -9.267  1.00142.22     0.224 C 
HETATM   18  C22 MIQ B 502      21.258   2.435 -10.020  1.00139.52     0.106 C 
HETATM   19  O24 MIQ B 502      22.747   0.616  -9.776  1.00146.13    -0.273 OA
HETATM   20  C23 MIQ B 502      19.965   2.426  -9.226  1.00139.15     0.045 C 
ENDBRANCH  10  12
BRANCH   5  21
HETATM   21  N6  MIQ B 502      16.854   9.293  -5.788  1.00140.95    -0.377 N 
HETATM   22  C7  MIQ B 502      17.355  10.533  -5.219  1.00142.12     0.149 C 
HETATM   23  C8  MIQ B 502      16.407  11.100  -4.170  1.00144.10     0.187 C 
HETATM   24  O9  MIQ B 502      15.079  11.135  -4.600  1.00148.65    -0.388 OA
HETATM   25  C10 MIQ B 502      14.699  10.486  -5.778  1.00147.44     0.187 C 
HETATM   26  C11 MIQ B 502      15.463   9.236  -6.201  1.00144.08     0.149 C 
ENDBRANCH   5  21
TORSDOF 2
ENDMDL
MODEL 8
REMARK VINA RESULT:      -6.6     14.305     17.940
REMARK  2 active torsions:
REMARK  status: ('A' for Active; 'I' for Inactive)
REMARK    1  A    between atoms: C5_5  and  N6_21 
REMARK    2  A    between atoms: C18_14  and  N17_19 
ROOT
HETATM    1  O1  MIQ B 502       2.091   2.061 -18.988  1.00142.91    -0.171 OA
HETATM    2  C2  MIQ B 502       2.931   2.252 -17.888  1.00141.17     0.195 A 
HETATM    3  C3  MIQ B 502       4.427   2.699 -17.937  1.00141.71     0.035 A 
HETATM    4  C4  MIQ B 502       5.354   3.038 -19.043  1.00142.86     0.046 A 
HETATM    5  C5  MIQ B 502       6.690   3.421 -18.766  1.00139.53     0.031 A 
HETATM    6  C12 MIQ B 502       7.153   3.483 -17.387  1.00139.38     0.030 A 
HETATM    7  C13 MIQ B 502       6.264   3.160 -16.326  1.00141.18     0.019 A 
HETATM    8  C14 MIQ B 502       4.862   2.760 -16.623  1.00138.77     0.033 A 
HETATM    9  C15 MIQ B 502       3.629   2.348 -15.754  1.00142.10     0.195 A 
HETATM   10  N17 MIQ B 502       2.647   2.104 -16.606  1.00139.42    -0.288 N 
HETATM   11  O16 MIQ B 502       3.581   2.257 -14.362  1.00148.93    -0.171 OA
ENDROOT
BRANCH  10  12
HETATM   12  C18 MIQ B 502       1.338   1.675 -16.150  1.00139.82     0.187 C 
HETATM   13  C19 MIQ B 502       0.984   0.380 -16.892  1.00140.06     0.247 C 
HETATM   14  O25 MIQ B 502       1.760  -0.508 -16.901  1.00143.95    -0.271 OA
HETATM   15  N20 MIQ B 502      -0.280   0.215 -17.579  1.00140.02    -0.296 N 
HETATM   16  H13 MIQ B 502      -0.496  -0.633 -18.065  1.00142.77     0.171 HD
HETATM   17  C21 MIQ B 502      -1.206   1.317 -17.563  1.00142.22     0.224 C 
HETATM   18  C22 MIQ B 502      -0.607   2.710 -17.566  1.00139.52     0.106 C 
HETATM   19  O24 MIQ B 502      -2.375   1.142 -17.543  1.00146.13    -0.273 OA
HETATM   20  C23 MIQ B 502       0.311   2.787 -16.359  1.00139.15     0.045 C 
ENDBRANCH  10  12
BRANCH   5  21
HETATM   21  N6  MIQ B 502       7.591   3.736 -19.859  1.00140.95    -0.377 N 
HETATM   22  C7  MIQ B 502       8.998   3.402 -19.718  1.00142.12     0.149 C 
HETATM   23  C8  MIQ B 502       9.885   4.310 -20.561  1.00144.10     0.187 C 
HETATM   24  O9  MIQ B 502       9.433   4.443 -21.875  1.00148.65    -0.388 OA
HETATM   25  C10 MIQ B 502       8.173   3.963 -22.242  1.00147.44     0.187 C 
HETATM   26  C11 MIQ B 502       7.064   3.951 -21.195  1.00144.08     0.149 C 
ENDBRANCH   5  21
TORSDOF 2
ENDMDL
MODEL 9
REMARK VINA RESULT:      -6.6      2.945      3.891
REMARK  2 active torsions:
REMARK  status: ('A' for Active; 'I' for Inactive)
REMARK    1  A    between atoms: C5_5  and  N6_21 
REMARK    2  A    between atoms: C18_14  and  N17_19 
ROOT
HETATM    1  O1  MIQ B 502      15.988   4.569  -7.576  1.00142.91    -0.171 OA
HETATM    2  C2  MIQ B 502      17.133   4.972  -8.267  1.00141.17     0.195 A 
HETATM    3  C3  MIQ B 502      17.182   5.969  -9.469  1.00141.71     0.035 A 
HETATM    4  C4  MIQ B 502      16.146   6.739 -10.197  1.00142.86     0.046 A 
HETATM    5  C5  MIQ B 502      16.508   7.586 -11.275  1.00139.53     0.031 A 
HETATM    6  C12 MIQ B 502      17.905   7.699 -11.667  1.00139.38     0.030 A 
HETATM    7  C13 MIQ B 502      18.899   6.961 -10.969  1.00141.18     0.019 A 
HETATM    8  C14 MIQ B 502      18.513   6.076  -9.836  1.00138.77     0.033 A 
HETATM    9  C15 MIQ B 502      19.295   5.140  -8.857  1.00142.10     0.195 A 
HETATM   10  N17 MIQ B 502      18.387   4.610  -8.055  1.00139.42    -0.288 N 
HETATM   11  O16 MIQ B 502      20.672   4.913  -8.840  1.00148.93    -0.171 OA
ENDROOT
BRANCH  10  12
HETATM   12  C18 MIQ B 502      18.753   3.667  -7.015  1.00139.82     0.187 C 
HETATM   13  C19 MIQ B 502      19.799   4.341  -6.119  1.00140.06     0.247 C 
HETATM   14  O25 MIQ B 502      19.577   5.414  -5.682  1.00143.95    -0.271 OA
HETATM   15  N20 MIQ B 502      21.052   3.694  -5.788  1.00140.02    -0.296 N 
HETATM   16  H13 MIQ B 502      21.729   4.148  -5.207  1.00142.77     0.171 HD
HETATM   17  C21 MIQ B 502      21.304   2.389  -6.342  1.00142.22     0.224 C 
HETATM   18  C22 MIQ B 502      20.739   2.114  -7.723  1.00139.52     0.106 C 
HETATM   19  O24 MIQ B 502      21.917   1.573  -5.747  1.00146.13    -0.273 OA
HETATM   20  C23 MIQ B 502      19.244   2.359  -7.633  1.00139.15     0.045 C 
ENDBRANCH  10  12
BRANCH   5  21
HETATM   21  N6  MIQ B 502      15.481   8.323 -11.988  1.00140.95    -0.377 N 
HETATM   22  C7  MIQ B 502      15.858   9.539 -12.688  1.00142.12     0.149 C 
HETATM   23  C8  MIQ B 502      14.689  10.507 -12.817  1.00144.10     0.187 C 
HETATM   24  O9  MIQ B 502      13.523   9.892 -13.277  1.00148.65    -0.388 OA
HETATM   25  C10 MIQ B 502      13.443   8.499 -13.361  1.00147.44     0.187 C 
HETATM   26  C11 MIQ B 502      14.246   7.662 -12.370  1.00144.08     0.149 C 
ENDBRANCH   5  21
TORSDOF 2
ENDMDL
