MODEL 1
REMARK VINA RESULT:      -7.4      0.000      0.000
REMARK  2 active torsions:
REMARK  status: ('A' for Active; 'I' for Inactive)
REMARK    1  A    between atoms: C5_5  and  N6_21 
REMARK    2  A    between atoms: C18_14  and  N17_19 
ROOT
HETATM    1  O1  MIQ B 502      -1.746   3.880 -17.979  1.00142.91    -0.171 OA
HETATM    2  C2  MIQ B 502      -1.394   2.649 -18.536  1.00141.17     0.195 A 
HETATM    3  C3  MIQ B 502      -2.103   1.941 -19.734  1.00141.71     0.035 A 
HETATM    4  C4  MIQ B 502      -3.258   2.301 -20.590  1.00142.86     0.046 A 
HETATM    5  C5  MIQ B 502      -3.679   1.432 -21.629  1.00139.53     0.031 A 
HETATM    6  C12 MIQ B 502      -2.971   0.180 -21.854  1.00139.38     0.030 A 
HETATM    7  C13 MIQ B 502      -1.863  -0.165 -21.034  1.00141.18     0.019 A 
HETATM    8  C14 MIQ B 502      -1.424   0.753 -19.947  1.00138.77     0.033 A 
HETATM    9  C15 MIQ B 502      -0.286   0.722 -18.875  1.00142.10     0.195 A 
HETATM   10  N17 MIQ B 502      -0.408   1.842 -18.181  1.00139.42    -0.288 N 
HETATM   11  O16 MIQ B 502       0.662  -0.286 -18.691  1.00148.93    -0.171 OA
ENDROOT
BRANCH  10  12
HETATM   12  C18 MIQ B 502       0.482   2.150 -17.077  1.00139.82     0.187 C 
HETATM   13  C19 MIQ B 502      -0.383   2.411 -15.838  1.00140.06     0.247 C 
HETATM   14  O25 MIQ B 502      -1.206   1.623 -15.533  1.00143.95    -0.271 OA
HETATM   15  N20 MIQ B 502      -0.213   3.599 -15.025  1.00140.02    -0.296 N 
HETATM   16  H13 MIQ B 502      -0.788   3.761 -14.222  1.00142.77     0.171 HD
HETATM   17  C21 MIQ B 502       0.791   4.551 -15.424  1.00142.22     0.224 C 
HETATM   18  C22 MIQ B 502       1.031   4.705 -16.913  1.00139.52     0.106 C 
HETATM   19  O24 MIQ B 502       1.400   5.176 -14.627  1.00146.13    -0.273 OA
HETATM   20  C23 MIQ B 502       1.388   3.326 -17.437  1.00139.15     0.045 C 
ENDBRANCH  10  12
BRANCH   5  21
HETATM   21  N6  MIQ B 502      -4.821   1.789 -22.450  1.00140.95    -0.377 N 
HETATM   22  C7  MIQ B 502      -6.150   1.438 -21.982  1.00142.12     0.149 C 
HETATM   23  C8  MIQ B 502      -7.132   1.268 -23.134  1.00144.10     0.187 C 
HETATM   24  O9  MIQ B 502      -7.081   2.318 -24.052  1.00148.65    -0.388 OA
HETATM   25  C10 MIQ B 502      -6.056   3.266 -23.987  1.00147.44     0.187 C 
HETATM   26  C11 MIQ B 502      -4.694   2.832 -23.453  1.00144.08     0.149 C 
ENDBRANCH   5  21
TORSDOF 2
ENDMDL
MODEL 2
REMARK VINA RESULT:      -7.1      2.012      2.219
REMARK  2 active torsions:
REMARK  status: ('A' for Active; 'I' for Inactive)
REMARK    1  A    between atoms: C5_5  and  N6_21 
REMARK    2  A    between atoms: C18_14  and  N17_19 
ROOT
HETATM    1  O1  MIQ B 502      -0.671   4.064 -18.322  1.00142.91    -0.171 OA
HETATM    2  C2  MIQ B 502      -0.234   2.794 -18.704  1.00141.17     0.195 A 
HETATM    3  C3  MIQ B 502      -0.531   2.087 -20.064  1.00141.71     0.035 A 
HETATM    4  C4  MIQ B 502      -1.291   2.483 -21.274  1.00142.86     0.046 A 
HETATM    5  C5  MIQ B 502      -1.384   1.602 -22.381  1.00139.53     0.031 A 
HETATM    6  C12 MIQ B 502      -0.729   0.303 -22.329  1.00139.38     0.030 A 
HETATM    7  C13 MIQ B 502      -0.000  -0.076 -21.170  1.00141.18     0.019 A 
HETATM    8  C14 MIQ B 502       0.096   0.853 -20.011  1.00138.77     0.033 A 
HETATM    9  C15 MIQ B 502       0.788   0.794 -18.610  1.00142.10     0.195 A 
HETATM   10  N17 MIQ B 502       0.510   1.944 -18.017  1.00139.42    -0.288 N 
HETATM   11  O16 MIQ B 502       1.542  -0.261 -18.094  1.00148.93    -0.171 OA
ENDROOT
BRANCH  10  12
HETATM   12  C18 MIQ B 502       0.982   2.238 -16.677  1.00139.82     0.187 C 
HETATM   13  C19 MIQ B 502      -0.231   2.647 -15.833  1.00140.06     0.247 C 
HETATM   14  O25 MIQ B 502      -1.185   1.953 -15.821  1.00143.95    -0.271 OA
HETATM   15  N20 MIQ B 502      -0.238   3.862 -15.044  1.00140.02    -0.296 N 
HETATM   16  H13 MIQ B 502      -1.039   4.121 -14.502  1.00142.77     0.171 HD
HETATM   17  C21 MIQ B 502       0.934   4.698 -15.082  1.00142.22     0.224 C 
HETATM   18  C22 MIQ B 502       1.697   4.741 -16.392  1.00139.52     0.106 C 
HETATM   19  O24 MIQ B 502       1.285   5.315 -14.137  1.00146.13    -0.273 OA
HETATM   20  C23 MIQ B 502       2.073   3.308 -16.721  1.00139.15     0.045 C 
ENDBRANCH  10  12
BRANCH   5  21
HETATM   21  N6  MIQ B 502      -2.144   1.997 -23.554  1.00140.95    -0.377 N 
HETATM   22  C7  MIQ B 502      -2.406   3.410 -23.768  1.00142.12     0.149 C 
HETATM   23  C8  MIQ B 502      -3.673   3.635 -24.583  1.00144.10     0.187 C 
HETATM   24  O9  MIQ B 502      -3.733   2.837 -25.727  1.00148.65    -0.388 OA
HETATM   25  C10 MIQ B 502      -2.815   1.801 -25.915  1.00147.44     0.187 C 
HETATM   26  C11 MIQ B 502      -2.249   1.095 -24.687  1.00144.08     0.149 C 
ENDBRANCH   5  21
TORSDOF 2
ENDMDL
MODEL 3
REMARK VINA RESULT:      -6.9      2.754      3.051
REMARK  2 active torsions:
REMARK  status: ('A' for Active; 'I' for Inactive)
REMARK    1  A    between atoms: C5_5  and  N6_21 
REMARK    2  A    between atoms: C18_14  and  N17_19 
ROOT
HETATM    1  O1  MIQ B 502       0.063   3.981 -18.622  1.00142.91    -0.171 OA
HETATM    2  C2  MIQ B 502       0.345   2.628 -18.825  1.00141.17     0.195 A 
HETATM    3  C3  MIQ B 502       0.206   1.849 -20.172  1.00141.71     0.035 A 
HETATM    4  C4  MIQ B 502      -0.220   2.241 -21.536  1.00142.86     0.046 A 
HETATM    5  C5  MIQ B 502      -0.241   1.285 -22.583  1.00139.53     0.031 A 
HETATM    6  C12 MIQ B 502       0.159  -0.089 -22.314  1.00139.38     0.030 A 
HETATM    7  C13 MIQ B 502       0.569  -0.464 -21.007  1.00141.18     0.019 A 
HETATM    8  C14 MIQ B 502       0.591   0.544 -19.912  1.00138.77     0.033 A 
HETATM    9  C15 MIQ B 502       0.972   0.513 -18.396  1.00142.10     0.195 A 
HETATM   10  N17 MIQ B 502       0.782   1.742 -17.947  1.00139.42    -0.288 N 
HETATM   11  O16 MIQ B 502       1.418  -0.592 -17.669  1.00148.93    -0.171 OA
ENDROOT
BRANCH  10  12
HETATM   12  C18 MIQ B 502       1.023   2.086 -16.558  1.00139.82     0.187 C 
HETATM   13  C19 MIQ B 502      -0.255   2.730 -16.007  1.00140.06     0.247 C 
HETATM   14  O25 MIQ B 502      -1.287   2.177 -16.151  1.00143.95    -0.271 OA
HETATM   15  N20 MIQ B 502      -0.231   3.999 -15.308  1.00140.02    -0.296 N 
HETATM   16  H13 MIQ B 502      -1.074   4.412 -14.959  1.00142.77     0.171 HD
HETATM   17  C21 MIQ B 502       1.039   4.660 -15.154  1.00142.22     0.224 C 
HETATM   18  C22 MIQ B 502       2.040   4.484 -16.279  1.00139.52     0.106 C 
HETATM   19  O24 MIQ B 502       1.288   5.304 -14.194  1.00146.13    -0.273 OA
HETATM   20  C23 MIQ B 502       2.250   2.989 -16.438  1.00139.15     0.045 C 
ENDBRANCH  10  12
BRANCH   5  21
HETATM   21  N6  MIQ B 502      -0.675   1.679 -23.911  1.00140.95    -0.377 N 
HETATM   22  C7  MIQ B 502      -2.099   1.820 -24.163  1.00142.12     0.149 C 
HETATM   23  C8  MIQ B 502      -2.442   1.592 -25.629  1.00144.10     0.187 C 
HETATM   24  O9  MIQ B 502      -1.610   2.299 -26.498  1.00148.65    -0.388 OA
HETATM   25  C10 MIQ B 502      -0.462   2.936 -26.018  1.00147.44     0.187 C 
HETATM   26  C11 MIQ B 502       0.254   2.337 -24.812  1.00144.08     0.149 C 
ENDBRANCH   5  21
TORSDOF 2
ENDMDL
MODEL 4
REMARK VINA RESULT:      -6.7      1.584      1.797
REMARK  2 active torsions:
REMARK  status: ('A' for Active; 'I' for Inactive)
REMARK    1  A    between atoms: C5_5  and  N6_21 
REMARK    2  A    between atoms: C18_14  and  N17_19 
ROOT
HETATM    1  O1  MIQ B 502      -0.587   3.595 -19.043  1.00142.91    -0.171 OA
HETATM    2  C2  MIQ B 502      -1.341   2.491 -18.637  1.00141.17     0.195 A 
HETATM    3  C3  MIQ B 502      -2.460   1.783 -19.466  1.00141.71     0.035 A 
HETATM    4  C4  MIQ B 502      -3.032   2.017 -20.813  1.00142.86     0.046 A 
HETATM    5  C5  MIQ B 502      -4.068   1.183 -21.306  1.00139.53     0.031 A 
HETATM    6  C12 MIQ B 502      -4.570   0.091 -20.483  1.00139.38     0.030 A 
HETATM    7  C13 MIQ B 502      -4.020  -0.133 -19.192  1.00141.18     0.019 A 
HETATM    8  C14 MIQ B 502      -2.932   0.744 -18.681  1.00138.77     0.033 A 
HETATM    9  C15 MIQ B 502      -2.101   0.807 -17.358  1.00142.10     0.195 A 
HETATM   10  N17 MIQ B 502      -1.267   1.824 -17.498  1.00139.42    -0.288 N 
HETATM   11  O16 MIQ B 502      -2.221  -0.040 -16.255  1.00148.93    -0.171 OA
ENDROOT
BRANCH  10  12
HETATM   12  C18 MIQ B 502      -0.341   2.195 -16.445  1.00139.82     0.187 C 
HETATM   13  C19 MIQ B 502      -0.487   3.702 -16.202  1.00140.06     0.247 C 
HETATM   14  O25 MIQ B 502      -1.561   4.154 -16.022  1.00143.95    -0.271 OA
HETATM   15  N20 MIQ B 502       0.659   4.587 -16.181  1.00140.02    -0.296 N 
HETATM   16  H13 MIQ B 502       0.550   5.570 -16.027  1.00142.77     0.171 HD
HETATM   17  C21 MIQ B 502       1.960   4.012 -16.413  1.00142.22     0.224 C 
HETATM   18  C22 MIQ B 502       2.024   2.837 -17.369  1.00139.52     0.106 C 
HETATM   19  O24 MIQ B 502       2.926   4.435 -15.879  1.00146.13    -0.273 OA
HETATM   20  C23 MIQ B 502       1.082   1.782 -16.819  1.00139.15     0.045 C 
ENDBRANCH  10  12
BRANCH   5  21
HETATM   21  N6  MIQ B 502      -4.629   1.432 -22.621  1.00140.95    -0.377 N 
HETATM   22  C7  MIQ B 502      -5.963   1.999 -22.710  1.00142.12     0.149 C 
HETATM   23  C8  MIQ B 502      -6.658   1.619 -24.012  1.00144.10     0.187 C 
HETATM   24  O9  MIQ B 502      -5.850   1.812 -25.135  1.00148.65    -0.388 OA
HETATM   25  C10 MIQ B 502      -4.491   2.098 -24.988  1.00147.44     0.187 C 
HETATM   26  C11 MIQ B 502      -3.754   1.539 -23.775  1.00144.08     0.149 C 
ENDBRANCH   5  21
TORSDOF 2
ENDMDL
MODEL 5
REMARK VINA RESULT:      -6.5      2.300      3.001
REMARK  2 active torsions:
REMARK  status: ('A' for Active; 'I' for Inactive)
REMARK    1  A    between atoms: C5_5  and  N6_21 
REMARK    2  A    between atoms: C18_14  and  N17_19 
ROOT
HETATM    1  O1  MIQ B 502      -2.287   0.025 -16.259  1.00142.91    -0.171 OA
HETATM    2  C2  MIQ B 502      -2.129   0.842 -17.380  1.00141.17     0.195 A 
HETATM    3  C3  MIQ B 502      -2.951   0.758 -18.706  1.00141.71     0.035 A 
HETATM    4  C4  MIQ B 502      -4.054  -0.118 -19.167  1.00142.86     0.046 A 
HETATM    5  C5  MIQ B 502      -4.614   0.053 -20.458  1.00139.53     0.031 A 
HETATM    6  C12 MIQ B 502      -4.101   1.096 -21.335  1.00139.38     0.030 A 
HETATM    7  C13 MIQ B 502      -3.044   1.936 -20.893  1.00141.18     0.019 A 
HETATM    8  C14 MIQ B 502      -2.462   1.754 -19.535  1.00138.77     0.033 A 
HETATM    9  C15 MIQ B 502      -1.331   2.461 -18.720  1.00142.10     0.195 A 
HETATM   10  N17 MIQ B 502      -1.278   1.839 -17.554  1.00139.42    -0.288 N 
HETATM   11  O16 MIQ B 502      -0.538   3.529 -19.143  1.00148.93    -0.171 OA
ENDROOT
BRANCH  10  12
HETATM   12  C18 MIQ B 502      -0.319   2.221 -16.534  1.00139.82     0.187 C 
HETATM   13  C19 MIQ B 502      -0.416   3.741 -16.348  1.00140.06     0.247 C 
HETATM   14  O25 MIQ B 502      -1.473   4.232 -16.165  1.00143.95    -0.271 OA
HETATM   15  N20 MIQ B 502       0.756   4.591 -16.383  1.00140.02    -0.296 N 
HETATM   16  H13 MIQ B 502       0.678   5.582 -16.267  1.00142.77     0.171 HD
HETATM   17  C21 MIQ B 502       2.034   3.969 -16.618  1.00142.22     0.224 C 
HETATM   18  C22 MIQ B 502       2.044   2.756 -17.528  1.00139.52     0.106 C 
HETATM   19  O24 MIQ B 502       3.023   4.382 -16.120  1.00146.13    -0.273 OA
HETATM   20  C23 MIQ B 502       1.083   1.751 -16.919  1.00139.15     0.045 C 
ENDBRANCH  10  12
BRANCH   5  21
HETATM   21  N6  MIQ B 502      -5.684  -0.822 -20.902  1.00140.95    -0.377 N 
HETATM   22  C7  MIQ B 502      -7.019  -0.268 -21.045  1.00142.12     0.149 C 
HETATM   23  C8  MIQ B 502      -8.097  -1.331 -20.873  1.00144.10     0.187 C 
HETATM   24  O9  MIQ B 502      -7.846  -2.484 -21.620  1.00148.65    -0.388 OA
HETATM   25  C10 MIQ B 502      -6.609  -2.668 -22.243  1.00147.44     0.187 C 
HETATM   26  C11 MIQ B 502      -5.369  -2.056 -21.601  1.00144.08     0.149 C 
ENDBRANCH   5  21
TORSDOF 2
ENDMDL
MODEL 6
REMARK VINA RESULT:      -6.4      1.933      2.319
REMARK  2 active torsions:
REMARK  status: ('A' for Active; 'I' for Inactive)
REMARK    1  A    between atoms: C5_5  and  N6_21 
REMARK    2  A    between atoms: C18_14  and  N17_19 
ROOT
HETATM    1  O1  MIQ B 502      -1.816   2.369 -17.554  1.00142.91    -0.171 OA
HETATM    2  C2  MIQ B 502      -1.471   2.089 -18.878  1.00141.17     0.195 A 
HETATM    3  C3  MIQ B 502      -2.425   1.528 -19.981  1.00141.71     0.035 A 
HETATM    4  C4  MIQ B 502      -3.859   1.152 -19.992  1.00142.86     0.046 A 
HETATM    5  C5  MIQ B 502      -4.461   0.661 -21.178  1.00139.53     0.031 A 
HETATM    6  C12 MIQ B 502      -3.667   0.528 -22.391  1.00139.38     0.030 A 
HETATM    7  C13 MIQ B 502      -2.293   0.890 -22.380  1.00141.18     0.019 A 
HETATM    8  C14 MIQ B 502      -1.666   1.407 -21.133  1.00138.77     0.033 A 
HETATM    9  C15 MIQ B 502      -0.232   1.895 -20.744  1.00142.10     0.195 A 
HETATM   10  N17 MIQ B 502      -0.297   2.237 -19.468  1.00139.42    -0.288 N 
HETATM   11  O16 MIQ B 502       0.886   1.952 -21.577  1.00148.93    -0.171 OA
ENDROOT
BRANCH  10  12
HETATM   12  C18 MIQ B 502       0.868   2.728 -18.755  1.00139.82     0.187 C 
HETATM   13  C19 MIQ B 502       1.023   1.892 -17.479  1.00140.06     0.247 C 
HETATM   14  O25 MIQ B 502       1.018   0.715 -17.557  1.00143.95    -0.271 OA
HETATM   15  N20 MIQ B 502       1.180   2.508 -16.177  1.00140.02    -0.296 N 
HETATM   16  H13 MIQ B 502       1.273   1.951 -15.351  1.00142.77     0.171 HD
HETATM   17  C21 MIQ B 502       1.171   3.946 -16.106  1.00142.22     0.224 C 
HETATM   18  C22 MIQ B 502       0.286   4.673 -17.100  1.00139.52     0.106 C 
HETATM   19  O24 MIQ B 502       1.827   4.530 -15.314  1.00146.13    -0.273 OA
HETATM   20  C23 MIQ B 502       0.731   4.225 -18.481  1.00139.15     0.045 C 
ENDBRANCH  10  12
BRANCH   5  21
HETATM   21  N6  MIQ B 502      -5.862   0.282 -21.171  1.00140.95    -0.377 N 
HETATM   22  C7  MIQ B 502      -6.270  -0.858 -20.367  1.00142.12     0.149 C 
HETATM   23  C8  MIQ B 502      -7.525  -1.523 -20.918  1.00144.10     0.187 C 
HETATM   24  O9  MIQ B 502      -8.538  -0.609 -21.215  1.00148.65    -0.388 OA
HETATM   25  C10 MIQ B 502      -8.278   0.764 -21.208  1.00147.44     0.187 C 
HETATM   26  C11 MIQ B 502      -6.876   1.242 -21.571  1.00144.08     0.149 C 
ENDBRANCH   5  21
TORSDOF 2
ENDMDL
MODEL 7
REMARK VINA RESULT:      -6.4      3.116      3.481
REMARK  2 active torsions:
REMARK  status: ('A' for Active; 'I' for Inactive)
REMARK    1  A    between atoms: C5_5  and  N6_21 
REMARK    2  A    between atoms: C18_14  and  N17_19 
ROOT
HETATM    1  O1  MIQ B 502      -1.314   3.610 -18.865  1.00142.91    -0.171 OA
HETATM    2  C2  MIQ B 502      -0.586   2.506 -19.313  1.00141.17     0.195 A 
HETATM    3  C3  MIQ B 502      -0.294   2.137 -20.802  1.00141.71     0.035 A 
HETATM    4  C4  MIQ B 502      -0.650   2.766 -22.097  1.00142.86     0.046 A 
HETATM    5  C5  MIQ B 502      -0.228   2.182 -23.317  1.00139.53     0.031 A 
HETATM    6  C12 MIQ B 502       0.559   0.957 -23.298  1.00139.38     0.030 A 
HETATM    7  C13 MIQ B 502       0.901   0.354 -22.058  1.00141.18     0.019 A 
HETATM    8  C14 MIQ B 502       0.458   0.974 -20.779  1.00138.77     0.033 A 
HETATM    9  C15 MIQ B 502       0.634   0.619 -19.267  1.00142.10     0.195 A 
HETATM   10  N17 MIQ B 502       0.001   1.566 -18.593  1.00139.42    -0.288 N 
HETATM   11  O16 MIQ B 502       1.320  -0.477 -18.740  1.00148.93    -0.171 OA
ENDROOT
BRANCH  10  12
HETATM   12  C18 MIQ B 502      -0.059   1.552 -17.143  1.00139.82     0.187 C 
HETATM   13  C19 MIQ B 502      -1.535   1.645 -16.736  1.00140.06     0.247 C 
HETATM   14  O25 MIQ B 502      -2.313   0.900 -17.216  1.00143.95    -0.271 OA
HETATM   15  N20 MIQ B 502      -2.001   2.621 -15.772  1.00140.02    -0.296 N 
HETATM   16  H13 MIQ B 502      -2.968   2.676 -15.519  1.00142.77     0.171 HD
HETATM   17  C21 MIQ B 502      -1.033   3.527 -15.208  1.00142.22     0.224 C 
HETATM   18  C22 MIQ B 502       0.108   3.953 -16.110  1.00139.52     0.106 C 
HETATM   19  O24 MIQ B 502      -1.125   3.914 -14.095  1.00146.13    -0.273 OA
HETATM   20  C23 MIQ B 502       0.796   2.679 -16.566  1.00139.15     0.045 C 
ENDBRANCH  10  12
BRANCH   5  21
HETATM   21  N6  MIQ B 502      -0.596   2.800 -24.578  1.00140.95    -0.377 N 
HETATM   22  C7  MIQ B 502      -1.502   3.936 -24.556  1.00142.12     0.149 C 
HETATM   23  C8  MIQ B 502      -2.285   4.064 -25.856  1.00144.10     0.187 C 
HETATM   24  O9  MIQ B 502      -1.475   3.968 -26.990  1.00148.65    -0.388 OA
HETATM   25  C10 MIQ B 502      -0.143   3.563 -26.876  1.00147.44     0.187 C 
HETATM   26  C11 MIQ B 502       0.233   2.601 -25.754  1.00144.08     0.149 C 
ENDBRANCH   5  21
TORSDOF 2
ENDMDL
MODEL 8
REMARK VINA RESULT:      -6.4      1.984      2.873
REMARK  2 active torsions:
REMARK  status: ('A' for Active; 'I' for Inactive)
REMARK    1  A    between atoms: C5_5  and  N6_21 
REMARK    2  A    between atoms: C18_14  and  N17_19 
ROOT
HETATM    1  O1  MIQ B 502      -1.157  -1.156 -18.171  1.00142.91    -0.171 OA
HETATM    2  C2  MIQ B 502      -1.600   0.118 -18.533  1.00141.17     0.195 A 
HETATM    3  C3  MIQ B 502      -2.806   0.444 -19.470  1.00141.71     0.035 A 
HETATM    4  C4  MIQ B 502      -3.782  -0.396 -20.204  1.00142.86     0.046 A 
HETATM    5  C5  MIQ B 502      -4.794   0.205 -20.994  1.00139.53     0.031 A 
HETATM    6  C12 MIQ B 502      -4.875   1.656 -21.083  1.00139.38     0.030 A 
HETATM    7  C13 MIQ B 502      -3.941   2.462 -20.378  1.00141.18     0.019 A 
HETATM    8  C14 MIQ B 502      -2.882   1.825 -19.548  1.00138.77     0.033 A 
HETATM    9  C15 MIQ B 502      -1.715   2.360 -18.655  1.00142.10     0.195 A 
HETATM   10  N17 MIQ B 502      -1.109   1.290 -18.167  1.00139.42    -0.288 N 
HETATM   11  O16 MIQ B 502      -1.384   3.696 -18.424  1.00148.93    -0.171 OA
ENDROOT
BRANCH  10  12
HETATM   12  C18 MIQ B 502       0.046   1.405 -17.296  1.00139.82     0.187 C 
HETATM   13  C19 MIQ B 502      -0.352   2.288 -16.107  1.00140.06     0.247 C 
HETATM   14  O25 MIQ B 502      -1.334   2.035 -15.505  1.00143.95    -0.271 OA
HETATM   15  N20 MIQ B 502       0.450   3.424 -15.697  1.00140.02    -0.296 N 
HETATM   16  H13 MIQ B 502       0.176   3.996 -14.923  1.00142.77     0.171 HD
HETATM   17  C21 MIQ B 502       1.639   3.719 -16.454  1.00142.22     0.224 C 
HETATM   18  C22 MIQ B 502       1.592   3.419 -17.940  1.00139.52     0.106 C 
HETATM   19  O24 MIQ B 502       2.603   4.167 -15.940  1.00146.13    -0.273 OA
HETATM   20  C23 MIQ B 502       1.246   1.947 -18.072  1.00139.15     0.045 C 
ENDBRANCH  10  12
BRANCH   5  21
HETATM   21  N6  MIQ B 502      -5.733  -0.630 -21.720  1.00140.95    -0.377 N 
HETATM   22  C7  MIQ B 502      -5.697  -2.066 -21.504  1.00142.12     0.149 C 
HETATM   23  C8  MIQ B 502      -6.215  -2.837 -22.712  1.00144.10     0.187 C 
HETATM   24  O9  MIQ B 502      -7.425  -2.337 -23.197  1.00148.65    -0.388 OA
HETATM   25  C10 MIQ B 502      -7.927  -1.120 -22.728  1.00147.44     0.187 C 
HETATM   26  C11 MIQ B 502      -6.939  -0.047 -22.282  1.00144.08     0.149 C 
ENDBRANCH   5  21
TORSDOF 2
ENDMDL
MODEL 9
REMARK VINA RESULT:      -6.3      2.000      7.968
REMARK  2 active torsions:
REMARK  status: ('A' for Active; 'I' for Inactive)
REMARK    1  A    between atoms: C5_5  and  N6_21 
REMARK    2  A    between atoms: C18_14  and  N17_19 
ROOT
HETATM    1  O1  MIQ B 502      -4.834   2.350 -20.629  1.00142.91    -0.171 OA
HETATM    2  C2  MIQ B 502      -3.544   2.092 -21.098  1.00141.17     0.195 A 
HETATM    3  C3  MIQ B 502      -2.213   2.334 -20.317  1.00141.71     0.035 A 
HETATM    4  C4  MIQ B 502      -1.906   2.856 -18.965  1.00142.86     0.046 A 
HETATM    5  C5  MIQ B 502      -0.562   2.959 -18.525  1.00139.53     0.031 A 
HETATM    6  C12 MIQ B 502       0.521   2.549 -19.407  1.00139.38     0.030 A 
HETATM    7  C13 MIQ B 502       0.226   2.047 -20.704  1.00141.18     0.019 A 
HETATM    8  C14 MIQ B 502      -1.187   1.939 -21.159  1.00138.77     0.033 A 
HETATM    9  C15 MIQ B 502      -1.884   1.449 -22.470  1.00142.10     0.195 A 
HETATM   10  N17 MIQ B 502      -3.183   1.598 -22.270  1.00139.42    -0.288 N 
HETATM   11  O16 MIQ B 502      -1.258   0.957 -23.617  1.00148.93    -0.171 OA
ENDROOT
BRANCH  10  12
HETATM   12  C18 MIQ B 502      -4.152   1.254 -23.294  1.00139.82     0.187 C 
HETATM   13  C19 MIQ B 502      -5.012   2.496 -23.560  1.00140.06     0.247 C 
HETATM   14  O25 MIQ B 502      -4.483   3.526 -23.782  1.00143.95    -0.271 OA
HETATM   15  N20 MIQ B 502      -6.459   2.438 -23.552  1.00140.02    -0.296 N 
HETATM   16  H13 MIQ B 502      -7.010   3.257 -23.720  1.00142.77     0.171 HD
HETATM   17  C21 MIQ B 502      -7.082   1.171 -23.267  1.00142.22     0.224 C 
HETATM   18  C22 MIQ B 502      -6.359   0.259 -22.296  1.00139.52     0.106 C 
HETATM   19  O24 MIQ B 502      -8.104   0.858 -23.772  1.00146.13    -0.273 OA
HETATM   20  C23 MIQ B 502      -4.970   0.036 -22.866  1.00139.15     0.045 C 
ENDBRANCH  10  12
BRANCH   5  21
HETATM   21  N6  MIQ B 502      -0.275   3.486 -17.203  1.00140.95    -0.377 N 
HETATM   22  C7  MIQ B 502      -0.670   2.706 -16.043  1.00142.12     0.149 C 
HETATM   23  C8  MIQ B 502      -0.912   3.585 -14.823  1.00144.10     0.187 C 
HETATM   24  O9  MIQ B 502       0.116   4.504 -14.602  1.00148.65    -0.388 OA
HETATM   25  C10 MIQ B 502       1.108   4.701 -15.566  1.00147.44     0.187 C 
HETATM   26  C11 MIQ B 502       0.746   4.506 -17.035  1.00144.08     0.149 C 
ENDBRANCH   5  21
TORSDOF 2
ENDMDL
