MODEL 1
REMARK VINA RESULT:      -6.9      0.000      0.000
REMARK  2 active torsions:
REMARK  status: ('A' for Active; 'I' for Inactive)
REMARK    1  A    between atoms: C5_5  and  N6_21 
REMARK    2  A    between atoms: C18_14  and  N17_19 
ROOT
HETATM    1  O1  MIQ B 502      13.978   4.535  -3.697  1.00142.91    -0.171 OA
HETATM    2  C2  MIQ B 502      14.043   5.482  -2.672  1.00141.17     0.195 A 
HETATM    3  C3  MIQ B 502      13.696   7.000  -2.796  1.00141.71     0.035 A 
HETATM    4  C4  MIQ B 502      13.231   7.851  -3.917  1.00142.86     0.046 A 
HETATM    5  C5  MIQ B 502      12.994   9.234  -3.717  1.00139.53     0.031 A 
HETATM    6  C12 MIQ B 502      13.210   9.821  -2.402  1.00139.38     0.030 A 
HETATM    7  C13 MIQ B 502      13.655   9.006  -1.327  1.00141.18     0.019 A 
HETATM    8  C14 MIQ B 502      13.899   7.554  -1.543  1.00138.77     0.033 A 
HETATM    9  C15 MIQ B 502      14.374   6.372  -0.635  1.00142.10     0.195 A 
HETATM   10  N17 MIQ B 502      14.397   5.301  -1.412  1.00139.42    -0.288 N 
HETATM   11  O16 MIQ B 502      14.708   6.440   0.719  1.00148.93    -0.171 OA
ENDROOT
BRANCH  10  12
HETATM   12  C18 MIQ B 502      14.809   4.006  -0.904  1.00139.82     0.187 C 
HETATM   13  C19 MIQ B 502      15.993   3.527  -1.753  1.00140.06     0.247 C 
HETATM   14  O25 MIQ B 502      16.912   4.247  -1.919  1.00143.95    -0.271 OA
HETATM   15  N20 MIQ B 502      16.018   2.208  -2.353  1.00140.02    -0.296 N 
HETATM   16  H13 MIQ B 502      16.794   1.910  -2.911  1.00142.77     0.171 HD
HETATM   17  C21 MIQ B 502      14.880   1.351  -2.144  1.00142.22     0.224 C 
HETATM   18  C22 MIQ B 502      13.527   2.027  -2.042  1.00139.52     0.106 C 
HETATM   19  O24 MIQ B 502      14.999   0.178  -2.052  1.00146.13    -0.273 OA
HETATM   20  C23 MIQ B 502      13.632   3.033  -0.910  1.00139.15     0.045 C 
ENDBRANCH  10  12
BRANCH   5  21
HETATM   21  N6  MIQ B 502      12.552  10.059  -4.827  1.00140.95    -0.377 N 
HETATM   22  C7  MIQ B 502      12.604   9.503  -6.168  1.00142.12     0.149 C 
HETATM   23  C8  MIQ B 502      12.749  10.588  -7.228  1.00144.10     0.187 C 
HETATM   24  O9  MIQ B 502      11.850  11.641  -7.053  1.00148.65    -0.388 OA
HETATM   25  C10 MIQ B 502      11.094  11.740  -5.882  1.00147.44     0.187 C 
HETATM   26  C11 MIQ B 502      11.685  11.198  -4.585  1.00144.08     0.149 C 
ENDBRANCH   5  21
TORSDOF 2
ENDMDL
MODEL 2
REMARK VINA RESULT:      -6.8      2.284      8.138
REMARK  2 active torsions:
REMARK  status: ('A' for Active; 'I' for Inactive)
REMARK    1  A    between atoms: C5_5  and  N6_21 
REMARK    2  A    between atoms: C18_14  and  N17_19 
ROOT
HETATM    1  O1  MIQ B 502      11.841   8.536  -4.902  1.00142.91    -0.171 OA
HETATM    2  C2  MIQ B 502      13.229   8.555  -4.753  1.00141.17     0.195 A 
HETATM    3  C3  MIQ B 502      14.112   7.394  -4.192  1.00141.71     0.035 A 
HETATM    4  C4  MIQ B 502      13.808   6.034  -3.690  1.00142.86     0.046 A 
HETATM    5  C5  MIQ B 502      14.851   5.187  -3.236  1.00139.53     0.031 A 
HETATM    6  C12 MIQ B 502      16.228   5.658  -3.266  1.00139.38     0.030 A 
HETATM    7  C13 MIQ B 502      16.521   6.962  -3.749  1.00141.18     0.019 A 
HETATM    8  C14 MIQ B 502      15.422   7.846  -4.226  1.00138.77     0.033 A 
HETATM    9  C15 MIQ B 502      15.351   9.294  -4.811  1.00142.10     0.195 A 
HETATM   10  N17 MIQ B 502      14.072   9.529  -5.051  1.00139.42    -0.288 N 
HETATM   11  O16 MIQ B 502      16.424  10.159  -5.032  1.00148.93    -0.171 OA
ENDROOT
BRANCH  10  12
HETATM   12  C18 MIQ B 502      13.623  10.799  -5.591  1.00139.82     0.187 C 
HETATM   13  C19 MIQ B 502      12.517  11.333  -4.672  1.00140.06     0.247 C 
HETATM   14  O25 MIQ B 502      12.712  11.393  -3.511  1.00143.95    -0.271 OA
HETATM   15  N20 MIQ B 502      11.239  11.773  -5.193  1.00140.02    -0.296 N 
HETATM   16  H13 MIQ B 502      10.523  12.114  -4.582  1.00142.77     0.171 HD
HETATM   17  C21 MIQ B 502      11.021  11.681  -6.613  1.00142.22     0.224 C 
HETATM   18  C22 MIQ B 502      11.686  10.522  -7.330  1.00139.52     0.106 C 
HETATM   19  O24 MIQ B 502      10.360  12.473  -7.190  1.00146.13    -0.273 OA
HETATM   20  C23 MIQ B 502      13.172  10.631  -7.040  1.00139.15     0.045 C 
ENDBRANCH  10  12
BRANCH   5  21
HETATM   21  N6  MIQ B 502      14.537   3.863  -2.733  1.00140.95    -0.377 N 
HETATM   22  C7  MIQ B 502      15.562   3.136  -2.003  1.00142.12     0.149 C 
HETATM   23  C8  MIQ B 502      15.370   1.628  -2.104  1.00144.10     0.187 C 
HETATM   24  O9  MIQ B 502      14.058   1.228  -1.846  1.00148.65    -0.388 OA
HETATM   25  C10 MIQ B 502      13.035   2.176  -1.749  1.00147.44     0.187 C 
HETATM   26  C11 MIQ B 502      13.152   3.461  -2.563  1.00144.08     0.149 C 
ENDBRANCH   5  21
TORSDOF 2
ENDMDL
MODEL 3
REMARK VINA RESULT:      -6.8      3.486      4.228
REMARK  2 active torsions:
REMARK  status: ('A' for Active; 'I' for Inactive)
REMARK    1  A    between atoms: C5_5  and  N6_21 
REMARK    2  A    between atoms: C18_14  and  N17_19 
ROOT
HETATM    1  O1  MIQ B 502      13.884   4.637  -3.293  1.00142.91    -0.171 OA
HETATM    2  C2  MIQ B 502      15.129   4.791  -2.679  1.00141.17     0.195 A 
HETATM    3  C3  MIQ B 502      16.274   5.747  -3.143  1.00141.71     0.035 A 
HETATM    4  C4  MIQ B 502      16.409   6.706  -4.264  1.00142.86     0.046 A 
HETATM    5  C5  MIQ B 502      17.604   7.452  -4.430  1.00139.53     0.031 A 
HETATM    6  C12 MIQ B 502      18.702   7.273  -3.491  1.00139.38     0.030 A 
HETATM    7  C13 MIQ B 502      18.573   6.355  -2.415  1.00141.18     0.019 A 
HETATM    8  C14 MIQ B 502      17.316   5.576  -2.245  1.00138.77     0.033 A 
HETATM    9  C15 MIQ B 502      16.813   4.510  -1.218  1.00142.10     0.195 A 
HETATM   10  N17 MIQ B 502      15.590   4.183  -1.599  1.00139.42    -0.288 N 
HETATM   11  O16 MIQ B 502      17.519   4.006  -0.124  1.00148.93    -0.171 OA
ENDROOT
BRANCH  10  12
HETATM   12  C18 MIQ B 502      14.810   3.194  -0.878  1.00139.82     0.187 C 
HETATM   13  C19 MIQ B 502      14.524   2.033  -1.838  1.00140.06     0.247 C 
HETATM   14  O25 MIQ B 502      15.419   1.543  -2.431  1.00143.95    -0.271 OA
HETATM   15  N20 MIQ B 502      13.185   1.517  -2.035  1.00140.02    -0.296 N 
HETATM   16  H13 MIQ B 502      13.011   0.762  -2.669  1.00142.77     0.171 HD
HETATM   17  C21 MIQ B 502      12.109   2.139  -1.308  1.00142.22     0.224 C 
HETATM   18  C22 MIQ B 502      12.233   3.628  -1.049  1.00139.52     0.106 C 
HETATM   19  O24 MIQ B 502      11.178   1.517  -0.929  1.00146.13    -0.273 OA
HETATM   20  C23 MIQ B 502      13.543   3.829  -0.308  1.00139.15     0.045 C 
ENDBRANCH  10  12
BRANCH   5  21
HETATM   21  N6  MIQ B 502      17.728   8.376  -5.541  1.00140.95    -0.377 N 
HETATM   22  C7  MIQ B 502      16.651   9.320  -5.783  1.00142.12     0.149 C 
HETATM   23  C8  MIQ B 502      16.581   9.742  -7.246  1.00144.10     0.187 C 
HETATM   24  O9  MIQ B 502      17.824  10.109  -7.765  1.00148.65    -0.388 OA
HETATM   25  C10 MIQ B 502      18.994   9.866  -7.040  1.00147.44     0.187 C 
HETATM   26  C11 MIQ B 502      19.036   8.662  -6.105  1.00144.08     0.149 C 
ENDBRANCH   5  21
TORSDOF 2
ENDMDL
MODEL 4
REMARK VINA RESULT:      -6.7      1.990      8.269
REMARK  2 active torsions:
REMARK  status: ('A' for Active; 'I' for Inactive)
REMARK    1  A    between atoms: C5_5  and  N6_21 
REMARK    2  A    between atoms: C18_14  and  N17_19 
ROOT
HETATM    1  O1  MIQ B 502      13.348   7.776  -7.095  1.00142.91    -0.171 OA
HETATM    2  C2  MIQ B 502      13.298   8.296  -5.800  1.00141.17     0.195 A 
HETATM    3  C3  MIQ B 502      13.479   7.490  -4.474  1.00141.71     0.035 A 
HETATM    4  C4  MIQ B 502      13.737   6.060  -4.178  1.00142.86     0.046 A 
HETATM    5  C5  MIQ B 502      13.856   5.617  -2.837  1.00139.53     0.031 A 
HETATM    6  C12 MIQ B 502      13.724   6.571  -1.746  1.00139.38     0.030 A 
HETATM    7  C13 MIQ B 502      13.477   7.941  -2.029  1.00141.18     0.019 A 
HETATM    8  C14 MIQ B 502      13.356   8.402  -3.439  1.00138.77     0.033 A 
HETATM    9  C15 MIQ B 502      13.098   9.783  -4.126  1.00142.10     0.195 A 
HETATM   10  N17 MIQ B 502      13.099   9.549  -5.428  1.00139.42    -0.288 N 
HETATM   11  O16 MIQ B 502      12.904  11.010  -3.489  1.00148.93    -0.171 OA
ENDROOT
BRANCH  10  12
HETATM   12  C18 MIQ B 502      12.872  10.612  -6.389  1.00139.82     0.187 C 
HETATM   13  C19 MIQ B 502      13.882  11.729  -6.098  1.00140.06     0.247 C 
HETATM   14  O25 MIQ B 502      15.026  11.460  -6.001  1.00143.95    -0.271 OA
HETATM   15  N20 MIQ B 502      13.471  13.110  -5.943  1.00140.02    -0.296 N 
HETATM   16  H13 MIQ B 502      14.139  13.829  -5.747  1.00142.77     0.171 HD
HETATM   17  C21 MIQ B 502      12.067  13.412  -6.055  1.00142.22     0.224 C 
HETATM   18  C22 MIQ B 502      11.101  12.353  -5.558  1.00139.52     0.106 C 
HETATM   19  O24 MIQ B 502      11.689  14.432  -6.516  1.00146.13    -0.273 OA
HETATM   20  C23 MIQ B 502      11.420  11.084  -6.327  1.00139.15     0.045 C 
ENDBRANCH  10  12
BRANCH   5  21
HETATM   21  N6  MIQ B 502      14.095   4.211  -2.561  1.00140.95    -0.377 N 
HETATM   22  C7  MIQ B 502      15.307   3.839  -1.853  1.00142.12     0.149 C 
HETATM   23  C8  MIQ B 502      15.748   2.420  -2.187  1.00144.10     0.187 C 
HETATM   24  O9  MIQ B 502      14.705   1.495  -2.113  1.00148.65    -0.388 OA
HETATM   25  C10 MIQ B 502      13.383   1.928  -1.974  1.00147.44     0.187 C 
HETATM   26  C11 MIQ B 502      12.988   3.270  -2.580  1.00144.08     0.149 C 
ENDBRANCH   5  21
TORSDOF 2
ENDMDL
MODEL 5
REMARK VINA RESULT:      -6.5      2.285      8.601
REMARK  2 active torsions:
REMARK  status: ('A' for Active; 'I' for Inactive)
REMARK    1  A    between atoms: C5_5  and  N6_21 
REMARK    2  A    between atoms: C18_14  and  N17_19 
ROOT
HETATM    1  O1  MIQ B 502      13.223  10.756  -2.975  1.00142.91    -0.171 OA
HETATM    2  C2  MIQ B 502      12.916  10.027  -4.126  1.00141.17     0.195 A 
HETATM    3  C3  MIQ B 502      13.097   8.488  -4.318  1.00141.71     0.035 A 
HETATM    4  C4  MIQ B 502      13.596   7.403  -3.440  1.00142.86     0.046 A 
HETATM    5  C5  MIQ B 502      13.640   6.065  -3.908  1.00139.53     0.031 A 
HETATM    6  C12 MIQ B 502      13.193   5.757  -5.259  1.00139.38     0.030 A 
HETATM    7  C13 MIQ B 502      12.713   6.797  -6.101  1.00141.18     0.019 A 
HETATM    8  C14 MIQ B 502      12.666   8.199  -5.603  1.00138.77     0.033 A 
HETATM    9  C15 MIQ B 502      12.215   9.567  -6.212  1.00142.10     0.195 A 
HETATM   10  N17 MIQ B 502      12.416  10.471  -5.267  1.00139.42    -0.288 N 
HETATM   11  O16 MIQ B 502      11.707   9.784  -7.494  1.00148.93    -0.171 OA
ENDROOT
BRANCH  10  12
HETATM   12  C18 MIQ B 502      12.120  11.874  -5.487  1.00139.82     0.187 C 
HETATM   13  C19 MIQ B 502      13.364  12.681  -5.095  1.00140.06     0.247 C 
HETATM   14  O25 MIQ B 502      14.412  12.377  -5.543  1.00143.95    -0.271 OA
HETATM   15  N20 MIQ B 502      13.288  13.813  -4.194  1.00140.02    -0.296 N 
HETATM   16  H13 MIQ B 502      14.108  14.327  -3.942  1.00142.77     0.171 HD
HETATM   17  C21 MIQ B 502      11.999  14.158  -3.653  1.00142.22     0.224 C 
HETATM   18  C22 MIQ B 502      11.041  13.012  -3.390  1.00139.52     0.106 C 
HETATM   19  O24 MIQ B 502      11.702  15.281  -3.431  1.00146.13    -0.273 OA
HETATM   20  C23 MIQ B 502      10.869  12.282  -4.709  1.00139.15     0.045 C 
ENDBRANCH  10  12
BRANCH   5  21
HETATM   21  N6  MIQ B 502      14.146   5.015  -3.043  1.00140.95    -0.377 N 
HETATM   22  C7  MIQ B 502      13.288   3.878  -2.757  1.00142.12     0.149 C 
HETATM   23  C8  MIQ B 502      13.626   3.233  -1.419  1.00144.10     0.187 C 
HETATM   24  O9  MIQ B 502      14.994   3.004  -1.257  1.00148.65    -0.388 OA
HETATM   25  C10 MIQ B 502      15.914   3.547  -2.157  1.00147.44     0.187 C 
HETATM   26  C11 MIQ B 502      15.576   4.871  -2.836  1.00144.08     0.149 C 
ENDBRANCH   5  21
TORSDOF 2
ENDMDL
MODEL 6
REMARK VINA RESULT:      -6.4      4.156      5.427
REMARK  2 active torsions:
REMARK  status: ('A' for Active; 'I' for Inactive)
REMARK    1  A    between atoms: C5_5  and  N6_21 
REMARK    2  A    between atoms: C18_14  and  N17_19 
ROOT
HETATM    1  O1  MIQ B 502      17.260   4.457  -0.356  1.00142.91    -0.171 OA
HETATM    2  C2  MIQ B 502      16.477   4.755  -1.474  1.00141.17     0.195 A 
HETATM    3  C3  MIQ B 502      16.863   5.722  -2.639  1.00141.71     0.035 A 
HETATM    4  C4  MIQ B 502      18.058   6.553  -2.920  1.00142.86     0.046 A 
HETATM    5  C5  MIQ B 502      18.119   7.347  -4.093  1.00139.53     0.031 A 
HETATM    6  C12 MIQ B 502      17.001   7.344  -5.026  1.00139.38     0.030 A 
HETATM    7  C13 MIQ B 502      15.856   6.546  -4.758  1.00141.18     0.019 A 
HETATM    8  C14 MIQ B 502      15.799   5.713  -3.526  1.00138.77     0.033 A 
HETATM    9  C15 MIQ B 502      14.746   4.735  -2.908  1.00142.10     0.195 A 
HETATM   10  N17 MIQ B 502      15.278   4.292  -1.781  1.00139.42    -0.288 N 
HETATM   11  O16 MIQ B 502      13.500   4.403  -3.442  1.00148.93    -0.171 OA
ENDROOT
BRANCH  10  12
HETATM   12  C18 MIQ B 502      14.566   3.364  -0.922  1.00139.82     0.187 C 
HETATM   13  C19 MIQ B 502      14.257   2.107  -1.745  1.00140.06     0.247 C 
HETATM   14  O25 MIQ B 502      15.130   1.578  -2.337  1.00143.95    -0.271 OA
HETATM   15  N20 MIQ B 502      12.923   1.546  -1.811  1.00140.02    -0.296 N 
HETATM   16  H13 MIQ B 502      12.734   0.729  -2.358  1.00142.77     0.171 HD
HETATM   17  C21 MIQ B 502      11.873   2.216  -1.088  1.00142.22     0.224 C 
HETATM   18  C22 MIQ B 502      11.973   3.725  -0.984  1.00139.52     0.106 C 
HETATM   19  O24 MIQ B 502      10.982   1.615  -0.596  1.00146.13    -0.273 OA
HETATM   20  C23 MIQ B 502      13.316   4.026  -0.344  1.00139.15     0.045 C 
ENDBRANCH  10  12
BRANCH   5  21
HETATM   21  N6  MIQ B 502      19.288   8.167  -4.349  1.00140.95    -0.377 N 
HETATM   22  C7  MIQ B 502      20.507   7.889  -3.608  1.00142.12     0.149 C 
HETATM   23  C8  MIQ B 502      21.384   9.127  -3.471  1.00144.10     0.187 C 
HETATM   24  O9  MIQ B 502      21.561   9.804  -4.679  1.00148.65    -0.388 OA
HETATM   25  C10 MIQ B 502      20.799   9.464  -5.799  1.00147.44     0.187 C 
HETATM   26  C11 MIQ B 502      19.389   8.923  -5.585  1.00144.08     0.149 C 
ENDBRANCH   5  21
TORSDOF 2
ENDMDL
MODEL 7
REMARK VINA RESULT:      -6.3      2.113      8.542
REMARK  2 active torsions:
REMARK  status: ('A' for Active; 'I' for Inactive)
REMARK    1  A    between atoms: C5_5  and  N6_21 
REMARK    2  A    between atoms: C18_14  and  N17_19 
ROOT
HETATM    1  O1  MIQ B 502      13.864   9.989  -1.502  1.00142.91    -0.171 OA
HETATM    2  C2  MIQ B 502      13.557   9.584  -2.803  1.00141.17     0.195 A 
HETATM    3  C3  MIQ B 502      13.533   8.113  -3.329  1.00141.71     0.035 A 
HETATM    4  C4  MIQ B 502      13.796   6.799  -2.695  1.00142.86     0.046 A 
HETATM    5  C5  MIQ B 502      13.690   5.605  -3.451  1.00139.53     0.031 A 
HETATM    6  C12 MIQ B 502      13.321   5.670  -4.858  1.00139.38     0.030 A 
HETATM    7  C13 MIQ B 502      13.068   6.930  -5.466  1.00141.18     0.019 A 
HETATM    8  C14 MIQ B 502      13.179   8.180  -4.667  1.00138.77     0.033 A 
HETATM    9  C15 MIQ B 502      12.980   9.701  -4.972  1.00142.10     0.195 A 
HETATM   10  N17 MIQ B 502      13.225  10.336  -3.838  1.00139.42    -0.288 N 
HETATM   11  O16 MIQ B 502      12.621  10.268  -6.196  1.00148.93    -0.171 OA
ENDROOT
BRANCH  10  12
HETATM   12  C18 MIQ B 502      13.152  11.783  -3.748  1.00139.82     0.187 C 
HETATM   13  C19 MIQ B 502      11.766  12.212  -4.246  1.00140.06     0.247 C 
HETATM   14  O25 MIQ B 502      10.807  11.694  -3.796  1.00143.95    -0.271 OA
HETATM   15  N20 MIQ B 502      11.601  13.243  -5.251  1.00140.02    -0.296 N 
HETATM   16  H13 MIQ B 502      10.691  13.509  -5.572  1.00142.77     0.171 HD
HETATM   17  C21 MIQ B 502      12.788  13.853  -5.792  1.00142.22     0.224 C 
HETATM   18  C22 MIQ B 502      14.012  12.967  -5.920  1.00139.52     0.106 C 
HETATM   19  O24 MIQ B 502      12.806  14.990  -6.115  1.00146.13    -0.273 OA
HETATM   20  C23 MIQ B 502      14.297  12.422  -4.532  1.00139.15     0.045 C 
ENDBRANCH  10  12
BRANCH   5  21
HETATM   21  N6  MIQ B 502      13.965   4.326  -2.821  1.00140.95    -0.377 N 
HETATM   22  C7  MIQ B 502      15.246   4.136  -2.164  1.00142.12     0.149 C 
HETATM   23  C8  MIQ B 502      15.658   2.670  -2.134  1.00144.10     0.187 C 
HETATM   24  O9  MIQ B 502      14.634   1.827  -1.700  1.00148.65    -0.388 OA
HETATM   25  C10 MIQ B 502      13.332   2.312  -1.553  1.00147.44     0.187 C 
HETATM   26  C11 MIQ B 502      12.868   3.443  -2.464  1.00144.08     0.149 C 
ENDBRANCH   5  21
TORSDOF 2
ENDMDL
MODEL 8
REMARK VINA RESULT:      -6.2      2.050      3.558
REMARK  2 active torsions:
REMARK  status: ('A' for Active; 'I' for Inactive)
REMARK    1  A    between atoms: C5_5  and  N6_21 
REMARK    2  A    between atoms: C18_14  and  N17_19 
ROOT
HETATM    1  O1  MIQ B 502      13.459   9.225  -1.398  1.00142.91    -0.171 OA
HETATM    2  C2  MIQ B 502      13.460   8.670  -2.680  1.00141.17     0.195 A 
HETATM    3  C3  MIQ B 502      12.849   9.314  -3.964  1.00141.71     0.035 A 
HETATM    4  C4  MIQ B 502      12.144  10.592  -4.227  1.00142.86     0.046 A 
HETATM    5  C5  MIQ B 502      11.696  10.907  -5.534  1.00139.53     0.031 A 
HETATM    6  C12 MIQ B 502      11.931   9.971  -6.624  1.00139.38     0.030 A 
HETATM    7  C13 MIQ B 502      12.608   8.747  -6.373  1.00141.18     0.019 A 
HETATM    8  C14 MIQ B 502      13.078   8.422  -4.999  1.00138.77     0.033 A 
HETATM    9  C15 MIQ B 502      13.836   7.217  -4.353  1.00142.10     0.195 A 
HETATM   10  N17 MIQ B 502      13.969   7.514  -3.071  1.00139.42    -0.288 N 
HETATM   11  O16 MIQ B 502      14.278   6.063  -5.002  1.00148.93    -0.171 OA
ENDROOT
BRANCH  10  12
HETATM   12  C18 MIQ B 502      14.619   6.604  -2.146  1.00139.82     0.187 C 
HETATM   13  C19 MIQ B 502      15.956   6.183  -2.768  1.00140.06     0.247 C 
HETATM   14  O25 MIQ B 502      16.695   7.013  -3.162  1.00143.95    -0.271 OA
HETATM   15  N20 MIQ B 502      16.341   4.791  -2.880  1.00140.02    -0.296 N 
HETATM   16  H13 MIQ B 502      17.214   4.528  -3.294  1.00142.77     0.171 HD
HETATM   17  C21 MIQ B 502      15.418   3.795  -2.401  1.00142.22     0.224 C 
HETATM   18  C22 MIQ B 502      13.941   4.107  -2.550  1.00139.52     0.106 C 
HETATM   19  O24 MIQ B 502      15.794   2.787  -1.912  1.00146.13    -0.273 OA
HETATM   20  C23 MIQ B 502      13.704   5.422  -1.830  1.00139.15     0.045 C 
ENDBRANCH  10  12
BRANCH   5  21
HETATM   21  N6  MIQ B 502      10.994  12.155  -5.774  1.00140.95    -0.377 N 
HETATM   22  C7  MIQ B 502      11.509  13.370  -5.166  1.00142.12     0.149 C 
HETATM   23  C8  MIQ B 502      10.412  14.404  -4.944  1.00144.10     0.187 C 
HETATM   24  O9  MIQ B 502       9.609  14.594  -6.071  1.00148.65    -0.388 OA
HETATM   25  C10 MIQ B 502       9.708  13.730  -7.164  1.00147.44     0.187 C 
HETATM   26  C11 MIQ B 502      10.101  12.278  -6.913  1.00144.08     0.149 C 
ENDBRANCH   5  21
TORSDOF 2
ENDMDL
MODEL 9
REMARK VINA RESULT:      -6.2      1.580      2.672
REMARK  2 active torsions:
REMARK  status: ('A' for Active; 'I' for Inactive)
REMARK    1  A    between atoms: C5_5  and  N6_21 
REMARK    2  A    between atoms: C18_14  and  N17_19 
ROOT
HETATM    1  O1  MIQ B 502      14.814   7.455   0.031  1.00142.91    -0.171 OA
HETATM    2  C2  MIQ B 502      14.385   7.116  -1.254  1.00141.17     0.195 A 
HETATM    3  C3  MIQ B 502      13.715   8.078  -2.287  1.00141.71     0.035 A 
HETATM    4  C4  MIQ B 502      13.353   9.514  -2.255  1.00142.86     0.046 A 
HETATM    5  C5  MIQ B 502      12.740  10.124  -3.379  1.00139.53     0.031 A 
HETATM    6  C12 MIQ B 502      12.466   9.333  -4.570  1.00139.38     0.030 A 
HETATM    7  C13 MIQ B 502      12.814   7.956  -4.601  1.00141.18     0.019 A 
HETATM    8  C14 MIQ B 502      13.459   7.322  -3.419  1.00138.77     0.033 A 
HETATM    9  C15 MIQ B 502      13.974   5.883  -3.088  1.00142.10     0.195 A 
HETATM   10  N17 MIQ B 502      14.456   5.942  -1.858  1.00139.42    -0.288 N 
HETATM   11  O16 MIQ B 502      13.928   4.766  -3.924  1.00148.93    -0.171 OA
ENDROOT
BRANCH  10  12
HETATM   12  C18 MIQ B 502      15.013   4.771  -1.205  1.00139.82     0.187 C 
HETATM   13  C19 MIQ B 502      16.165   4.254  -2.075  1.00140.06     0.247 C 
HETATM   14  O25 MIQ B 502      17.006   5.005  -2.423  1.00143.95    -0.271 OA
HETATM   15  N20 MIQ B 502      16.255   2.866  -2.478  1.00140.02    -0.296 N 
HETATM   16  H13 MIQ B 502      17.009   2.542  -3.051  1.00142.77     0.171 HD
HETATM   17  C21 MIQ B 502      15.212   1.970  -2.049  1.00142.22     0.224 C 
HETATM   18  C22 MIQ B 502      13.818   2.556  -1.930  1.00139.52     0.106 C 
HETATM   19  O24 MIQ B 502      15.434   0.837  -1.799  1.00146.13    -0.273 OA
HETATM   20  C23 MIQ B 502      13.923   3.726  -0.969  1.00139.15     0.045 C 
ENDBRANCH  10  12
BRANCH   5  21
HETATM   21  N6  MIQ B 502      12.377  11.529  -3.329  1.00140.95    -0.377 N 
HETATM   22  C7  MIQ B 502      11.078  11.929  -3.840  1.00142.12     0.149 C 
HETATM   23  C8  MIQ B 502      11.077  13.375  -4.321  1.00144.10     0.187 C 
HETATM   24  O9  MIQ B 502      11.653  14.253  -3.401  1.00148.65    -0.388 OA
HETATM   25  C10 MIQ B 502      12.346  13.762  -2.291  1.00147.44     0.187 C 
HETATM   26  C11 MIQ B 502      13.065  12.423  -2.415  1.00144.08     0.149 C 
ENDBRANCH   5  21
TORSDOF 2
ENDMDL
