MODEL 1
REMARK VINA RESULT:      -7.4      0.000      0.000
REMARK  2 active torsions:
REMARK  status: ('A' for Active; 'I' for Inactive)
REMARK    1  A    between atoms: C5_5  and  N6_21 
REMARK    2  A    between atoms: C18_14  and  N17_19 
ROOT
HETATM    1  O1  MIQ B 502      15.332  11.434   9.081  1.00142.91    -0.171 OA
HETATM    2  C2  MIQ B 502      14.106  11.130   8.485  1.00141.17     0.195 A 
HETATM    3  C3  MIQ B 502      13.237   9.861   8.758  1.00141.71     0.035 A 
HETATM    4  C4  MIQ B 502      13.402   8.685   9.646  1.00142.86     0.046 A 
HETATM    5  C5  MIQ B 502      12.415   7.667   9.678  1.00139.53     0.031 A 
HETATM    6  C12 MIQ B 502      11.234   7.779   8.833  1.00139.38     0.030 A 
HETATM    7  C13 MIQ B 502      11.076   8.907   7.983  1.00141.18     0.019 A 
HETATM    8  C14 MIQ B 502      12.114   9.973   7.956  1.00138.77     0.033 A 
HETATM    9  C15 MIQ B 502      12.286  11.320   7.181  1.00142.10     0.195 A 
HETATM   10  N17 MIQ B 502      13.434  11.833   7.590  1.00139.42    -0.288 N 
HETATM   11  O16 MIQ B 502      11.404  11.864   6.245  1.00148.93    -0.171 OA
ENDROOT
BRANCH  10  12
HETATM   12  C18 MIQ B 502      13.932  13.091   7.065  1.00139.82     0.187 C 
HETATM   13  C19 MIQ B 502      15.366  12.857   6.574  1.00140.06     0.247 C 
HETATM   14  O25 MIQ B 502      15.585  11.957   5.843  1.00143.95    -0.271 OA
HETATM   15  N20 MIQ B 502      16.461  13.716   6.977  1.00140.02    -0.296 N 
HETATM   16  H13 MIQ B 502      17.394  13.549   6.654  1.00142.77     0.171 HD
HETATM   17  C21 MIQ B 502      16.170  14.802   7.877  1.00142.22     0.224 C 
HETATM   18  C22 MIQ B 502      15.078  14.563   8.902  1.00139.52     0.106 C 
HETATM   19  O24 MIQ B 502      16.751  15.829   7.814  1.00146.13    -0.273 OA
HETATM   20  C23 MIQ B 502      13.831  14.187   8.124  1.00139.15     0.045 C 
ENDBRANCH  10  12
BRANCH   5  21
HETATM   21  N6  MIQ B 502      12.596   6.514  10.541  1.00140.95    -0.377 N 
HETATM   22  C7  MIQ B 502      13.568   5.505  10.157  1.00142.12     0.149 C 
HETATM   23  C8  MIQ B 502      13.220   4.135  10.725  1.00144.10     0.187 C 
HETATM   24  O9  MIQ B 502      12.906   4.174  12.084  1.00148.65    -0.388 OA
HETATM   25  C10 MIQ B 502      12.720   5.398  12.733  1.00147.44     0.187 C 
HETATM   26  C11 MIQ B 502      12.174   6.574  11.929  1.00144.08     0.149 C 
ENDBRANCH   5  21
TORSDOF 2
ENDMDL
MODEL 2
REMARK VINA RESULT:      -7.1      2.548      3.968
REMARK  2 active torsions:
REMARK  status: ('A' for Active; 'I' for Inactive)
REMARK    1  A    between atoms: C5_5  and  N6_21 
REMARK    2  A    between atoms: C18_14  and  N17_19 
ROOT
HETATM    1  O1  MIQ B 502      14.229  11.571   6.689  1.00142.91    -0.171 OA
HETATM    2  C2  MIQ B 502      12.916  11.106   6.788  1.00141.17     0.195 A 
HETATM    3  C3  MIQ B 502      12.429   9.895   7.646  1.00141.71     0.035 A 
HETATM    4  C4  MIQ B 502      13.118   8.940   8.546  1.00142.86     0.046 A 
HETATM    5  C5  MIQ B 502      12.387   7.920   9.204  1.00139.53     0.031 A 
HETATM    6  C12 MIQ B 502      10.951   7.810   8.995  1.00139.38     0.030 A 
HETATM    7  C13 MIQ B 502      10.289   8.726   8.133  1.00141.18     0.019 A 
HETATM    8  C14 MIQ B 502      11.061   9.797   7.446  1.00138.77     0.033 A 
HETATM    9  C15 MIQ B 502      10.698  10.954   6.459  1.00142.10     0.195 A 
HETATM   10  N17 MIQ B 502      11.833  11.581   6.197  1.00139.42    -0.288 N 
HETATM   11  O16 MIQ B 502       9.431  11.257   5.957  1.00148.93    -0.171 OA
ENDROOT
BRANCH  10  12
HETATM   12  C18 MIQ B 502      11.880  12.714   5.293  1.00139.82     0.187 C 
HETATM   13  C19 MIQ B 502      10.850  13.742   5.776  1.00140.06     0.247 C 
HETATM   14  O25 MIQ B 502      10.860  14.080   6.906  1.00143.95    -0.271 OA
HETATM   15  N20 MIQ B 502       9.866  14.316   4.881  1.00140.02    -0.296 N 
HETATM   16  H13 MIQ B 502       9.194  14.981   5.210  1.00142.77     0.171 HD
HETATM   17  C21 MIQ B 502       9.867  13.880   3.508  1.00142.22     0.224 C 
HETATM   18  C22 MIQ B 502      10.263  12.438   3.252  1.00139.52     0.106 C 
HETATM   19  O24 MIQ B 502       9.579  14.612   2.627  1.00146.13    -0.273 OA
HETATM   20  C23 MIQ B 502      11.644  12.257   3.854  1.00139.15     0.045 C 
ENDBRANCH  10  12
BRANCH   5  21
HETATM   21  N6  MIQ B 502      13.078   6.983  10.071  1.00140.95    -0.377 N 
HETATM   22  C7  MIQ B 502      12.869   7.079  11.505  1.00142.12     0.149 C 
HETATM   23  C8  MIQ B 502      14.058   6.541  12.291  1.00144.10     0.187 C 
HETATM   24  O9  MIQ B 502      14.493   5.296  11.834  1.00148.65    -0.388 OA
HETATM   25  C10 MIQ B 502      14.000   4.770  10.637  1.00147.44     0.187 C 
HETATM   26  C11 MIQ B 502      13.589   5.735   9.530  1.00144.08     0.149 C 
ENDBRANCH   5  21
TORSDOF 2
ENDMDL
MODEL 3
REMARK VINA RESULT:      -6.9      1.855      2.970
REMARK  2 active torsions:
REMARK  status: ('A' for Active; 'I' for Inactive)
REMARK    1  A    between atoms: C5_5  and  N6_21 
REMARK    2  A    between atoms: C18_14  and  N17_19 
ROOT
HETATM    1  O1  MIQ B 502       9.928  10.046   8.649  1.00142.91    -0.171 OA
HETATM    2  C2  MIQ B 502      11.283   9.802   8.889  1.00141.17     0.195 A 
HETATM    3  C3  MIQ B 502      11.881   8.553   9.611  1.00141.71     0.035 A 
HETATM    4  C4  MIQ B 502      11.280   7.338  10.212  1.00142.86     0.046 A 
HETATM    5  C5  MIQ B 502      12.105   6.352  10.809  1.00139.53     0.031 A 
HETATM    6  C12 MIQ B 502      13.549   6.533  10.830  1.00139.38     0.030 A 
HETATM    7  C13 MIQ B 502      14.125   7.696  10.253  1.00141.18     0.019 A 
HETATM    8  C14 MIQ B 502      13.255   8.728   9.625  1.00138.77     0.033 A 
HETATM    9  C15 MIQ B 502      13.511  10.094   8.909  1.00142.10     0.195 A 
HETATM   10  N17 MIQ B 502      12.320  10.554   8.563  1.00139.42    -0.288 N 
HETATM   11  O16 MIQ B 502      14.748  10.701   8.684  1.00148.93    -0.171 OA
ENDROOT
BRANCH  10  12
HETATM   12  C18 MIQ B 502      12.168  11.826   7.882  1.00139.82     0.187 C 
HETATM   13  C19 MIQ B 502      13.110  11.824   6.672  1.00140.06     0.247 C 
HETATM   14  O25 MIQ B 502      13.080  10.916   5.920  1.00143.95    -0.271 OA
HETATM   15  N20 MIQ B 502      14.034  12.912   6.422  1.00140.02    -0.296 N 
HETATM   16  H13 MIQ B 502      14.648  12.895   5.632  1.00142.77     0.171 HD
HETATM   17  C21 MIQ B 502      14.059  14.004   7.359  1.00142.22     0.224 C 
HETATM   18  C22 MIQ B 502      13.787  13.662   8.811  1.00139.52     0.106 C 
HETATM   19  O24 MIQ B 502      14.277  15.112   7.011  1.00146.13    -0.273 OA
HETATM   20  C23 MIQ B 502      12.431  12.981   8.847  1.00139.15     0.045 C 
ENDBRANCH  10  12
BRANCH   5  21
HETATM   21  N6  MIQ B 502      11.502   5.174  11.407  1.00140.95    -0.377 N 
HETATM   22  C7  MIQ B 502      10.054   5.061  11.411  1.00142.12     0.149 C 
HETATM   23  C8  MIQ B 502       9.553   4.198  12.562  1.00144.10     0.187 C 
HETATM   24  O9  MIQ B 502      10.247   2.991  12.677  1.00148.65    -0.388 OA
HETATM   25  C10 MIQ B 502      11.411   2.771  11.938  1.00147.44     0.187 C 
HETATM   26  C11 MIQ B 502      12.290   3.967  11.586  1.00144.08     0.149 C 
ENDBRANCH   5  21
TORSDOF 2
ENDMDL
MODEL 4
REMARK VINA RESULT:      -6.9      3.401      4.433
REMARK  2 active torsions:
REMARK  status: ('A' for Active; 'I' for Inactive)
REMARK    1  A    between atoms: C5_5  and  N6_21 
REMARK    2  A    between atoms: C18_14  and  N17_19 
ROOT
HETATM    1  O1  MIQ B 502       8.885  10.001   7.772  1.00142.91    -0.171 OA
HETATM    2  C2  MIQ B 502      10.180  10.032   7.251  1.00141.17     0.195 A 
HETATM    3  C3  MIQ B 502      11.424   9.281   7.825  1.00141.71     0.035 A 
HETATM    4  C4  MIQ B 502      11.624   8.380   8.985  1.00142.86     0.046 A 
HETATM    5  C5  MIQ B 502      12.905   7.837   9.257  1.00139.53     0.031 A 
HETATM    6  C12 MIQ B 502      14.029   8.166   8.392  1.00139.38     0.030 A 
HETATM    7  C13 MIQ B 502      13.837   9.029   7.279  1.00141.18     0.019 A 
HETATM    8  C14 MIQ B 502      12.489   9.594   6.997  1.00138.77     0.033 A 
HETATM    9  C15 MIQ B 502      11.904  10.545   5.902  1.00142.10     0.195 A 
HETATM   10  N17 MIQ B 502      10.619  10.682   6.186  1.00139.42    -0.288 N 
HETATM   11  O16 MIQ B 502      12.601  11.130   4.843  1.00148.93    -0.171 OA
ENDROOT
BRANCH  10  12
HETATM   12  C18 MIQ B 502       9.750  11.519   5.380  1.00139.82     0.187 C 
HETATM   13  C19 MIQ B 502       9.928  11.103   3.915  1.00140.06     0.247 C 
HETATM   14  O25 MIQ B 502       9.835   9.963   3.624  1.00143.95    -0.271 OA
HETATM   15  N20 MIQ B 502      10.201  12.072   2.874  1.00140.02    -0.296 N 
HETATM   16  H13 MIQ B 502      10.322  11.787   1.922  1.00142.77     0.171 HD
HETATM   17  C21 MIQ B 502      10.320  13.456   3.255  1.00142.22     0.224 C 
HETATM   18  C22 MIQ B 502      10.915  13.738   4.621  1.00139.52     0.106 C 
HETATM   19  O24 MIQ B 502       9.966  14.327   2.539  1.00146.13    -0.273 OA
HETATM   20  C23 MIQ B 502      10.055  12.995   5.628  1.00139.15     0.045 C 
ENDBRANCH  10  12
BRANCH   5  21
HETATM   21  N6  MIQ B 502      13.090   6.968  10.405  1.00140.95    -0.377 N 
HETATM   22  C7  MIQ B 502      12.421   7.308  11.649  1.00142.12     0.149 C 
HETATM   23  C8  MIQ B 502      13.161   6.759  12.862  1.00144.10     0.187 C 
HETATM   24  O9  MIQ B 502      13.512   5.415  12.721  1.00148.65    -0.388 OA
HETATM   25  C10 MIQ B 502      13.379   4.774  11.487  1.00147.44     0.187 C 
HETATM   26  C11 MIQ B 502      13.540   5.600  10.215  1.00144.08     0.149 C 
ENDBRANCH   5  21
TORSDOF 2
ENDMDL
MODEL 5
REMARK VINA RESULT:      -6.8      2.708      4.156
REMARK  2 active torsions:
REMARK  status: ('A' for Active; 'I' for Inactive)
REMARK    1  A    between atoms: C5_5  and  N6_21 
REMARK    2  A    between atoms: C18_14  and  N17_19 
ROOT
HETATM    1  O1  MIQ B 502      10.020  10.471   7.669  1.00142.91    -0.171 OA
HETATM    2  C2  MIQ B 502      11.398  10.250   7.734  1.00141.17     0.195 A 
HETATM    3  C3  MIQ B 502      12.135   9.315   8.745  1.00141.71     0.035 A 
HETATM    4  C4  MIQ B 502      11.672   8.442   9.850  1.00142.86     0.046 A 
HETATM    5  C5  MIQ B 502      12.605   7.692  10.610  1.00139.53     0.031 A 
HETATM    6  C12 MIQ B 502      14.025   7.780  10.301  1.00139.38     0.030 A 
HETATM    7  C13 MIQ B 502      14.469   8.616   9.241  1.00141.18     0.019 A 
HETATM    8  C14 MIQ B 502      13.485   9.399   8.445  1.00138.77     0.033 A 
HETATM    9  C15 MIQ B 502      13.586  10.391   7.241  1.00142.10     0.195 A 
HETATM   10  N17 MIQ B 502      12.347  10.766   6.971  1.00139.42    -0.288 N 
HETATM   11  O16 MIQ B 502      14.752  10.798   6.589  1.00148.93    -0.171 OA
ENDROOT
BRANCH  10  12
HETATM   12  C18 MIQ B 502      12.055  11.709   5.908  1.00139.82     0.187 C 
HETATM   13  C19 MIQ B 502      11.252  12.865   6.516  1.00140.06     0.247 C 
HETATM   14  O25 MIQ B 502      11.660  13.404   7.482  1.00143.95    -0.271 OA
HETATM   15  N20 MIQ B 502      10.007  13.320   5.932  1.00140.02    -0.296 N 
HETATM   16  H13 MIQ B 502       9.489  14.072   6.342  1.00142.77     0.171 HD
HETATM   17  C21 MIQ B 502       9.524  12.640   4.758  1.00142.22     0.224 C 
HETATM   18  C22 MIQ B 502       9.820  11.156   4.661  1.00139.52     0.106 C 
HETATM   19  O24 MIQ B 502       8.931  13.213   3.912  1.00146.13    -0.273 OA
HETATM   20  C23 MIQ B 502      11.327  11.009   4.761  1.00139.15     0.045 C 
ENDBRANCH  10  12
BRANCH   5  21
HETATM   21  N6  MIQ B 502      12.139   6.854  11.699  1.00140.95    -0.377 N 
HETATM   22  C7  MIQ B 502      11.494   5.592  11.377  1.00142.12     0.149 C 
HETATM   23  C8  MIQ B 502      10.525   5.155  12.468  1.00144.10     0.187 C 
HETATM   24  O9  MIQ B 502      11.076   5.233  13.748  1.00148.65    -0.388 OA
HETATM   25  C10 MIQ B 502      12.301   5.874  13.953  1.00147.44     0.187 C 
HETATM   26  C11 MIQ B 502      12.682   7.031  13.035  1.00144.08     0.149 C 
ENDBRANCH   5  21
TORSDOF 2
ENDMDL
MODEL 6
REMARK VINA RESULT:      -6.8      2.974      4.414
REMARK  2 active torsions:
REMARK  status: ('A' for Active; 'I' for Inactive)
REMARK    1  A    between atoms: C5_5  and  N6_21 
REMARK    2  A    between atoms: C18_14  and  N17_19 
ROOT
HETATM    1  O1  MIQ B 502      10.503   9.027   8.171  1.00142.91    -0.171 OA
HETATM    2  C2  MIQ B 502      11.762   8.834   8.744  1.00141.17     0.195 A 
HETATM    3  C3  MIQ B 502      12.146   7.722   9.772  1.00141.71     0.035 A 
HETATM    4  C4  MIQ B 502      11.389   6.620  10.412  1.00142.86     0.046 A 
HETATM    5  C5  MIQ B 502      12.030   5.749  11.329  1.00139.53     0.031 A 
HETATM    6  C12 MIQ B 502      13.438   5.939  11.643  1.00139.38     0.030 A 
HETATM    7  C13 MIQ B 502      14.165   6.995  11.029  1.00141.18     0.019 A 
HETATM    8  C14 MIQ B 502      13.488   7.905  10.065  1.00138.77     0.033 A 
HETATM    9  C15 MIQ B 502      13.939   9.136   9.214  1.00142.10     0.195 A 
HETATM   10  N17 MIQ B 502      12.869   9.527   8.541  1.00139.42    -0.288 N 
HETATM   11  O16 MIQ B 502      15.213   9.705   9.177  1.00148.93    -0.171 OA
ENDROOT
BRANCH  10  12
HETATM   12  C18 MIQ B 502      12.912  10.669   7.647  1.00139.82     0.187 C 
HETATM   13  C19 MIQ B 502      11.765  11.610   8.035  1.00140.06     0.247 C 
HETATM   14  O25 MIQ B 502      11.644  11.937   9.162  1.00143.95    -0.271 OA
HETATM   15  N20 MIQ B 502      10.826  12.115   7.055  1.00140.02    -0.296 N 
HETATM   16  H13 MIQ B 502      10.077  12.723   7.322  1.00142.77     0.171 HD
HETATM   17  C21 MIQ B 502      10.987  11.693   5.687  1.00142.22     0.224 C 
HETATM   18  C22 MIQ B 502      11.515  10.289   5.465  1.00139.52     0.106 C 
HETATM   19  O24 MIQ B 502      10.725  12.409   4.784  1.00146.13    -0.273 OA
HETATM   20  C23 MIQ B 502      12.845  10.209   6.192  1.00139.15     0.045 C 
ENDBRANCH  10  12
BRANCH   5  21
HETATM   21  N6  MIQ B 502      11.272   4.683  11.959  1.00140.95    -0.377 N 
HETATM   22  C7  MIQ B 502       9.829   4.667  11.797  1.00142.12     0.149 C 
HETATM   23  C8  MIQ B 502       9.134   3.962  12.955  1.00144.10     0.187 C 
HETATM   24  O9  MIQ B 502       9.714   2.731  13.269  1.00148.65    -0.388 OA
HETATM   25  C10 MIQ B 502      10.935   2.358  12.701  1.00147.44     0.187 C 
HETATM   26  C11 MIQ B 502      11.938   3.451  12.346  1.00144.08     0.149 C 
ENDBRANCH   5  21
TORSDOF 2
ENDMDL
MODEL 7
REMARK VINA RESULT:      -6.7      2.838      7.921
REMARK  2 active torsions:
REMARK  status: ('A' for Active; 'I' for Inactive)
REMARK    1  A    between atoms: C5_5  and  N6_21 
REMARK    2  A    between atoms: C18_14  and  N17_19 
ROOT
HETATM    1  O1  MIQ B 502      11.187   7.453   9.500  1.00142.91    -0.171 OA
HETATM    2  C2  MIQ B 502      12.314   8.252   9.294  1.00141.17     0.195 A 
HETATM    3  C3  MIQ B 502      12.398   9.507   8.368  1.00141.71     0.035 A 
HETATM    4  C4  MIQ B 502      11.417  10.197   7.497  1.00142.86     0.046 A 
HETATM    5  C5  MIQ B 502      11.799  11.346   6.759  1.00139.53     0.031 A 
HETATM    6  C12 MIQ B 502      13.161  11.850   6.859  1.00139.38     0.030 A 
HETATM    7  C13 MIQ B 502      14.101  11.189   7.695  1.00141.18     0.019 A 
HETATM    8  C14 MIQ B 502      13.694   9.985   8.469  1.00138.77     0.033 A 
HETATM    9  C15 MIQ B 502      14.419   9.021   9.464  1.00142.10     0.195 A 
HETATM   10  N17 MIQ B 502      13.517   8.124   9.827  1.00139.42    -0.288 N 
HETATM   11  O16 MIQ B 502      15.750   9.095   9.880  1.00148.93    -0.171 OA
ENDROOT
BRANCH  10  12
HETATM   12  C18 MIQ B 502      13.845   7.049  10.745  1.00139.82     0.187 C 
HETATM   13  C19 MIQ B 502      13.387   5.732  10.105  1.00140.06     0.247 C 
HETATM   14  O25 MIQ B 502      13.717   5.484   9.000  1.00143.95    -0.271 OA
HETATM   15  N20 MIQ B 502      12.565   4.779  10.822  1.00140.02    -0.296 N 
HETATM   16  H13 MIQ B 502      12.267   3.927  10.390  1.00142.77     0.171 HD
HETATM   17  C21 MIQ B 502      12.166   5.110  12.166  1.00142.22     0.224 C 
HETATM   18  C22 MIQ B 502      11.927   6.577  12.464  1.00139.52     0.106 C 
HETATM   19  O24 MIQ B 502      12.038   4.277  12.995  1.00146.13    -0.273 OA
HETATM   20  C23 MIQ B 502      13.212   7.304  12.111  1.00139.15     0.045 C 
ENDBRANCH  10  12
BRANCH   5  21
HETATM   21  N6  MIQ B 502      10.832  12.004   5.898  1.00140.95    -0.377 N 
HETATM   22  C7  MIQ B 502       9.675  11.249   5.450  1.00142.12     0.149 C 
HETATM   23  C8  MIQ B 502       9.133  11.771   4.125  1.00144.10     0.187 C 
HETATM   24  O9  MIQ B 502       8.984  13.159   4.108  1.00148.65    -0.388 OA
HETATM   25  C10 MIQ B 502       9.514  13.941   5.138  1.00147.44     0.187 C 
HETATM   26  C11 MIQ B 502      10.773  13.454   5.849  1.00144.08     0.149 C 
ENDBRANCH   5  21
TORSDOF 2
ENDMDL
MODEL 8
REMARK VINA RESULT:      -6.6     20.878     23.278
REMARK  2 active torsions:
REMARK  status: ('A' for Active; 'I' for Inactive)
REMARK    1  A    between atoms: C5_5  and  N6_21 
REMARK    2  A    between atoms: C18_14  and  N17_19 
ROOT
HETATM    1  O1  MIQ B 502      -4.524  25.705  10.178  1.00142.91    -0.171 OA
HETATM    2  C2  MIQ B 502      -4.826  24.361   9.946  1.00141.17     0.195 A 
HETATM    3  C3  MIQ B 502      -4.046  23.390   9.003  1.00141.71     0.035 A 
HETATM    4  C4  MIQ B 502      -2.854  23.550   8.137  1.00142.86     0.046 A 
HETATM    5  C5  MIQ B 502      -2.366  22.456   7.379  1.00139.53     0.031 A 
HETATM    6  C12 MIQ B 502      -3.041  21.168   7.454  1.00139.38     0.030 A 
HETATM    7  C13 MIQ B 502      -4.183  21.014   8.285  1.00141.18     0.019 A 
HETATM    8  C14 MIQ B 502      -4.689  22.166   9.080  1.00138.77     0.033 A 
HETATM    9  C15 MIQ B 502      -5.875  22.378  10.076  1.00142.10     0.195 A 
HETATM   10  N17 MIQ B 502      -5.806  23.641  10.463  1.00139.42    -0.288 N 
HETATM   11  O16 MIQ B 502      -6.815  21.424  10.472  1.00148.93    -0.171 OA
ENDROOT
BRANCH  10  12
HETATM   12  C18 MIQ B 502      -6.771  24.203  11.390  1.00139.82     0.187 C 
HETATM   13  C19 MIQ B 502      -7.376  25.451  10.735  1.00140.06     0.247 C 
HETATM   14  O25 MIQ B 502      -7.809  25.375   9.641  1.00143.95    -0.271 OA
HETATM   15  N20 MIQ B 502      -7.436  26.723  11.426  1.00140.02    -0.296 N 
HETATM   16  H13 MIQ B 502      -7.827  27.532  10.985  1.00142.77     0.171 HD
HETATM   17  C21 MIQ B 502      -6.891  26.793  12.758  1.00142.22     0.224 C 
HETATM   18  C22 MIQ B 502      -5.690  25.915  13.050  1.00139.52     0.106 C 
HETATM   19  O24 MIQ B 502      -7.363  27.497  13.582  1.00146.13    -0.273 OA
HETATM   20  C23 MIQ B 502      -6.110  24.491  12.737  1.00139.15     0.045 C 
ENDBRANCH  10  12
BRANCH   5  21
HETATM   21  N6  MIQ B 502      -1.207  22.630   6.524  1.00140.95    -0.377 N 
HETATM   22  C7  MIQ B 502      -1.006  23.917   5.879  1.00142.12     0.149 C 
HETATM   23  C8  MIQ B 502      -0.209  23.788   4.587  1.00144.10     0.187 C 
HETATM   24  O9  MIQ B 502       0.940  23.008   4.733  1.00148.65    -0.388 OA
HETATM   25  C10 MIQ B 502       1.148  22.266   5.898  1.00147.44     0.187 C 
HETATM   26  C11 MIQ B 502      -0.067  21.739   6.654  1.00144.08     0.149 C 
ENDBRANCH   5  21
TORSDOF 2
ENDMDL
MODEL 9
REMARK VINA RESULT:      -6.5      2.774      4.926
REMARK  2 active torsions:
REMARK  status: ('A' for Active; 'I' for Inactive)
REMARK    1  A    between atoms: C5_5  and  N6_21 
REMARK    2  A    between atoms: C18_14  and  N17_19 
ROOT
HETATM    1  O1  MIQ B 502      16.955  11.499   5.728  1.00142.91    -0.171 OA
HETATM    2  C2  MIQ B 502      16.370  12.497   6.511  1.00141.17     0.195 A 
HETATM    3  C3  MIQ B 502      15.012  12.391   7.276  1.00141.71     0.035 A 
HETATM    4  C4  MIQ B 502      14.001  11.316   7.414  1.00142.86     0.046 A 
HETATM    5  C5  MIQ B 502      12.838  11.522   8.198  1.00139.53     0.031 A 
HETATM    6  C12 MIQ B 502      12.637  12.797   8.871  1.00139.38     0.030 A 
HETATM    7  C13 MIQ B 502      13.607  13.828   8.740  1.00141.18     0.019 A 
HETATM    8  C14 MIQ B 502      14.827  13.605   7.917  1.00138.77     0.033 A 
HETATM    9  C15 MIQ B 502      16.077  14.468   7.550  1.00142.10     0.195 A 
HETATM   10  N17 MIQ B 502      16.830  13.708   6.771  1.00139.42    -0.288 N 
HETATM   11  O16 MIQ B 502      16.340  15.777   7.960  1.00148.93    -0.171 OA
ENDROOT
BRANCH  10  12
HETATM   12  C18 MIQ B 502      18.081  14.194   6.220  1.00139.82     0.187 C 
HETATM   13  C19 MIQ B 502      18.051  13.950   4.706  1.00140.06     0.247 C 
HETATM   14  O25 MIQ B 502      17.121  14.321   4.082  1.00143.95    -0.271 OA
HETATM   15  N20 MIQ B 502      19.136  13.282   4.018  1.00140.02    -0.296 N 
HETATM   16  H13 MIQ B 502      19.101  13.123   3.030  1.00142.77     0.171 HD
HETATM   17  C21 MIQ B 502      20.255  12.830   4.803  1.00142.22     0.224 C 
HETATM   18  C22 MIQ B 502      19.954  12.363   6.214  1.00139.52     0.106 C 
HETATM   19  O24 MIQ B 502      21.355  12.828   4.369  1.00146.13    -0.273 OA
HETATM   20  C23 MIQ B 502      19.265  13.521   6.913  1.00139.15     0.045 C 
ENDBRANCH  10  12
BRANCH   5  21
HETATM   21  N6  MIQ B 502      11.849  10.465   8.313  1.00140.95    -0.377 N 
HETATM   22  C7  MIQ B 502      12.162   9.307   9.132  1.00142.12     0.149 C 
HETATM   23  C8  MIQ B 502      11.406   8.067   8.676  1.00144.10     0.187 C 
HETATM   24  O9  MIQ B 502      10.045   8.304   8.472  1.00148.65    -0.388 OA
HETATM   25  C10 MIQ B 502       9.546   9.609   8.475  1.00147.44     0.187 C 
HETATM   26  C11 MIQ B 502      10.456  10.739   8.007  1.00144.08     0.149 C 
ENDBRANCH   5  21
TORSDOF 2
ENDMDL
