MODEL 1
REMARK VINA RESULT:      -6.1      0.000      0.000
REMARK  2 active torsions:
REMARK  status: ('A' for Active; 'I' for Inactive)
REMARK    1  A    between atoms: C5_5  and  N6_21 
REMARK    2  A    between atoms: C18_14  and  N17_19 
ROOT
HETATM    1  O1  MIQ B 502     -17.845 -22.765  -4.010  1.00142.91    -0.171 OA
HETATM    2  C2  MIQ B 502     -16.489 -22.439  -3.946  1.00141.17     0.195 A 
HETATM    3  C3  MIQ B 502     -15.807 -21.197  -4.602  1.00141.71     0.035 A 
HETATM    4  C4  MIQ B 502     -16.314 -20.070  -5.421  1.00142.86     0.046 A 
HETATM    5  C5  MIQ B 502     -15.428 -19.064  -5.883  1.00139.53     0.031 A 
HETATM    6  C12 MIQ B 502     -14.012 -19.141  -5.552  1.00139.38     0.030 A 
HETATM    7  C13 MIQ B 502     -13.526 -20.220  -4.767  1.00141.18     0.019 A 
HETATM    8  C14 MIQ B 502     -14.461 -21.272  -4.281  1.00138.77     0.033 A 
HETATM    9  C15 MIQ B 502     -14.307 -22.568  -3.420  1.00142.10     0.195 A 
HETATM   10  N17 MIQ B 502     -15.519 -23.091  -3.328  1.00139.42    -0.288 N 
HETATM   11  O16 MIQ B 502     -13.128 -23.068  -2.866  1.00148.93    -0.171 OA
ENDROOT
BRANCH  10  12
HETATM   12  C18 MIQ B 502     -15.757 -24.326  -2.604  1.00139.82     0.187 C 
HETATM   13  C19 MIQ B 502     -15.155 -24.170  -1.202  1.00140.06     0.247 C 
HETATM   14  O25 MIQ B 502     -15.432 -23.221  -0.558  1.00143.95    -0.271 OA
HETATM   15  N20 MIQ B 502     -14.257 -25.159  -0.643  1.00140.02    -0.296 N 
HETATM   16  H13 MIQ B 502     -13.865 -25.043   0.271  1.00142.77     0.171 HD
HETATM   17  C21 MIQ B 502     -13.925 -26.304  -1.452  1.00142.22     0.224 C 
HETATM   18  C22 MIQ B 502     -13.842 -26.078  -2.949  1.00139.52     0.106 C 
HETATM   19  O24 MIQ B 502     -13.733 -27.366  -0.971  1.00146.13    -0.273 OA
HETATM   20  C23 MIQ B 502     -15.185 -25.514  -3.376  1.00139.15     0.045 C 
ENDBRANCH  10  12
BRANCH   5  21
HETATM   21  N6  MIQ B 502     -15.935 -17.974  -6.696  1.00140.95    -0.377 N 
HETATM   22  C7  MIQ B 502     -15.003 -17.242  -7.536  1.00142.12     0.149 C 
HETATM   23  C8  MIQ B 502     -15.475 -15.817  -7.801  1.00144.10     0.187 C 
HETATM   24  O9  MIQ B 502     -16.812 -15.752  -8.195  1.00148.65    -0.388 OA
HETATM   25  C10 MIQ B 502     -17.632 -16.880  -8.107  1.00147.44     0.187 C 
HETATM   26  C11 MIQ B 502     -17.352 -17.902  -7.010  1.00144.08     0.149 C 
ENDBRANCH   5  21
TORSDOF 2
ENDMDL
MODEL 2
REMARK VINA RESULT:      -6.1     16.404     18.848
REMARK  2 active torsions:
REMARK  status: ('A' for Active; 'I' for Inactive)
REMARK    1  A    between atoms: C5_5  and  N6_21 
REMARK    2  A    between atoms: C18_14  and  N17_19 
ROOT
HETATM    1  O1  MIQ B 502      -2.271 -20.448 -13.236  1.00142.91    -0.171 OA
HETATM    2  C2  MIQ B 502      -1.250 -21.255 -13.743  1.00141.17     0.195 A 
HETATM    3  C3  MIQ B 502      -0.021 -21.798 -12.946  1.00141.71     0.035 A 
HETATM    4  C4  MIQ B 502       0.424 -21.658 -11.540  1.00142.86     0.046 A 
HETATM    5  C5  MIQ B 502       1.616 -22.287 -11.099  1.00139.53     0.031 A 
HETATM    6  C12 MIQ B 502       2.405 -23.075 -12.034  1.00139.38     0.030 A 
HETATM    7  C13 MIQ B 502       1.978 -23.211 -13.383  1.00141.18     0.019 A 
HETATM    8  C14 MIQ B 502       0.725 -22.550 -13.839  1.00138.77     0.033 A 
HETATM    9  C15 MIQ B 502      -0.045 -22.474 -15.198  1.00142.10     0.195 A 
HETATM   10  N17 MIQ B 502      -1.112 -21.724 -14.971  1.00139.42    -0.288 N 
HETATM   11  O16 MIQ B 502       0.324 -23.074 -16.403  1.00148.93    -0.171 OA
ENDROOT
BRANCH  10  12
HETATM   12  C18 MIQ B 502      -2.062 -21.421 -16.025  1.00139.82     0.187 C 
HETATM   13  C19 MIQ B 502      -2.240 -19.898 -16.070  1.00140.06     0.247 C 
HETATM   14  O25 MIQ B 502      -1.285 -19.208 -16.126  1.00143.95    -0.271 OA
HETATM   15  N20 MIQ B 502      -3.551 -19.282 -16.052  1.00140.02    -0.296 N 
HETATM   16  H13 MIQ B 502      -3.653 -18.287 -16.075  1.00142.77     0.171 HD
HETATM   17  C21 MIQ B 502      -4.701 -20.145 -15.973  1.00142.22     0.224 C 
HETATM   18  C22 MIQ B 502      -4.539 -21.425 -15.176  1.00139.52     0.106 C 
HETATM   19  O24 MIQ B 502      -5.718 -19.870 -16.508  1.00146.13    -0.273 OA
HETATM   20  C23 MIQ B 502      -3.371 -22.173 -15.794  1.00139.15     0.045 C 
ENDBRANCH  10  12
BRANCH   5  21
HETATM   21  N6  MIQ B 502       2.047 -22.129  -9.722  1.00140.95    -0.377 N 
HETATM   22  C7  MIQ B 502       2.883 -23.161  -9.133  1.00142.12     0.149 C 
HETATM   23  C8  MIQ B 502       2.726 -23.225  -7.619  1.00144.10     0.187 C 
HETATM   24  O9  MIQ B 502       2.810 -21.971  -7.011  1.00148.65    -0.388 OA
HETATM   25  C10 MIQ B 502       2.800 -20.807  -7.784  1.00147.44     0.187 C 
HETATM   26  C11 MIQ B 502       2.035 -20.815  -9.104  1.00144.08     0.149 C 
ENDBRANCH   5  21
TORSDOF 2
ENDMDL
MODEL 3
REMARK VINA RESULT:      -6.0      5.930      7.860
REMARK  2 active torsions:
REMARK  status: ('A' for Active; 'I' for Inactive)
REMARK    1  A    between atoms: C5_5  and  N6_21 
REMARK    2  A    between atoms: C18_14  and  N17_19 
ROOT
HETATM    1  O1  MIQ B 502     -18.537 -17.838  -1.746  1.00142.91    -0.171 OA
HETATM    2  C2  MIQ B 502     -17.195 -17.823  -2.133  1.00141.17     0.195 A 
HETATM    3  C3  MIQ B 502     -16.007 -17.220  -1.318  1.00141.71     0.035 A 
HETATM    4  C4  MIQ B 502     -15.913 -16.539  -0.005  1.00142.86     0.046 A 
HETATM    5  C5  MIQ B 502     -14.659 -16.093   0.484  1.00139.53     0.031 A 
HETATM    6  C12 MIQ B 502     -13.458 -16.305  -0.310  1.00139.38     0.030 A 
HETATM    7  C13 MIQ B 502     -13.547 -16.958  -1.569  1.00141.18     0.019 A 
HETATM    8  C14 MIQ B 502     -14.866 -17.427  -2.076  1.00138.77     0.033 A 
HETATM    9  C15 MIQ B 502     -15.348 -18.164  -3.368  1.00142.10     0.195 A 
HETATM   10  N17 MIQ B 502     -16.657 -18.307  -3.239  1.00139.42    -0.288 N 
HETATM   11  O16 MIQ B 502     -14.555 -18.580  -4.438  1.00148.93    -0.171 OA
ENDROOT
BRANCH  10  12
HETATM   12  C18 MIQ B 502     -17.454 -18.943  -4.271  1.00139.82     0.187 C 
HETATM   13  C19 MIQ B 502     -16.811 -20.298  -4.590  1.00140.06     0.247 C 
HETATM   14  O25 MIQ B 502     -16.562 -21.040  -3.707  1.00143.95    -0.271 OA
HETATM   15  N20 MIQ B 502     -16.506 -20.698  -5.948  1.00140.02    -0.296 N 
HETATM   16  H13 MIQ B 502     -16.080 -21.583  -6.143  1.00142.77     0.171 HD
HETATM   17  C21 MIQ B 502     -16.810 -19.772  -7.009  1.00142.22     0.224 C 
HETATM   18  C22 MIQ B 502     -16.671 -18.297  -6.685  1.00139.52     0.106 C 
HETATM   19  O24 MIQ B 502     -17.155 -20.146  -8.075  1.00146.13    -0.273 OA
HETATM   20  C23 MIQ B 502     -17.570 -18.031  -5.491  1.00139.15     0.045 C 
ENDBRANCH  10  12
BRANCH   5  21
HETATM   21  N6  MIQ B 502     -14.585 -15.415   1.765  1.00140.95    -0.377 N 
HETATM   22  C7  MIQ B 502     -15.668 -14.525   2.144  1.00142.12     0.149 C 
HETATM   23  C8  MIQ B 502     -15.204 -13.443   3.111  1.00144.10     0.187 C 
HETATM   24  O9  MIQ B 502     -14.449 -13.949   4.170  1.00148.65    -0.388 OA
HETATM   25  C10 MIQ B 502     -14.006 -15.274   4.155  1.00147.44     0.187 C 
HETATM   26  C11 MIQ B 502     -13.717 -15.931   2.809  1.00144.08     0.149 C 
ENDBRANCH   5  21
TORSDOF 2
ENDMDL
MODEL 4
REMARK VINA RESULT:      -6.0      6.075      7.514
REMARK  2 active torsions:
REMARK  status: ('A' for Active; 'I' for Inactive)
REMARK    1  A    between atoms: C5_5  and  N6_21 
REMARK    2  A    between atoms: C18_14  and  N17_19 
ROOT
HETATM    1  O1  MIQ B 502     -18.079 -18.202   0.037  1.00142.91    -0.171 OA
HETATM    2  C2  MIQ B 502     -16.854 -17.753  -0.463  1.00141.17     0.195 A 
HETATM    3  C3  MIQ B 502     -16.206 -18.165  -1.823  1.00141.71     0.035 A 
HETATM    4  C4  MIQ B 502     -16.627 -19.069  -2.920  1.00142.86     0.046 A 
HETATM    5  C5  MIQ B 502     -15.803 -19.243  -4.061  1.00139.53     0.031 A 
HETATM    6  C12 MIQ B 502     -14.538 -18.530  -4.154  1.00139.38     0.030 A 
HETATM    7  C13 MIQ B 502     -14.134 -17.663  -3.103  1.00141.18     0.019 A 
HETATM    8  C14 MIQ B 502     -15.004 -17.482  -1.909  1.00138.77     0.033 A 
HETATM    9  C15 MIQ B 502     -14.906 -16.639  -0.595  1.00142.10     0.195 A 
HETATM   10  N17 MIQ B 502     -16.007 -16.902   0.090  1.00139.42    -0.288 N 
HETATM   11  O16 MIQ B 502     -13.864 -15.788  -0.224  1.00148.93    -0.171 OA
ENDROOT
BRANCH  10  12
HETATM   12  C18 MIQ B 502     -16.253 -16.300   1.387  1.00139.82     0.187 C 
HETATM   13  C19 MIQ B 502     -16.130 -14.780   1.229  1.00140.06     0.247 C 
HETATM   14  O25 MIQ B 502     -16.733 -14.239   0.371  1.00143.95    -0.271 OA
HETATM   15  N20 MIQ B 502     -15.296 -13.986   2.108  1.00140.02    -0.296 N 
HETATM   16  H13 MIQ B 502     -15.219 -12.995   1.990  1.00142.77     0.171 HD
HETATM   17  C21 MIQ B 502     -14.561 -14.670   3.140  1.00142.22     0.224 C 
HETATM   18  C22 MIQ B 502     -14.071 -16.067   2.816  1.00139.52     0.106 C 
HETATM   19  O24 MIQ B 502     -14.357 -14.166   4.190  1.00146.13    -0.273 OA
HETATM   20  C23 MIQ B 502     -15.297 -16.876   2.430  1.00139.15     0.045 C 
ENDBRANCH  10  12
BRANCH   5  21
HETATM   21  N6  MIQ B 502     -16.221 -20.143  -5.121  1.00140.95    -0.377 N 
HETATM   22  C7  MIQ B 502     -16.453 -19.594  -6.446  1.00142.12     0.149 C 
HETATM   23  C8  MIQ B 502     -17.453 -20.426  -7.239  1.00144.10     0.187 C 
HETATM   24  O9  MIQ B 502     -17.173 -21.794  -7.200  1.00148.65    -0.388 OA
HETATM   25  C10 MIQ B 502     -16.211 -22.294  -6.319  1.00147.44     0.187 C 
HETATM   26  C11 MIQ B 502     -15.985 -21.570  -4.996  1.00144.08     0.149 C 
ENDBRANCH   5  21
TORSDOF 2
ENDMDL
MODEL 5
REMARK VINA RESULT:      -5.9      4.608      8.341
REMARK  2 active torsions:
REMARK  status: ('A' for Active; 'I' for Inactive)
REMARK    1  A    between atoms: C5_5  and  N6_21 
REMARK    2  A    between atoms: C18_14  and  N17_19 
ROOT
HETATM    1  O1  MIQ B 502     -19.139 -18.372  -6.600  1.00142.91    -0.171 OA
HETATM    2  C2  MIQ B 502     -17.765 -18.176  -6.751  1.00141.17     0.195 A 
HETATM    3  C3  MIQ B 502     -16.703 -18.162  -5.605  1.00141.71     0.035 A 
HETATM    4  C4  MIQ B 502     -16.788 -18.336  -4.136  1.00142.86     0.046 A 
HETATM    5  C5  MIQ B 502     -15.618 -18.270  -3.338  1.00139.53     0.031 A 
HETATM    6  C12 MIQ B 502     -14.327 -18.032  -3.967  1.00139.38     0.030 A 
HETATM    7  C13 MIQ B 502     -14.245 -17.866  -5.376  1.00141.18     0.019 A 
HETATM    8  C14 MIQ B 502     -15.476 -17.938  -6.209  1.00138.77     0.033 A 
HETATM    9  C15 MIQ B 502     -15.778 -17.813  -7.738  1.00142.10     0.195 A 
HETATM   10  N17 MIQ B 502     -17.085 -17.971  -7.867  1.00139.42    -0.288 N 
HETATM   11  O16 MIQ B 502     -14.852 -17.579  -8.756  1.00148.93    -0.171 OA
ENDROOT
BRANCH  10  12
HETATM   12  C18 MIQ B 502     -17.732 -17.900  -9.163  1.00139.82     0.187 C 
HETATM   13  C19 MIQ B 502     -18.869 -16.876  -9.064  1.00140.06     0.247 C 
HETATM   14  O25 MIQ B 502     -18.641 -15.804  -8.626  1.00143.95    -0.271 OA
HETATM   15  N20 MIQ B 502     -20.216 -17.185  -9.498  1.00140.02    -0.296 N 
HETATM   16  H13 MIQ B 502     -20.950 -16.509  -9.421  1.00142.77     0.171 HD
HETATM   17  C21 MIQ B 502     -20.471 -18.503 -10.018  1.00142.22     0.224 C 
HETATM   18  C22 MIQ B 502     -19.673 -19.641  -9.413  1.00139.52     0.106 C 
HETATM   19  O24 MIQ B 502     -21.260 -18.685 -10.879  1.00146.13    -0.273 OA
HETATM   20  C23 MIQ B 502     -18.208 -19.286  -9.596  1.00139.15     0.045 C 
ENDBRANCH  10  12
BRANCH   5  21
HETATM   21  N6  MIQ B 502     -15.718 -18.428  -1.898  1.00140.95    -0.377 N 
HETATM   22  C7  MIQ B 502     -15.293 -17.329  -1.048  1.00142.12     0.149 C 
HETATM   23  C8  MIQ B 502     -14.842 -17.813   0.324  1.00144.10     0.187 C 
HETATM   24  O9  MIQ B 502     -15.742 -18.705   0.908  1.00148.65    -0.388 OA
HETATM   25  C10 MIQ B 502     -16.799 -19.235   0.162  1.00147.44     0.187 C 
HETATM   26  C11 MIQ B 502     -16.606 -19.431  -1.338  1.00144.08     0.149 C 
ENDBRANCH   5  21
TORSDOF 2
ENDMDL
MODEL 6
REMARK VINA RESULT:      -5.9     16.734     19.169
REMARK  2 active torsions:
REMARK  status: ('A' for Active; 'I' for Inactive)
REMARK    1  A    between atoms: C5_5  and  N6_21 
REMARK    2  A    between atoms: C18_14  and  N17_19 
ROOT
HETATM    1  O1  MIQ B 502      -2.107 -20.411 -12.978  1.00142.91    -0.171 OA
HETATM    2  C2  MIQ B 502      -1.194 -19.840 -13.868  1.00141.17     0.195 A 
HETATM    3  C3  MIQ B 502       0.339 -19.658 -13.625  1.00141.71     0.035 A 
HETATM    4  C4  MIQ B 502       1.239 -19.995 -12.497  1.00142.86     0.046 A 
HETATM    5  C5  MIQ B 502       2.623 -19.700 -12.572  1.00139.53     0.031 A 
HETATM    6  C12 MIQ B 502       3.163 -19.063 -13.765  1.00139.38     0.030 A 
HETATM    7  C13 MIQ B 502       2.300 -18.741 -14.847  1.00141.18     0.019 A 
HETATM    8  C14 MIQ B 502       0.848 -19.056 -14.764  1.00138.77     0.033 A 
HETATM    9  C15 MIQ B 502      -0.375 -18.863 -15.719  1.00142.10     0.195 A 
HETATM   10  N17 MIQ B 502      -1.422 -19.351 -15.074  1.00139.42    -0.288 N 
HETATM   11  O16 MIQ B 502      -0.360 -18.290 -16.991  1.00148.93    -0.171 OA
ENDROOT
BRANCH  10  12
HETATM   12  C18 MIQ B 502      -2.750 -19.326 -15.658  1.00139.82     0.187 C 
HETATM   13  C19 MIQ B 502      -3.637 -18.447 -14.768  1.00140.06     0.247 C 
HETATM   14  O25 MIQ B 502      -3.266 -17.367 -14.472  1.00143.95    -0.271 OA
HETATM   15  N20 MIQ B 502      -4.923 -18.904 -14.282  1.00140.02    -0.296 N 
HETATM   16  H13 MIQ B 502      -5.489 -18.323 -13.696  1.00142.77     0.171 HD
HETATM   17  C21 MIQ B 502      -5.350 -20.230 -14.647  1.00142.22     0.224 C 
HETATM   18  C22 MIQ B 502      -4.264 -21.280 -14.792  1.00139.52     0.106 C 
HETATM   19  O24 MIQ B 502      -6.489 -20.484 -14.830  1.00146.13    -0.273 OA
HETATM   20  C23 MIQ B 502      -3.285 -20.748 -15.823  1.00139.15     0.045 C 
ENDBRANCH  10  12
BRANCH   5  21
HETATM   21  N6  MIQ B 502       3.491 -20.021 -11.453  1.00140.95    -0.377 N 
HETATM   22  C7  MIQ B 502       2.985 -20.899 -10.412  1.00142.12     0.149 C 
HETATM   23  C8  MIQ B 502       3.667 -20.645  -9.073  1.00144.10     0.187 C 
HETATM   24  O9  MIQ B 502       5.058 -20.580  -9.176  1.00148.65    -0.388 OA
HETATM   25  C10 MIQ B 502       5.673 -20.525 -10.429  1.00147.44     0.187 C 
HETATM   26  C11 MIQ B 502       4.928 -19.856 -11.579  1.00144.08     0.149 C 
ENDBRANCH   5  21
TORSDOF 2
ENDMDL
MODEL 7
REMARK VINA RESULT:      -5.8      5.227      7.978
REMARK  2 active torsions:
REMARK  status: ('A' for Active; 'I' for Inactive)
REMARK    1  A    between atoms: C5_5  and  N6_21 
REMARK    2  A    between atoms: C18_14  and  N17_19 
ROOT
HETATM    1  O1  MIQ B 502     -19.400 -18.410  -4.394  1.00142.91    -0.171 OA
HETATM    2  C2  MIQ B 502     -18.077 -18.339  -4.835  1.00141.17     0.195 A 
HETATM    3  C3  MIQ B 502     -16.821 -18.074  -3.944  1.00141.71     0.035 A 
HETATM    4  C4  MIQ B 502     -16.633 -17.839  -2.493  1.00142.86     0.046 A 
HETATM    5  C5  MIQ B 502     -15.335 -17.625  -1.964  1.00139.53     0.031 A 
HETATM    6  C12 MIQ B 502     -14.181 -17.638  -2.853  1.00139.38     0.030 A 
HETATM    7  C13 MIQ B 502     -14.362 -17.864  -4.244  1.00141.18     0.019 A 
HETATM    8  C14 MIQ B 502     -15.727 -18.091  -4.793  1.00138.77     0.033 A 
HETATM    9  C15 MIQ B 502     -16.306 -18.368  -6.219  1.00142.10     0.195 A 
HETATM   10  N17 MIQ B 502     -17.615 -18.482  -6.065  1.00139.42    -0.288 N 
HETATM   11  O16 MIQ B 502     -15.584 -18.470  -7.409  1.00148.93    -0.171 OA
ENDROOT
BRANCH  10  12
HETATM   12  C18 MIQ B 502     -18.491 -18.729  -7.195  1.00139.82     0.187 C 
HETATM   13  C19 MIQ B 502     -17.912 -19.907  -7.988  1.00140.06     0.247 C 
HETATM   14  O25 MIQ B 502     -17.635 -20.903  -7.419  1.00143.95    -0.271 OA
HETATM   15  N20 MIQ B 502     -17.700 -19.834  -9.419  1.00140.02    -0.296 N 
HETATM   16  H13 MIQ B 502     -17.314 -20.607  -9.924  1.00142.77     0.171 HD
HETATM   17  C21 MIQ B 502     -18.036 -18.604 -10.088  1.00142.22     0.224 C 
HETATM   18  C22 MIQ B 502     -17.832 -17.322  -9.303  1.00139.52     0.106 C 
HETATM   19  O24 MIQ B 502     -18.455 -18.596 -11.193  1.00146.13    -0.273 OA
HETATM   20  C23 MIQ B 502     -18.650 -17.461  -8.032  1.00139.15     0.045 C 
ENDBRANCH  10  12
BRANCH   5  21
HETATM   21  N6  MIQ B 502     -15.166 -17.382  -0.543  1.00140.95    -0.377 N 
HETATM   22  C7  MIQ B 502     -15.557 -18.423   0.391  1.00142.12     0.149 C 
HETATM   23  C8  MIQ B 502     -15.939 -17.853   1.751  1.00144.10     0.187 C 
HETATM   24  O9  MIQ B 502     -15.007 -16.934   2.237  1.00148.65    -0.388 OA
HETATM   25  C10 MIQ B 502     -13.984 -16.460   1.411  1.00147.44     0.187 C 
HETATM   26  C11 MIQ B 502     -14.246 -16.354  -0.088  1.00144.08     0.149 C 
ENDBRANCH   5  21
TORSDOF 2
ENDMDL
MODEL 8
REMARK VINA RESULT:      -5.8     17.675     19.819
REMARK  2 active torsions:
REMARK  status: ('A' for Active; 'I' for Inactive)
REMARK    1  A    between atoms: C5_5  and  N6_21 
REMARK    2  A    between atoms: C18_14  and  N17_19 
ROOT
HETATM    1  O1  MIQ B 502      -0.405 -18.274 -17.232  1.00142.91    -0.171 OA
HETATM    2  C2  MIQ B 502      -0.422 -18.732 -15.913  1.00141.17     0.195 A 
HETATM    3  C3  MIQ B 502       0.809 -18.837 -14.957  1.00141.71     0.035 A 
HETATM    4  C4  MIQ B 502       2.248 -18.516 -15.110  1.00142.86     0.046 A 
HETATM    5  C5  MIQ B 502       3.146 -18.722 -14.033  1.00139.53     0.031 A 
HETATM    6  C12 MIQ B 502       2.651 -19.251 -12.770  1.00139.38     0.030 A 
HETATM    7  C13 MIQ B 502       1.272 -19.557 -12.622  1.00141.18     0.019 A 
HETATM    8  C14 MIQ B 502       0.332 -19.336 -13.756  1.00138.77     0.033 A 
HETATM    9  C15 MIQ B 502      -1.203 -19.543 -13.967  1.00142.10     0.195 A 
HETATM   10  N17 MIQ B 502      -1.456 -19.160 -15.208  1.00139.42    -0.288 N 
HETATM   11  O16 MIQ B 502      -2.116 -20.035 -13.033  1.00148.93    -0.171 OA
ENDROOT
BRANCH  10  12
HETATM   12  C18 MIQ B 502      -2.794 -19.228 -15.764  1.00139.82     0.187 C 
HETATM   13  C19 MIQ B 502      -3.708 -18.361 -14.891  1.00140.06     0.247 C 
HETATM   14  O25 MIQ B 502      -3.389 -17.252 -14.647  1.00143.95    -0.271 OA
HETATM   15  N20 MIQ B 502      -4.959 -18.864 -14.360  1.00140.02    -0.296 N 
HETATM   16  H13 MIQ B 502      -5.544 -18.289 -13.785  1.00142.77     0.171 HD
HETATM   17  C21 MIQ B 502      -5.322 -20.224 -14.662  1.00142.22     0.224 C 
HETATM   18  C22 MIQ B 502      -4.186 -21.220 -14.788  1.00139.52     0.106 C 
HETATM   19  O24 MIQ B 502      -6.450 -20.544 -14.810  1.00146.13    -0.273 OA
HETATM   20  C23 MIQ B 502      -3.256 -20.682 -15.860  1.00139.15     0.045 C 
ENDBRANCH  10  12
BRANCH   5  21
HETATM   21  N6  MIQ B 502       4.556 -18.418 -14.201  1.00140.95    -0.377 N 
HETATM   22  C7  MIQ B 502       4.960 -17.605 -15.335  1.00142.12     0.149 C 
HETATM   23  C8  MIQ B 502       6.395 -17.891 -15.758  1.00144.10     0.187 C 
HETATM   24  O9  MIQ B 502       7.286 -17.902 -14.683  1.00148.65    -0.388 OA
HETATM   25  C10 MIQ B 502       6.811 -17.881 -13.369  1.00147.44     0.187 C 
HETATM   26  C11 MIQ B 502       5.462 -18.527 -13.071  1.00144.08     0.149 C 
ENDBRANCH   5  21
TORSDOF 2
ENDMDL
MODEL 9
REMARK VINA RESULT:      -5.7      4.450      8.466
REMARK  2 active torsions:
REMARK  status: ('A' for Active; 'I' for Inactive)
REMARK    1  A    between atoms: C5_5  and  N6_21 
REMARK    2  A    between atoms: C18_14  and  N17_19 
ROOT
HETATM    1  O1  MIQ B 502     -16.960 -20.097  -9.042  1.00142.91    -0.171 OA
HETATM    2  C2  MIQ B 502     -17.117 -20.812  -7.853  1.00141.17     0.195 A 
HETATM    3  C3  MIQ B 502     -17.201 -22.366  -7.715  1.00141.71     0.035 A 
HETATM    4  C4  MIQ B 502     -17.146 -23.480  -8.691  1.00142.86     0.046 A 
HETATM    5  C5  MIQ B 502     -17.251 -24.824  -8.252  1.00139.53     0.031 A 
HETATM    6  C12 MIQ B 502     -17.415 -25.109  -6.834  1.00139.38     0.030 A 
HETATM    7  C13 MIQ B 502     -17.467 -24.042  -5.897  1.00141.18     0.019 A 
HETATM    8  C14 MIQ B 502     -17.353 -22.633  -6.364  1.00138.77     0.033 A 
HETATM    9  C15 MIQ B 502     -17.363 -21.237  -5.659  1.00142.10     0.195 A 
HETATM   10  N17 MIQ B 502     -17.220 -20.341  -6.622  1.00139.42    -0.288 N 
HETATM   11  O16 MIQ B 502     -17.497 -20.993  -4.292  1.00148.93    -0.171 OA
ENDROOT
BRANCH  10  12
HETATM   12  C18 MIQ B 502     -17.200 -18.919  -6.336  1.00139.82     0.187 C 
HETATM   13  C19 MIQ B 502     -18.148 -18.229  -7.324  1.00140.06     0.247 C 
HETATM   14  O25 MIQ B 502     -19.248 -18.638  -7.448  1.00143.95    -0.271 OA
HETATM   15  N20 MIQ B 502     -17.733 -17.084  -8.108  1.00140.02    -0.296 N 
HETATM   16  H13 MIQ B 502     -18.360 -16.647  -8.755  1.00142.77     0.171 HD
HETATM   17  C21 MIQ B 502     -16.383 -16.610  -7.947  1.00142.22     0.224 C 
HETATM   18  C22 MIQ B 502     -15.324 -17.655  -7.655  1.00139.52     0.106 C 
HETATM   19  O24 MIQ B 502     -16.117 -15.461  -8.033  1.00146.13    -0.273 OA
HETATM   20  C23 MIQ B 502     -15.771 -18.383  -6.400  1.00139.15     0.045 C 
ENDBRANCH  10  12
BRANCH   5  21
HETATM   21  N6  MIQ B 502     -17.210 -25.904  -9.220  1.00140.95    -0.377 N 
HETATM   22  C7  MIQ B 502     -16.481 -25.699 -10.460  1.00142.12     0.149 C 
HETATM   23  C8  MIQ B 502     -17.025 -26.564 -11.590  1.00144.10     0.187 C 
HETATM   24  O9  MIQ B 502     -17.202 -27.897 -11.216  1.00148.65    -0.388 OA
HETATM   25  C10 MIQ B 502     -17.098 -28.276  -9.875  1.00147.44     0.187 C 
HETATM   26  C11 MIQ B 502     -17.487 -27.267  -8.800  1.00144.08     0.149 C 
ENDBRANCH   5  21
TORSDOF 2
ENDMDL
