MODEL 1
REMARK VINA RESULT:      -6.9      0.000      0.000
REMARK  2 active torsions:
REMARK  status: ('A' for Active; 'I' for Inactive)
REMARK    1  A    between atoms: C5_5  and  N6_21 
REMARK    2  A    between atoms: C18_14  and  N17_19 
ROOT
HETATM    1  O1  MIQ B 502       7.184   5.314  23.959  1.00142.91    -0.171 OA
HETATM    2  C2  MIQ B 502       7.418   4.831  22.669  1.00141.17     0.195 A 
HETATM    3  C3  MIQ B 502       6.485   3.878  21.857  1.00141.71     0.035 A 
HETATM    4  C4  MIQ B 502       5.179   3.239  22.149  1.00142.86     0.046 A 
HETATM    5  C5  MIQ B 502       4.560   2.403  21.186  1.00139.53     0.031 A 
HETATM    6  C12 MIQ B 502       5.211   2.172  19.904  1.00139.38     0.030 A 
HETATM    7  C13 MIQ B 502       6.461   2.786  19.624  1.00141.18     0.019 A 
HETATM    8  C14 MIQ B 502       7.106   3.664  20.638  1.00138.77     0.033 A 
HETATM    9  C15 MIQ B 502       8.432   4.490  20.692  1.00142.10     0.195 A 
HETATM   10  N17 MIQ B 502       8.450   5.075  21.879  1.00139.42    -0.288 N 
HETATM   11  O16 MIQ B 502       9.400   4.584  19.691  1.00148.93    -0.171 OA
ENDROOT
BRANCH  10  12
HETATM   12  C18 MIQ B 502       9.555   5.920  22.290  1.00139.82     0.187 C 
HETATM   13  C19 MIQ B 502      10.049   5.415  23.651  1.00140.06     0.247 C 
HETATM   14  O25 MIQ B 502      10.297   4.269  23.785  1.00143.95    -0.271 OA
HETATM   15  N20 MIQ B 502      10.225   6.307  24.779  1.00140.02    -0.296 N 
HETATM   16  H13 MIQ B 502      10.542   5.963  25.664  1.00142.77     0.171 HD
HETATM   17  C21 MIQ B 502       9.906   7.699  24.594  1.00142.22     0.224 C 
HETATM   18  C22 MIQ B 502       8.765   8.016  23.647  1.00139.52     0.106 C 
HETATM   19  O24 MIQ B 502      10.508   8.550  25.151  1.00146.13    -0.273 OA
HETATM   20  C23 MIQ B 502       9.124   7.386  22.313  1.00139.15     0.045 C 
ENDBRANCH  10  12
BRANCH   5  21
HETATM   21  N6  MIQ B 502       3.289   1.771  21.490  1.00140.95    -0.377 N 
HETATM   22  C7  MIQ B 502       3.291   0.396  21.957  1.00142.12     0.149 C 
HETATM   23  C8  MIQ B 502       1.988  -0.320  21.625  1.00144.10     0.187 C 
HETATM   24  O9  MIQ B 502       0.857   0.424  21.965  1.00148.65    -0.388 OA
HETATM   25  C10 MIQ B 502       0.979   1.764  22.345  1.00147.44     0.187 C 
HETATM   26  C11 MIQ B 502       2.117   2.588  21.754  1.00144.08     0.149 C 
ENDBRANCH   5  21
TORSDOF 2
ENDMDL
MODEL 2
REMARK VINA RESULT:      -6.8     18.428     21.736
REMARK  2 active torsions:
REMARK  status: ('A' for Active; 'I' for Inactive)
REMARK    1  A    between atoms: C5_5  and  N6_21 
REMARK    2  A    between atoms: C18_14  and  N17_19 
ROOT
HETATM    1  O1  MIQ B 502     -10.268  11.250   9.330  1.00142.91    -0.171 OA
HETATM    2  C2  MIQ B 502     -10.151  11.634  10.668  1.00141.17     0.195 A 
HETATM    3  C3  MIQ B 502      -9.180  11.014  11.724  1.00141.71     0.035 A 
HETATM    4  C4  MIQ B 502      -8.168   9.933  11.666  1.00142.86     0.046 A 
HETATM    5  C5  MIQ B 502      -7.421   9.588  12.821  1.00139.53     0.031 A 
HETATM    6  C12 MIQ B 502      -7.651  10.300  14.069  1.00139.38     0.030 A 
HETATM    7  C13 MIQ B 502      -8.621  11.337  14.125  1.00141.18     0.019 A 
HETATM    8  C14 MIQ B 502      -9.400  11.697  12.909  1.00138.77     0.033 A 
HETATM    9  C15 MIQ B 502     -10.513  12.747  12.587  1.00142.10     0.195 A 
HETATM   10  N17 MIQ B 502     -10.814  12.581  11.310  1.00139.42    -0.288 N 
HETATM   11  O16 MIQ B 502     -11.074  13.668  13.473  1.00148.93    -0.171 OA
ENDROOT
BRANCH  10  12
HETATM   12  C18 MIQ B 502     -11.833  13.384  10.661  1.00139.82     0.187 C 
HETATM   13  C19 MIQ B 502     -12.777  12.431   9.917  1.00140.06     0.247 C 
HETATM   14  O25 MIQ B 502     -13.242  11.514  10.495  1.00143.95    -0.271 OA
HETATM   15  N20 MIQ B 502     -13.120  12.629   8.524  1.00140.02    -0.296 N 
HETATM   16  H13 MIQ B 502     -13.732  11.996   8.048  1.00142.77     0.171 HD
HETATM   17  C21 MIQ B 502     -12.532  13.750   7.837  1.00142.22     0.224 C 
HETATM   18  C22 MIQ B 502     -11.130  14.147   8.256  1.00139.52     0.106 C 
HETATM   19  O24 MIQ B 502     -13.118  14.334   6.993  1.00146.13    -0.273 OA
HETATM   20  C23 MIQ B 502     -11.188  14.425   9.747  1.00139.15     0.045 C 
ENDBRANCH  10  12
BRANCH   5  21
HETATM   21  N6  MIQ B 502      -6.443   8.517  12.753  1.00140.95    -0.377 N 
HETATM   22  C7  MIQ B 502      -6.917   7.153  12.597  1.00142.12     0.149 C 
HETATM   23  C8  MIQ B 502      -5.934   6.141  13.171  1.00144.10     0.187 C 
HETATM   24  O9  MIQ B 502      -4.619   6.367  12.759  1.00148.65    -0.388 OA
HETATM   25  C10 MIQ B 502      -4.279   7.546  12.091  1.00147.44     0.187 C 
HETATM   26  C11 MIQ B 502      -5.065   8.815  12.404  1.00144.08     0.149 C 
ENDBRANCH   5  21
TORSDOF 2
ENDMDL
MODEL 3
REMARK VINA RESULT:      -6.4     19.671     22.083
REMARK  2 active torsions:
REMARK  status: ('A' for Active; 'I' for Inactive)
REMARK    1  A    between atoms: C5_5  and  N6_21 
REMARK    2  A    between atoms: C18_14  and  N17_19 
ROOT
HETATM    1  O1  MIQ B 502      -9.492  15.015  13.657  1.00142.91    -0.171 OA
HETATM    2  C2  MIQ B 502      -9.476  13.724  13.125  1.00141.17     0.195 A 
HETATM    3  C3  MIQ B 502      -9.976  13.304  11.706  1.00141.71     0.035 A 
HETATM    4  C4  MIQ B 502     -10.567  14.053  10.572  1.00142.86     0.046 A 
HETATM    5  C5  MIQ B 502     -10.928  13.378   9.378  1.00139.53     0.031 A 
HETATM    6  C12 MIQ B 502     -10.717  11.942   9.268  1.00139.38     0.030 A 
HETATM    7  C13 MIQ B 502     -10.150  11.224  10.355  1.00141.18     0.019 A 
HETATM    8  C14 MIQ B 502      -9.770  11.938  11.605  1.00138.77     0.033 A 
HETATM    9  C15 MIQ B 502      -9.138  11.507  12.968  1.00142.10     0.195 A 
HETATM   10  N17 MIQ B 502      -9.041  12.611  13.691  1.00139.42    -0.288 N 
HETATM   11  O16 MIQ B 502      -8.757  10.217  13.343  1.00148.93    -0.171 OA
ENDROOT
BRANCH  10  12
HETATM   12  C18 MIQ B 502      -8.506  12.588  15.040  1.00139.82     0.187 C 
HETATM   13  C19 MIQ B 502      -9.559  13.203  15.971  1.00140.06     0.247 C 
HETATM   14  O25 MIQ B 502     -10.667  12.802  15.931  1.00143.95    -0.271 OA
HETATM   15  N20 MIQ B 502      -9.228  14.260  16.905  1.00140.02    -0.296 N 
HETATM   16  H13 MIQ B 502      -9.926  14.657  17.503  1.00142.77     0.171 HD
HETATM   17  C21 MIQ B 502      -7.870  14.739  16.928  1.00142.22     0.224 C 
HETATM   18  C22 MIQ B 502      -7.125  14.740  15.607  1.00139.52     0.106 C 
HETATM   19  O24 MIQ B 502      -7.362  15.108  17.930  1.00146.13    -0.273 OA
HETATM   20  C23 MIQ B 502      -7.162  13.313  15.090  1.00139.15     0.045 C 
ENDBRANCH  10  12
BRANCH   5  21
HETATM   21  N6  MIQ B 502     -11.520  14.121   8.281  1.00140.95    -0.377 N 
HETATM   22  C7  MIQ B 502     -12.964  14.274   8.244  1.00142.12     0.149 C 
HETATM   23  C8  MIQ B 502     -13.479  14.465   6.823  1.00144.10     0.187 C 
HETATM   24  O9  MIQ B 502     -12.759  15.425   6.109  1.00148.65    -0.388 OA
HETATM   25  C10 MIQ B 502     -11.565  15.940   6.620  1.00147.44     0.187 C 
HETATM   26  C11 MIQ B 502     -10.707  15.046   7.510  1.00144.08     0.149 C 
ENDBRANCH   5  21
TORSDOF 2
ENDMDL
MODEL 4
REMARK VINA RESULT:      -6.3      2.256      7.663
REMARK  2 active torsions:
REMARK  status: ('A' for Active; 'I' for Inactive)
REMARK    1  A    between atoms: C5_5  and  N6_21 
REMARK    2  A    between atoms: C18_14  and  N17_19 
ROOT
HETATM    1  O1  MIQ B 502       5.350   2.628  23.570  1.00142.91    -0.171 OA
HETATM    2  C2  MIQ B 502       5.927   3.072  22.378  1.00141.17     0.195 A 
HETATM    3  C3  MIQ B 502       6.735   4.394  22.181  1.00141.71     0.035 A 
HETATM    4  C4  MIQ B 502       7.121   5.498  23.092  1.00142.86     0.046 A 
HETATM    5  C5  MIQ B 502       7.879   6.595  22.608  1.00139.53     0.031 A 
HETATM    6  C12 MIQ B 502       8.280   6.635  21.209  1.00139.38     0.030 A 
HETATM    7  C13 MIQ B 502       7.911   5.576  20.336  1.00141.18     0.019 A 
HETATM    8  C14 MIQ B 502       7.117   4.426  20.850  1.00138.77     0.033 A 
HETATM    9  C15 MIQ B 502       6.544   3.116  20.218  1.00142.10     0.195 A 
HETATM   10  N17 MIQ B 502       5.918   2.482  21.195  1.00139.42    -0.288 N 
HETATM   11  O16 MIQ B 502       6.668   2.706  18.889  1.00148.93    -0.171 OA
ENDROOT
BRANCH  10  12
HETATM   12  C18 MIQ B 502       5.243   1.218  20.968  1.00139.82     0.187 C 
HETATM   13  C19 MIQ B 502       3.823   1.338  21.535  1.00140.06     0.247 C 
HETATM   14  O25 MIQ B 502       3.154   2.258  21.222  1.00143.95    -0.271 OA
HETATM   15  N20 MIQ B 502       3.276   0.350  22.441  1.00140.02    -0.296 N 
HETATM   16  H13 MIQ B 502       2.350   0.443  22.809  1.00142.77     0.171 HD
HETATM   17  C21 MIQ B 502       4.116  -0.758  22.817  1.00142.22     0.224 C 
HETATM   18  C22 MIQ B 502       5.602  -0.479  22.929  1.00139.52     0.106 C 
HETATM   19  O24 MIQ B 502       3.667  -1.832  23.022  1.00146.13    -0.273 OA
HETATM   20  C23 MIQ B 502       6.041   0.070  21.584  1.00139.15     0.045 C 
ENDBRANCH  10  12
BRANCH   5  21
HETATM   21  N6  MIQ B 502       8.237   7.676  23.508  1.00140.95    -0.377 N 
HETATM   22  C7  MIQ B 502       7.353   7.975  24.621  1.00142.12     0.149 C 
HETATM   23  C8  MIQ B 502       7.463   9.430  25.059  1.00144.10     0.187 C 
HETATM   24  O9  MIQ B 502       8.784   9.852  25.216  1.00148.65    -0.388 OA
HETATM   25  C10 MIQ B 502       9.840   9.051  24.775  1.00147.44     0.187 C 
HETATM   26  C11 MIQ B 502       9.612   8.139  23.574  1.00144.08     0.149 C 
ENDBRANCH   5  21
TORSDOF 2
ENDMDL
MODEL 5
REMARK VINA RESULT:      -6.2     18.048     21.518
REMARK  2 active torsions:
REMARK  status: ('A' for Active; 'I' for Inactive)
REMARK    1  A    between atoms: C5_5  and  N6_21 
REMARK    2  A    between atoms: C18_14  and  N17_19 
ROOT
HETATM    1  O1  MIQ B 502      -9.787  12.284  10.850  1.00142.91    -0.171 OA
HETATM    2  C2  MIQ B 502     -10.396  11.132  11.353  1.00141.17     0.195 A 
HETATM    3  C3  MIQ B 502      -9.664   9.847  11.856  1.00141.71     0.035 A 
HETATM    4  C4  MIQ B 502      -8.237   9.463  11.961  1.00142.86     0.046 A 
HETATM    5  C5  MIQ B 502      -7.873   8.192  12.474  1.00139.53     0.031 A 
HETATM    6  C12 MIQ B 502      -8.908   7.261  12.901  1.00139.38     0.030 A 
HETATM    7  C13 MIQ B 502     -10.276   7.630  12.801  1.00141.18     0.019 A 
HETATM    8  C14 MIQ B 502     -10.653   8.966  12.264  1.00138.77     0.033 A 
HETATM    9  C15 MIQ B 502     -12.005   9.709  12.013  1.00142.10     0.195 A 
HETATM   10  N17 MIQ B 502     -11.686  10.890  11.511  1.00139.42    -0.288 N 
HETATM   11  O16 MIQ B 502     -13.288   9.218  12.266  1.00148.93    -0.171 OA
ENDROOT
BRANCH  10  12
HETATM   12  C18 MIQ B 502     -12.703  11.855  11.137  1.00139.82     0.187 C 
HETATM   13  C19 MIQ B 502     -12.461  12.247   9.674  1.00140.06     0.247 C 
HETATM   14  O25 MIQ B 502     -12.339  11.399   8.863  1.00143.95    -0.271 OA
HETATM   15  N20 MIQ B 502     -12.384  13.632   9.258  1.00140.02    -0.296 N 
HETATM   16  H13 MIQ B 502     -12.219  13.875   8.301  1.00142.77     0.171 HD
HETATM   17  C21 MIQ B 502     -12.526  14.649  10.268  1.00142.22     0.224 C 
HETATM   18  C22 MIQ B 502     -11.984  14.321  11.646  1.00139.52     0.106 C 
HETATM   19  O24 MIQ B 502     -13.044  15.685  10.033  1.00146.13    -0.273 OA
HETATM   20  C23 MIQ B 502     -12.681  13.048  12.091  1.00139.15     0.045 C 
ENDBRANCH  10  12
BRANCH   5  21
HETATM   21  N6  MIQ B 502      -6.471   7.823  12.558  1.00140.95    -0.377 N 
HETATM   22  C7  MIQ B 502      -6.098   6.447  12.280  1.00142.12     0.149 C 
HETATM   23  C8  MIQ B 502      -4.813   6.050  12.995  1.00144.10     0.187 C 
HETATM   24  O9  MIQ B 502      -3.791   6.989  12.838  1.00148.65    -0.388 OA
HETATM   25  C10 MIQ B 502      -4.060   8.240  12.276  1.00147.44     0.187 C 
HETATM   26  C11 MIQ B 502      -5.445   8.847  12.475  1.00144.08     0.149 C 
ENDBRANCH   5  21
TORSDOF 2
ENDMDL
MODEL 6
REMARK VINA RESULT:      -6.1     17.060     20.712
REMARK  2 active torsions:
REMARK  status: ('A' for Active; 'I' for Inactive)
REMARK    1  A    between atoms: C5_5  and  N6_21 
REMARK    2  A    between atoms: C18_14  and  N17_19 
ROOT
HETATM    1  O1  MIQ B 502     -11.292   9.120  12.099  1.00142.91    -0.171 OA
HETATM    2  C2  MIQ B 502     -10.326  10.109  12.299  1.00141.17     0.195 A 
HETATM    3  C3  MIQ B 502      -8.789   9.877  12.456  1.00141.71     0.035 A 
HETATM    4  C4  MIQ B 502      -7.934   8.667  12.442  1.00142.86     0.046 A 
HETATM    5  C5  MIQ B 502      -6.531   8.778  12.613  1.00139.53     0.031 A 
HETATM    6  C12 MIQ B 502      -5.928  10.090  12.803  1.00139.38     0.030 A 
HETATM    7  C13 MIQ B 502      -6.747  11.251  12.815  1.00141.18     0.019 A 
HETATM    8  C14 MIQ B 502      -8.219  11.128  12.632  1.00138.77     0.033 A 
HETATM    9  C15 MIQ B 502      -9.409  12.141  12.584  1.00142.10     0.195 A 
HETATM   10  N17 MIQ B 502     -10.499  11.416  12.392  1.00139.42    -0.288 N 
HETATM   11  O16 MIQ B 502      -9.332  13.528  12.720  1.00148.93    -0.171 OA
ENDROOT
BRANCH  10  12
HETATM   12  C18 MIQ B 502     -11.811  12.029  12.309  1.00139.82     0.187 C 
HETATM   13  C19 MIQ B 502     -12.725  11.315  13.313  1.00140.06     0.247 C 
HETATM   14  O25 MIQ B 502     -12.366  11.190  14.430  1.00143.95    -0.271 OA
HETATM   15  N20 MIQ B 502     -14.021  10.793  12.930  1.00140.02    -0.296 N 
HETATM   16  H13 MIQ B 502     -14.604  10.323  13.594  1.00142.77     0.171 HD
HETATM   17  C21 MIQ B 502     -14.432  10.948  11.559  1.00142.22     0.224 C 
HETATM   18  C22 MIQ B 502     -13.338  10.894  10.510  1.00139.52     0.106 C 
HETATM   19  O24 MIQ B 502     -15.565  11.115  11.269  1.00146.13    -0.273 OA
HETATM   20  C23 MIQ B 502     -12.335  11.973  10.875  1.00139.15     0.045 C 
ENDBRANCH  10  12
BRANCH   5  21
HETATM   21  N6  MIQ B 502      -5.708   7.583  12.613  1.00140.95    -0.377 N 
HETATM   22  C7  MIQ B 502      -6.361   6.289  12.708  1.00142.12     0.149 C 
HETATM   23  C8  MIQ B 502      -5.452   5.236  13.329  1.00144.10     0.187 C 
HETATM   24  O9  MIQ B 502      -4.175   5.220  12.764  1.00148.65    -0.388 OA
HETATM   25  C10 MIQ B 502      -3.772   6.239  11.897  1.00147.44     0.187 C 
HETATM   26  C11 MIQ B 502      -4.353   7.635  12.092  1.00144.08     0.149 C 
ENDBRANCH   5  21
TORSDOF 2
ENDMDL
MODEL 7
REMARK VINA RESULT:      -6.1     12.796     15.418
REMARK  2 active torsions:
REMARK  status: ('A' for Active; 'I' for Inactive)
REMARK    1  A    between atoms: C5_5  and  N6_21 
REMARK    2  A    between atoms: C18_14  and  N17_19 
ROOT
HETATM    1  O1  MIQ B 502      -4.826   2.268  18.493  1.00142.91    -0.171 OA
HETATM    2  C2  MIQ B 502      -5.922   1.913  17.704  1.00141.17     0.195 A 
HETATM    3  C3  MIQ B 502      -6.400   2.641  16.407  1.00141.71     0.035 A 
HETATM    4  C4  MIQ B 502      -5.904   3.821  15.659  1.00142.86     0.046 A 
HETATM    5  C5  MIQ B 502      -6.567   4.254  14.483  1.00139.53     0.031 A 
HETATM    6  C12 MIQ B 502      -7.739   3.534  14.008  1.00139.38     0.030 A 
HETATM    7  C13 MIQ B 502      -8.214   2.402  14.724  1.00141.18     0.019 A 
HETATM    8  C14 MIQ B 502      -7.514   1.951  15.957  1.00138.77     0.033 A 
HETATM    9  C15 MIQ B 502      -7.728   0.787  16.979  1.00142.10     0.195 A 
HETATM   10  N17 MIQ B 502      -6.764   0.908  17.877  1.00139.42    -0.288 N 
HETATM   11  O16 MIQ B 502      -8.735  -0.178  16.947  1.00148.93    -0.171 OA
ENDROOT
BRANCH  10  12
HETATM   12  C18 MIQ B 502      -6.657  -0.004  19.000  1.00139.82     0.187 C 
HETATM   13  C19 MIQ B 502      -6.565   0.838  20.279  1.00140.06     0.247 C 
HETATM   14  O25 MIQ B 502      -7.367   1.682  20.472  1.00143.95    -0.271 OA
HETATM   15  N20 MIQ B 502      -5.524   0.623  21.263  1.00140.02    -0.296 N 
HETATM   16  H13 MIQ B 502      -5.471   1.183  22.090  1.00142.77     0.171 HD
HETATM   17  C21 MIQ B 502      -4.550  -0.406  21.000  1.00142.22     0.224 C 
HETATM   18  C22 MIQ B 502      -4.174  -0.634  19.548  1.00139.52     0.106 C 
HETATM   19  O24 MIQ B 502      -4.074  -1.043  21.874  1.00146.13    -0.273 OA
HETATM   20  C23 MIQ B 502      -5.465  -0.942  18.812  1.00139.15     0.045 C 
ENDBRANCH  10  12
BRANCH   5  21
HETATM   21  N6  MIQ B 502      -6.079   5.420  13.769  1.00140.95    -0.377 N 
HETATM   22  C7  MIQ B 502      -4.910   5.275  12.919  1.00142.12     0.149 C 
HETATM   23  C8  MIQ B 502      -4.150   6.587  12.770  1.00144.10     0.187 C 
HETATM   24  O9  MIQ B 502      -4.982   7.665  12.461  1.00148.65    -0.388 OA
HETATM   25  C10 MIQ B 502      -6.370   7.530  12.532  1.00147.44     0.187 C 
HETATM   26  C11 MIQ B 502      -6.958   6.555  13.547  1.00144.08     0.149 C 
ENDBRANCH   5  21
TORSDOF 2
ENDMDL
MODEL 8
REMARK VINA RESULT:      -6.1     17.121     20.600
REMARK  2 active torsions:
REMARK  status: ('A' for Active; 'I' for Inactive)
REMARK    1  A    between atoms: C5_5  and  N6_21 
REMARK    2  A    between atoms: C18_14  and  N17_19 
ROOT
HETATM    1  O1  MIQ B 502     -11.155   8.149  12.077  1.00142.91    -0.171 OA
HETATM    2  C2  MIQ B 502     -10.302   9.254  12.036  1.00141.17     0.195 A 
HETATM    3  C3  MIQ B 502      -8.750   9.228  12.212  1.00141.71     0.035 A 
HETATM    4  C4  MIQ B 502      -7.770   8.143  12.450  1.00142.86     0.046 A 
HETATM    5  C5  MIQ B 502      -6.388   8.438  12.567  1.00139.53     0.031 A 
HETATM    6  C12 MIQ B 502      -5.931   9.815  12.451  1.00139.38     0.030 A 
HETATM    7  C13 MIQ B 502      -6.871  10.856  12.221  1.00141.18     0.019 A 
HETATM    8  C14 MIQ B 502      -8.320  10.540  12.097  1.00138.77     0.033 A 
HETATM    9  C15 MIQ B 502      -9.612  11.385  11.849  1.00142.10     0.195 A 
HETATM   10  N17 MIQ B 502     -10.616  10.524  11.841  1.00139.42    -0.288 N 
HETATM   11  O16 MIQ B 502      -9.685  12.768  11.674  1.00148.93    -0.171 OA
ENDROOT
BRANCH  10  12
HETATM   12  C18 MIQ B 502     -11.986  10.960  11.650  1.00139.82     0.187 C 
HETATM   13  C19 MIQ B 502     -12.030  11.823  10.383  1.00140.06     0.247 C 
HETATM   14  O25 MIQ B 502     -11.557  11.406   9.385  1.00143.95    -0.271 OA
HETATM   15  N20 MIQ B 502     -12.642  13.136  10.373  1.00140.02    -0.296 N 
HETATM   16  H13 MIQ B 502     -12.658  13.692   9.541  1.00142.77     0.171 HD
HETATM   17  C21 MIQ B 502     -13.203  13.627  11.606  1.00142.22     0.224 C 
HETATM   18  C22 MIQ B 502     -12.506  13.209  12.886  1.00139.52     0.106 C 
HETATM   19  O24 MIQ B 502     -14.162  14.317  11.616  1.00146.13    -0.273 OA
HETATM   20  C23 MIQ B 502     -12.490  11.691  12.893  1.00139.15     0.045 C 
ENDBRANCH  10  12
BRANCH   5  21
HETATM   21  N6  MIQ B 502      -5.440   7.366  12.815  1.00140.95    -0.377 N 
HETATM   22  C7  MIQ B 502      -5.953   6.032  13.075  1.00142.12     0.149 C 
HETATM   23  C8  MIQ B 502      -4.989   5.207  13.918  1.00144.10     0.187 C 
HETATM   24  O9  MIQ B 502      -3.675   5.260  13.450  1.00148.65    -0.388 OA
HETATM   25  C10 MIQ B 502      -3.314   6.176  12.458  1.00147.44     0.187 C 
HETATM   26  C11 MIQ B 502      -4.060   7.504  12.385  1.00144.08     0.149 C 
ENDBRANCH   5  21
TORSDOF 2
ENDMDL
MODEL 9
REMARK VINA RESULT:      -6.0     19.371     22.257
REMARK  2 active torsions:
REMARK  status: ('A' for Active; 'I' for Inactive)
REMARK    1  A    between atoms: C5_5  and  N6_21 
REMARK    2  A    between atoms: C18_14  and  N17_19 
ROOT
HETATM    1  O1  MIQ B 502      -8.574  10.471  10.630  1.00142.91    -0.171 OA
HETATM    2  C2  MIQ B 502      -9.201  11.367  11.498  1.00141.17     0.195 A 
HETATM    3  C3  MIQ B 502     -10.136  12.549  11.086  1.00141.71     0.035 A 
HETATM    4  C4  MIQ B 502     -10.619  13.058   9.781  1.00142.86     0.046 A 
HETATM    5  C5  MIQ B 502     -11.484  14.180   9.726  1.00139.53     0.031 A 
HETATM    6  C12 MIQ B 502     -11.899  14.835  10.958  1.00139.38     0.030 A 
HETATM    7  C13 MIQ B 502     -11.436  14.346  12.210  1.00141.18     0.019 A 
HETATM    8  C14 MIQ B 502     -10.530  13.166  12.262  1.00138.77     0.033 A 
HETATM    9  C15 MIQ B 502      -9.838  12.362  13.411  1.00142.10     0.195 A 
HETATM   10  N17 MIQ B 502      -9.145  11.403  12.819  1.00139.42    -0.288 N 
HETATM   11  O16 MIQ B 502      -9.933  12.612  14.781  1.00148.93    -0.171 OA
ENDROOT
BRANCH  10  12
HETATM   12  C18 MIQ B 502      -8.352  10.460  13.584  1.00139.82     0.187 C 
HETATM   13  C19 MIQ B 502      -6.911  10.528  13.062  1.00140.06     0.247 C 
HETATM   14  O25 MIQ B 502      -6.381  11.578  12.972  1.00143.95    -0.271 OA
HETATM   15  N20 MIQ B 502      -6.179   9.338  12.681  1.00140.02    -0.296 N 
HETATM   16  H13 MIQ B 502      -5.242   9.397  12.336  1.00142.77     0.171 HD
HETATM   17  C21 MIQ B 502      -6.852   8.069  12.790  1.00142.22     0.224 C 
HETATM   18  C22 MIQ B 502      -8.345   8.064  12.525  1.00139.52     0.106 C 
HETATM   19  O24 MIQ B 502      -6.267   7.083  13.077  1.00146.13    -0.273 OA
HETATM   20  C23 MIQ B 502      -8.958   9.060  13.494  1.00139.15     0.045 C 
ENDBRANCH  10  12
BRANCH   5  21
HETATM   21  N6  MIQ B 502     -11.938  14.678   8.440  1.00140.95    -0.377 N 
HETATM   22  C7  MIQ B 502     -10.944  15.096   7.466  1.00142.12     0.149 C 
HETATM   23  C8  MIQ B 502     -11.495  16.141   6.504  1.00144.10     0.187 C 
HETATM   24  O9  MIQ B 502     -12.738  15.790   5.975  1.00148.65    -0.388 OA
HETATM   25  C10 MIQ B 502     -13.447  14.704   6.493  1.00147.44     0.187 C 
HETATM   26  C11 MIQ B 502     -13.274  14.356   7.968  1.00144.08     0.149 C 
ENDBRANCH   5  21
TORSDOF 2
ENDMDL
