MODEL 1
REMARK VINA RESULT:      -7.3      0.000      0.000
REMARK  2 active torsions:
REMARK  status: ('A' for Active; 'I' for Inactive)
REMARK    1  A    between atoms: C5_5  and  N6_21 
REMARK    2  A    between atoms: C18_14  and  N17_19 
ROOT
HETATM    1  O1  MIQ B 502       2.879 -24.478   7.866  1.00142.91    -0.171 OA
HETATM    2  C2  MIQ B 502       1.576 -24.297   7.396  1.00141.17     0.195 A 
HETATM    3  C3  MIQ B 502       0.281 -24.235   8.267  1.00141.71     0.035 A 
HETATM    4  C4  MIQ B 502       0.028 -24.334   9.724  1.00142.86     0.046 A 
HETATM    5  C5  MIQ B 502      -1.293 -24.236  10.230  1.00139.53     0.031 A 
HETATM    6  C12 MIQ B 502      -2.405 -24.037   9.313  1.00139.38     0.030 A 
HETATM    7  C13 MIQ B 502      -2.163 -23.942   7.916  1.00141.18     0.019 A 
HETATM    8  C14 MIQ B 502      -0.774 -24.043   7.390  1.00138.77     0.033 A 
HETATM    9  C15 MIQ B 502      -0.131 -23.984   5.967  1.00142.10     0.195 A 
HETATM   10  N17 MIQ B 502       1.171 -24.138   6.147  1.00139.42    -0.288 N 
HETATM   11  O16 MIQ B 502      -0.799 -23.808   4.754  1.00148.93    -0.171 OA
ENDROOT
BRANCH  10  12
HETATM   12  C18 MIQ B 502       2.094 -24.152   5.028  1.00139.82     0.187 C 
HETATM   13  C19 MIQ B 502       1.872 -22.867   4.222  1.00140.06     0.247 C 
HETATM   14  O25 MIQ B 502       1.874 -21.828   4.781  1.00143.95    -0.271 OA
HETATM   15  N20 MIQ B 502       1.664 -22.891   2.788  1.00140.02    -0.296 N 
HETATM   16  H13 MIQ B 502       1.513 -22.046   2.274  1.00142.77     0.171 HD
HETATM   17  C21 MIQ B 502       1.656 -24.172   2.129  1.00142.22     0.224 C 
HETATM   18  C22 MIQ B 502       1.097 -25.340   2.918  1.00139.52     0.106 C 
HETATM   19  O24 MIQ B 502       2.069 -24.304   1.030  1.00146.13    -0.273 OA
HETATM   20  C23 MIQ B 502       1.906 -25.422   4.200  1.00139.15     0.045 C 
ENDBRANCH  10  12
BRANCH   5  21
HETATM   21  N6  MIQ B 502      -1.528 -24.349  11.658  1.00140.95    -0.377 N 
HETATM   22  C7  MIQ B 502      -0.691 -23.579  12.563  1.00142.12     0.149 C 
HETATM   23  C8  MIQ B 502      -0.584 -24.234  13.934  1.00144.10     0.187 C 
HETATM   24  O9  MIQ B 502      -1.822 -24.621  14.450  1.00148.65    -0.388 OA
HETATM   25  C10 MIQ B 502      -2.963 -24.597  13.644  1.00147.44     0.187 C 
HETATM   26  C11 MIQ B 502      -2.805 -24.839  12.147  1.00144.08     0.149 C 
ENDBRANCH   5  21
TORSDOF 2
ENDMDL
MODEL 2
REMARK VINA RESULT:      -7.0      2.097      3.057
REMARK  2 active torsions:
REMARK  status: ('A' for Active; 'I' for Inactive)
REMARK    1  A    between atoms: C5_5  and  N6_21 
REMARK    2  A    between atoms: C18_14  and  N17_19 
ROOT
HETATM    1  O1  MIQ B 502       1.618 -23.995   8.064  1.00142.91    -0.171 OA
HETATM    2  C2  MIQ B 502       0.270 -24.185   8.377  1.00141.17     0.195 A 
HETATM    3  C3  MIQ B 502      -0.398 -23.937   9.767  1.00141.71     0.035 A 
HETATM    4  C4  MIQ B 502       0.116 -23.466  11.075  1.00142.86     0.046 A 
HETATM    5  C5  MIQ B 502      -0.758 -23.337  12.184  1.00139.53     0.031 A 
HETATM    6  C12 MIQ B 502      -2.167 -23.670  12.036  1.00139.38     0.030 A 
HETATM    7  C13 MIQ B 502      -2.660 -24.121  10.782  1.00141.18     0.019 A 
HETATM    8  C14 MIQ B 502      -1.739 -24.252   9.620  1.00138.77     0.033 A 
HETATM    9  C15 MIQ B 502      -1.904 -24.697   8.131  1.00142.10     0.195 A 
HETATM   10  N17 MIQ B 502      -0.703 -24.600   7.585  1.00139.42    -0.288 N 
HETATM   11  O16 MIQ B 502      -3.083 -25.114   7.509  1.00148.93    -0.171 OA
ENDROOT
BRANCH  10  12
HETATM   12  C18 MIQ B 502      -0.472 -24.952   6.196  1.00139.82     0.187 C 
HETATM   13  C19 MIQ B 502       0.704 -25.936   6.153  1.00140.06     0.247 C 
HETATM   14  O25 MIQ B 502       0.685 -26.887   6.851  1.00143.95    -0.271 OA
HETATM   15  N20 MIQ B 502       1.837 -25.734   5.273  1.00140.02    -0.296 N 
HETATM   16  H13 MIQ B 502       2.601 -26.380   5.259  1.00142.77     0.171 HD
HETATM   17  C21 MIQ B 502       1.842 -24.561   4.438  1.00142.22     0.224 C 
HETATM   18  C22 MIQ B 502       1.193 -23.315   5.010  1.00139.52     0.106 C 
HETATM   19  O24 MIQ B 502       2.323 -24.572   3.359  1.00146.13    -0.273 OA
HETATM   20  C23 MIQ B 502      -0.234 -23.695   5.361  1.00139.15     0.045 C 
ENDBRANCH  10  12
BRANCH   5  21
HETATM   21  N6  MIQ B 502      -0.238 -22.888  13.463  1.00140.95    -0.377 N 
HETATM   22  C7  MIQ B 502       1.201 -22.768  13.624  1.00142.12     0.149 C 
HETATM   23  C8  MIQ B 502       1.625 -22.931  15.078  1.00144.10     0.187 C 
HETATM   24  O9  MIQ B 502       0.860 -22.162  15.957  1.00148.65    -0.388 OA
HETATM   25  C10 MIQ B 502      -0.301 -21.524  15.513  1.00147.44     0.187 C 
HETATM   26  C11 MIQ B 502      -1.099 -22.165  14.383  1.00144.08     0.149 C 
ENDBRANCH   5  21
TORSDOF 2
ENDMDL
MODEL 3
REMARK VINA RESULT:      -7.0     16.293     17.482
REMARK  2 active torsions:
REMARK  status: ('A' for Active; 'I' for Inactive)
REMARK    1  A    between atoms: C5_5  and  N6_21 
REMARK    2  A    between atoms: C18_14  and  N17_19 
ROOT
HETATM    1  O1  MIQ B 502       6.112 -13.295  -0.962  1.00142.91    -0.171 OA
HETATM    2  C2  MIQ B 502       7.319 -12.668  -1.279  1.00141.17     0.195 A 
HETATM    3  C3  MIQ B 502       8.174 -11.775  -0.324  1.00141.71     0.035 A 
HETATM    4  C4  MIQ B 502       8.011 -11.344   1.085  1.00142.86     0.046 A 
HETATM    5  C5  MIQ B 502       8.982 -10.511   1.696  1.00139.53     0.031 A 
HETATM    6  C12 MIQ B 502      10.145 -10.078   0.934  1.00139.38     0.030 A 
HETATM    7  C13 MIQ B 502      10.302 -10.492  -0.416  1.00141.18     0.019 A 
HETATM    8  C14 MIQ B 502       9.280 -11.368  -1.052  1.00138.77     0.033 A 
HETATM    9  C15 MIQ B 502       9.112 -12.013  -2.467  1.00142.10     0.195 A 
HETATM   10  N17 MIQ B 502       7.981 -12.699  -2.423  1.00139.42    -0.288 N 
HETATM   11  O16 MIQ B 502       9.980 -11.885  -3.552  1.00148.93    -0.171 OA
ENDROOT
BRANCH  10  12
HETATM   12  C18 MIQ B 502       7.491 -13.425  -3.580  1.00139.82     0.187 C 
HETATM   13  C19 MIQ B 502       8.614 -14.353  -4.060  1.00140.06     0.247 C 
HETATM   14  O25 MIQ B 502       9.143 -15.066  -3.284  1.00143.95    -0.271 OA
HETATM   15  N20 MIQ B 502       9.041 -14.382  -5.444  1.00140.02    -0.296 N 
HETATM   16  H13 MIQ B 502       9.780 -14.988  -5.743  1.00142.77     0.171 HD
HETATM   17  C21 MIQ B 502       8.388 -13.494  -6.370  1.00142.22     0.224 C 
HETATM   18  C22 MIQ B 502       7.936 -12.153  -5.825  1.00139.52     0.106 C 
HETATM   19  O24 MIQ B 502       8.209 -13.800  -7.498  1.00146.13    -0.273 OA
HETATM   20  C23 MIQ B 502       7.015 -12.451  -4.656  1.00139.15     0.045 C 
ENDBRANCH  10  12
BRANCH   5  21
HETATM   21  N6  MIQ B 502       8.803 -10.085   3.071  1.00140.95    -0.377 N 
HETATM   22  C7  MIQ B 502       7.472 -10.147   3.650  1.00142.12     0.149 C 
HETATM   23  C8  MIQ B 502       7.290  -9.130   4.770  1.00144.10     0.187 C 
HETATM   24  O9  MIQ B 502       8.342  -9.140   5.688  1.00148.65    -0.388 OA
HETATM   25  C10 MIQ B 502       9.510  -9.858   5.420  1.00147.44     0.187 C 
HETATM   26  C11 MIQ B 502       9.944 -10.028   3.968  1.00144.08     0.149 C 
ENDBRANCH   5  21
TORSDOF 2
ENDMDL
MODEL 4
REMARK VINA RESULT:      -6.9     15.563     17.855
REMARK  2 active torsions:
REMARK  status: ('A' for Active; 'I' for Inactive)
REMARK    1  A    between atoms: C5_5  and  N6_21 
REMARK    2  A    between atoms: C18_14  and  N17_19 
ROOT
HETATM    1  O1  MIQ B 502       9.880 -11.550  -0.030  1.00142.91    -0.171 OA
HETATM    2  C2  MIQ B 502       8.985 -11.335   1.020  1.00141.17     0.195 A 
HETATM    3  C3  MIQ B 502       9.263 -10.504   2.313  1.00141.71     0.035 A 
HETATM    4  C4  MIQ B 502      10.438  -9.747   2.805  1.00142.86     0.046 A 
HETATM    5  C5  MIQ B 502      10.387  -9.075   4.052  1.00139.53     0.031 A 
HETATM    6  C12 MIQ B 502       9.173  -9.130   4.854  1.00139.38     0.030 A 
HETATM    7  C13 MIQ B 502       8.046  -9.855   4.382  1.00141.18     0.019 A 
HETATM    8  C14 MIQ B 502       8.104 -10.556   3.070  1.00138.77     0.033 A 
HETATM    9  C15 MIQ B 502       7.101 -11.424   2.242  1.00142.10     0.195 A 
HETATM   10  N17 MIQ B 502       7.743 -11.771   1.139  1.00139.42    -0.288 N 
HETATM   11  O16 MIQ B 502       5.795 -11.762   2.601  1.00148.93    -0.171 OA
ENDROOT
BRANCH  10  12
HETATM   12  C18 MIQ B 502       7.117 -12.604   0.129  1.00139.82     0.187 C 
HETATM   13  C19 MIQ B 502       8.068 -13.769  -0.172  1.00140.06     0.247 C 
HETATM   14  O25 MIQ B 502       8.496 -14.408   0.722  1.00143.95    -0.271 OA
HETATM   15  N20 MIQ B 502       8.452 -14.112  -1.526  1.00140.02    -0.296 N 
HETATM   16  H13 MIQ B 502       9.079 -14.870  -1.708  1.00142.77     0.171 HD
HETATM   17  C21 MIQ B 502       7.924 -13.310  -2.600  1.00142.22     0.224 C 
HETATM   18  C22 MIQ B 502       7.702 -11.839  -2.306  1.00139.52     0.106 C 
HETATM   19  O24 MIQ B 502       7.672 -13.779  -3.655  1.00146.13    -0.273 OA
HETATM   20  C23 MIQ B 502       6.774 -11.774  -1.107  1.00139.15     0.045 C 
ENDBRANCH  10  12
BRANCH   5  21
HETATM   21  N6  MIQ B 502      11.551  -8.350   4.528  1.00140.95    -0.377 N 
HETATM   22  C7  MIQ B 502      11.821  -8.329   5.956  1.00142.12     0.149 C 
HETATM   23  C8  MIQ B 502      12.603  -7.089   6.369  1.00144.10     0.187 C 
HETATM   24  O9  MIQ B 502      13.707  -6.845   5.550  1.00148.65    -0.388 OA
HETATM   25  C10 MIQ B 502      13.878  -7.559   4.361  1.00147.44     0.187 C 
HETATM   26  C11 MIQ B 502      12.638  -8.043   3.616  1.00144.08     0.149 C 
ENDBRANCH   5  21
TORSDOF 2
ENDMDL
MODEL 5
REMARK VINA RESULT:      -6.9      4.401      5.850
REMARK  2 active torsions:
REMARK  status: ('A' for Active; 'I' for Inactive)
REMARK    1  A    between atoms: C5_5  and  N6_21 
REMARK    2  A    between atoms: C18_14  and  N17_19 
ROOT
HETATM    1  O1  MIQ B 502      -3.815 -22.899   9.524  1.00142.91    -0.171 OA
HETATM    2  C2  MIQ B 502      -2.857 -23.855   9.866  1.00141.17     0.195 A 
HETATM    3  C3  MIQ B 502      -1.819 -23.746  11.029  1.00141.71     0.035 A 
HETATM    4  C4  MIQ B 502      -1.537 -22.707  12.048  1.00142.86     0.046 A 
HETATM    5  C5  MIQ B 502      -0.503 -22.899  12.999  1.00139.53     0.031 A 
HETATM    6  C12 MIQ B 502       0.284 -24.124  12.974  1.00139.38     0.030 A 
HETATM    7  C13 MIQ B 502       0.013 -25.120  11.998  1.00141.18     0.019 A 
HETATM    8  C14 MIQ B 502      -1.075 -24.914  11.003  1.00138.77     0.033 A 
HETATM    9  C15 MIQ B 502      -1.655 -25.754   9.818  1.00142.10     0.195 A 
HETATM   10  N17 MIQ B 502      -2.631 -25.028   9.299  1.00139.42    -0.288 N 
HETATM   11  O16 MIQ B 502      -1.223 -27.012   9.396  1.00148.93    -0.171 OA
ENDROOT
BRANCH  10  12
HETATM   12  C18 MIQ B 502      -3.395 -25.492   8.156  1.00139.82     0.187 C 
HETATM   13  C19 MIQ B 502      -3.315 -24.411   7.071  1.00140.06     0.247 C 
HETATM   14  O25 MIQ B 502      -2.260 -23.990   6.754  1.00143.95    -0.271 OA
HETATM   15  N20 MIQ B 502      -4.501 -23.896   6.418  1.00140.02    -0.296 N 
HETATM   16  H13 MIQ B 502      -4.436 -23.186   5.715  1.00142.77     0.171 HD
HETATM   17  C21 MIQ B 502      -5.779 -24.418   6.829  1.00142.22     0.224 C 
HETATM   18  C22 MIQ B 502      -5.919 -24.805   8.289  1.00139.52     0.106 C 
HETATM   19  O24 MIQ B 502      -6.671 -24.544   6.064  1.00146.13    -0.273 OA
HETATM   20  C23 MIQ B 502      -4.828 -25.822   8.572  1.00139.15     0.045 C 
ENDBRANCH  10  12
BRANCH   5  21
HETATM   21  N6  MIQ B 502      -0.227 -21.868  13.983  1.00140.95    -0.377 N 
HETATM   22  C7  MIQ B 502      -0.808 -20.550  13.789  1.00142.12     0.149 C 
HETATM   23  C8  MIQ B 502       0.022 -19.459  14.452  1.00144.10     0.187 C 
HETATM   24  O9  MIQ B 502       0.375 -19.768  15.767  1.00148.65    -0.388 OA
HETATM   25  C10 MIQ B 502       0.160 -21.052  16.274  1.00147.44     0.187 C 
HETATM   26  C11 MIQ B 502       0.221 -22.236  15.314  1.00144.08     0.149 C 
ENDBRANCH   5  21
TORSDOF 2
ENDMDL
MODEL 6
REMARK VINA RESULT:      -6.9      5.646      8.646
REMARK  2 active torsions:
REMARK  status: ('A' for Active; 'I' for Inactive)
REMARK    1  A    between atoms: C5_5  and  N6_21 
REMARK    2  A    between atoms: C18_14  and  N17_19 
ROOT
HETATM    1  O1  MIQ B 502      -1.927 -22.195  12.341  1.00142.91    -0.171 OA
HETATM    2  C2  MIQ B 502      -2.056 -23.568  12.116  1.00141.17     0.195 A 
HETATM    3  C3  MIQ B 502      -2.849 -24.241  10.951  1.00141.71     0.035 A 
HETATM    4  C4  MIQ B 502      -3.641 -23.709   9.817  1.00142.86     0.046 A 
HETATM    5  C5  MIQ B 502      -4.260 -24.593   8.897  1.00139.53     0.031 A 
HETATM    6  C12 MIQ B 502      -4.114 -26.032   9.069  1.00139.38     0.030 A 
HETATM    7  C13 MIQ B 502      -3.354 -26.542  10.156  1.00141.18     0.019 A 
HETATM    8  C14 MIQ B 502      -2.705 -25.609  11.116  1.00138.77     0.033 A 
HETATM    9  C15 MIQ B 502      -1.817 -25.786  12.391  1.00142.10     0.195 A 
HETATM   10  N17 MIQ B 502      -1.543 -24.564  12.818  1.00139.42    -0.288 N 
HETATM   11  O16 MIQ B 502      -1.402 -26.991  12.960  1.00148.93    -0.171 OA
ENDROOT
BRANCH  10  12
HETATM   12  C18 MIQ B 502      -0.742 -24.338  14.007  1.00139.82     0.187 C 
HETATM   13  C19 MIQ B 502      -1.514 -23.375  14.916  1.00140.06     0.247 C 
HETATM   14  O25 MIQ B 502      -2.639 -23.610  15.182  1.00143.95    -0.271 OA
HETATM   15  N20 MIQ B 502      -0.899 -22.183  15.464  1.00140.02    -0.296 N 
HETATM   16  H13 MIQ B 502      -1.416 -21.559  16.051  1.00142.77     0.171 HD
HETATM   17  C21 MIQ B 502       0.472 -21.912  15.117  1.00142.22     0.224 C 
HETATM   18  C22 MIQ B 502       0.921 -22.334  13.731  1.00139.52     0.106 C 
HETATM   19  O24 MIQ B 502       1.211 -21.390  15.878  1.00146.13    -0.273 OA
HETATM   20  C23 MIQ B 502       0.644 -23.823  13.623  1.00139.15     0.045 C 
ENDBRANCH  10  12
BRANCH   5  21
HETATM   21  N6  MIQ B 502      -5.045 -24.059   7.800  1.00140.95    -0.377 N 
HETATM   22  C7  MIQ B 502      -6.204 -24.808   7.345  1.00142.12     0.149 C 
HETATM   23  C8  MIQ B 502      -6.524 -24.528   5.883  1.00144.10     0.187 C 
HETATM   24  O9  MIQ B 502      -6.539 -23.165   5.581  1.00148.65    -0.388 OA
HETATM   25  C10 MIQ B 502      -6.070 -22.230   6.507  1.00147.44     0.187 C 
HETATM   26  C11 MIQ B 502      -4.962 -22.647   7.468  1.00144.08     0.149 C 
ENDBRANCH   5  21
TORSDOF 2
ENDMDL
MODEL 7
REMARK VINA RESULT:      -6.8     16.260     19.294
REMARK  2 active torsions:
REMARK  status: ('A' for Active; 'I' for Inactive)
REMARK    1  A    between atoms: C5_5  and  N6_21 
REMARK    2  A    between atoms: C18_14  and  N17_19 
ROOT
HETATM    1  O1  MIQ B 502      12.339  -9.380   2.933  1.00142.91    -0.171 OA
HETATM    2  C2  MIQ B 502      11.096  -9.590   3.534  1.00141.17     0.195 A 
HETATM    3  C3  MIQ B 502       9.828 -10.188   2.845  1.00141.71     0.035 A 
HETATM    4  C4  MIQ B 502       9.550 -10.683   1.476  1.00142.86     0.046 A 
HETATM    5  C5  MIQ B 502       8.266 -11.183   1.141  1.00139.53     0.031 A 
HETATM    6  C12 MIQ B 502       7.216 -11.210   2.149  1.00139.38     0.030 A 
HETATM    7  C13 MIQ B 502       7.483 -10.737   3.462  1.00141.18     0.019 A 
HETATM    8  C14 MIQ B 502       8.833 -10.216   3.809  1.00138.77     0.033 A 
HETATM    9  C15 MIQ B 502       9.487  -9.632   5.103  1.00142.10     0.195 A 
HETATM   10  N17 MIQ B 502      10.737  -9.339   4.781  1.00139.42    -0.288 N 
HETATM   11  O16 MIQ B 502       8.872  -9.455   6.343  1.00148.93    -0.171 OA
ENDROOT
BRANCH  10  12
HETATM   12  C18 MIQ B 502      11.650  -8.755   5.745  1.00139.82     0.187 C 
HETATM   13  C19 MIQ B 502      12.291  -7.522   5.094  1.00140.06     0.247 C 
HETATM   14  O25 MIQ B 502      11.597  -6.709   4.596  1.00143.95    -0.271 OA
HETATM   15  N20 MIQ B 502      13.726  -7.325   5.080  1.00140.02    -0.296 N 
HETATM   16  H13 MIQ B 502      14.132  -6.519   4.647  1.00142.77     0.171 HD
HETATM   17  C21 MIQ B 502      14.552  -8.337   5.687  1.00142.22     0.224 C 
HETATM   18  C22 MIQ B 502      14.060  -9.768   5.586  1.00139.52     0.106 C 
HETATM   19  O24 MIQ B 502      15.560  -8.062   6.239  1.00146.13    -0.273 OA
HETATM   20  C23 MIQ B 502      12.674  -9.792   6.204  1.00139.15     0.045 C 
ENDBRANCH  10  12
BRANCH   5  21
HETATM   21  N6  MIQ B 502       8.003 -11.650  -0.208  1.00140.95    -0.377 N 
HETATM   22  C7  MIQ B 502       9.022 -11.447  -1.224  1.00142.12     0.149 C 
HETATM   23  C8  MIQ B 502       8.422 -11.368  -2.622  1.00144.10     0.187 C 
HETATM   24  O9  MIQ B 502       7.515 -12.397  -2.883  1.00148.65    -0.388 OA
HETATM   25  C10 MIQ B 502       7.075 -13.231  -1.853  1.00147.44     0.187 C 
HETATM   26  C11 MIQ B 502       6.988 -12.662  -0.440  1.00144.08     0.149 C 
ENDBRANCH   5  21
TORSDOF 2
ENDMDL
MODEL 8
REMARK VINA RESULT:      -6.8     16.101     19.513
REMARK  2 active torsions:
REMARK  status: ('A' for Active; 'I' for Inactive)
REMARK    1  A    between atoms: C5_5  and  N6_21 
REMARK    2  A    between atoms: C18_14  and  N17_19 
ROOT
HETATM    1  O1  MIQ B 502      13.366 -10.071   2.543  1.00142.91    -0.171 OA
HETATM    2  C2  MIQ B 502      12.249  -9.888   3.361  1.00141.17     0.195 A 
HETATM    3  C3  MIQ B 502      10.769 -10.223   2.989  1.00141.71     0.035 A 
HETATM    4  C4  MIQ B 502      10.125 -10.788   1.780  1.00142.86     0.046 A 
HETATM    5  C5  MIQ B 502       8.721 -10.983   1.740  1.00139.53     0.031 A 
HETATM    6  C12 MIQ B 502       7.909 -10.625   2.894  1.00139.38     0.030 A 
HETATM    7  C13 MIQ B 502       8.526 -10.084   4.054  1.00141.18     0.019 A 
HETATM    8  C14 MIQ B 502      10.001  -9.884   4.091  1.00138.77     0.033 A 
HETATM    9  C15 MIQ B 502      11.010  -9.337   5.153  1.00142.10     0.195 A 
HETATM   10  N17 MIQ B 502      12.206  -9.410   4.592  1.00139.42    -0.288 N 
HETATM   11  O16 MIQ B 502      10.704  -8.865   6.431  1.00148.93    -0.171 OA
ENDROOT
BRANCH  10  12
HETATM   12  C18 MIQ B 502      13.398  -8.966   5.291  1.00139.82     0.187 C 
HETATM   13  C19 MIQ B 502      13.467  -9.721   6.624  1.00140.06     0.247 C 
HETATM   14  O25 MIQ B 502      13.367 -10.896   6.626  1.00143.95    -0.271 OA
HETATM   15  N20 MIQ B 502      13.658  -9.031   7.883  1.00140.02    -0.296 N 
HETATM   16  H13 MIQ B 502      13.695  -9.535   8.747  1.00142.77     0.171 HD
HETATM   17  C21 MIQ B 502      13.766  -7.595   7.856  1.00142.22     0.224 C 
HETATM   18  C22 MIQ B 502      12.956  -6.871   6.798  1.00139.52     0.106 C 
HETATM   19  O24 MIQ B 502      14.457  -7.013   8.618  1.00146.13    -0.273 OA
HETATM   20  C23 MIQ B 502      13.381  -7.448   5.460  1.00139.15     0.045 C 
ENDBRANCH  10  12
BRANCH   5  21
HETATM   21  N6  MIQ B 502       8.102 -11.524   0.543  1.00140.95    -0.377 N 
HETATM   22  C7  MIQ B 502       8.843 -11.473  -0.705  1.00142.12     0.149 C 
HETATM   23  C8  MIQ B 502       7.917 -11.448  -1.915  1.00144.10     0.187 C 
HETATM   24  O9  MIQ B 502       6.916 -12.420  -1.853  1.00148.65    -0.388 OA
HETATM   25  C10 MIQ B 502       6.703 -13.143  -0.676  1.00147.44     0.187 C 
HETATM   26  C11 MIQ B 502       7.005 -12.469   0.658  1.00144.08     0.149 C 
ENDBRANCH   5  21
TORSDOF 2
ENDMDL
MODEL 9
REMARK VINA RESULT:      -6.8      2.939      4.367
REMARK  2 active torsions:
REMARK  status: ('A' for Active; 'I' for Inactive)
REMARK    1  A    between atoms: C5_5  and  N6_21 
REMARK    2  A    between atoms: C18_14  and  N17_19 
ROOT
HETATM    1  O1  MIQ B 502       0.279 -25.098   4.019  1.00142.91    -0.171 OA
HETATM    2  C2  MIQ B 502       0.437 -25.043   5.406  1.00141.17     0.195 A 
HETATM    3  C3  MIQ B 502      -0.679 -24.718   6.449  1.00141.71     0.035 A 
HETATM    4  C4  MIQ B 502      -2.121 -24.396   6.332  1.00142.86     0.046 A 
HETATM    5  C5  MIQ B 502      -2.895 -24.142   7.492  1.00139.53     0.031 A 
HETATM    6  C12 MIQ B 502      -2.269 -24.198   8.805  1.00139.38     0.030 A 
HETATM    7  C13 MIQ B 502      -0.887 -24.507   8.918  1.00141.18     0.019 A 
HETATM    8  C14 MIQ B 502      -0.079 -24.775   7.697  1.00138.77     0.033 A 
HETATM    9  C15 MIQ B 502       1.417 -25.140   7.426  1.00142.10     0.195 A 
HETATM   10  N17 MIQ B 502       1.533 -25.255   6.114  1.00139.42    -0.288 N 
HETATM   11  O16 MIQ B 502       2.422 -25.306   8.381  1.00148.93    -0.171 OA
ENDROOT
BRANCH  10  12
HETATM   12  C18 MIQ B 502       2.804 -25.574   5.491  1.00139.82     0.187 C 
HETATM   13  C19 MIQ B 502       3.036 -24.568   4.358  1.00140.06     0.247 C 
HETATM   14  O25 MIQ B 502       2.933 -23.414   4.582  1.00143.95    -0.271 OA
HETATM   15  N20 MIQ B 502       3.384 -24.993   3.018  1.00140.02    -0.296 N 
HETATM   16  H13 MIQ B 502       3.527 -24.327   2.285  1.00142.77     0.171 HD
HETATM   17  C21 MIQ B 502       3.494 -26.407   2.766  1.00142.22     0.224 C 
HETATM   18  C22 MIQ B 502       2.561 -27.312   3.548  1.00139.52     0.106 C 
HETATM   19  O24 MIQ B 502       4.276 -26.839   1.992  1.00146.13    -0.273 OA
HETATM   20  C23 MIQ B 502       2.814 -27.027   5.017  1.00139.15     0.045 C 
ENDBRANCH  10  12
BRANCH   5  21
HETATM   21  N6  MIQ B 502      -4.303 -23.814   7.362  1.00140.95    -0.377 N 
HETATM   22  C7  MIQ B 502      -5.246 -24.889   7.102  1.00142.12     0.149 C 
HETATM   23  C8  MIQ B 502      -6.488 -24.392   6.373  1.00144.10     0.187 C 
HETATM   24  O9  MIQ B 502      -7.035 -23.245   6.951  1.00148.65    -0.388 OA
HETATM   25  C10 MIQ B 502      -6.336 -22.549   7.940  1.00147.44     0.187 C 
HETATM   26  C11 MIQ B 502      -4.811 -22.567   7.906  1.00144.08     0.149 C 
ENDBRANCH   5  21
TORSDOF 2
ENDMDL
