MODEL 1
REMARK VINA RESULT:      -7.9      0.000      0.000
REMARK  2 active torsions:
REMARK  status: ('A' for Active; 'I' for Inactive)
REMARK    1  A    between atoms: C5_5  and  N6_21 
REMARK    2  A    between atoms: C18_14  and  N17_19 
ROOT
HETATM    1  O1  MIQ B 502       7.723  10.027 -10.818  1.00142.91    -0.171 OA
HETATM    2  C2  MIQ B 502       7.325  11.364 -10.877  1.00141.17     0.195 A 
HETATM    3  C3  MIQ B 502       6.035  11.913 -11.565  1.00141.71     0.035 A 
HETATM    4  C4  MIQ B 502       4.922  11.271 -12.303  1.00142.86     0.046 A 
HETATM    5  C5  MIQ B 502       3.861  12.054 -12.824  1.00139.53     0.031 A 
HETATM    6  C12 MIQ B 502       3.867  13.497 -12.633  1.00139.38     0.030 A 
HETATM    7  C13 MIQ B 502       4.934  14.113 -11.925  1.00141.18     0.019 A 
HETATM    8  C14 MIQ B 502       6.043  13.286 -11.378  1.00138.77     0.033 A 
HETATM    9  C15 MIQ B 502       7.345  13.591 -10.568  1.00142.10     0.195 A 
HETATM   10  N17 MIQ B 502       7.936  12.423 -10.372  1.00139.42    -0.288 N 
HETATM   11  O16 MIQ B 502       7.791  14.843 -10.143  1.00148.93    -0.171 OA
ENDROOT
BRANCH  10  12
HETATM   12  C18 MIQ B 502       9.195  12.321  -9.659  1.00139.82     0.187 C 
HETATM   13  C19 MIQ B 502      10.193  11.599 -10.573  1.00140.06     0.247 C 
HETATM   14  O25 MIQ B 502      10.342  11.981 -11.679  1.00143.95    -0.271 OA
HETATM   15  N20 MIQ B 502      10.963  10.461 -10.114  1.00140.02    -0.296 N 
HETATM   16  H13 MIQ B 502      11.606   9.993 -10.723  1.00142.77     0.171 HD
HETATM   17  C21 MIQ B 502      10.755  10.006  -8.764  1.00142.22     0.224 C 
HETATM   18  C22 MIQ B 502       9.352  10.149  -8.205  1.00139.52     0.106 C 
HETATM   19  O24 MIQ B 502      11.637   9.549  -8.123  1.00146.13    -0.273 OA
HETATM   20  C23 MIQ B 502       8.992  11.619  -8.317  1.00139.15     0.045 C 
ENDBRANCH  10  12
BRANCH   5  21
HETATM   21  N6  MIQ B 502       2.784  11.413 -13.557  1.00140.95    -0.377 N 
HETATM   22  C7  MIQ B 502       2.448  10.037 -13.235  1.00142.12     0.149 C 
HETATM   23  C8  MIQ B 502       1.822   9.312 -14.420  1.00144.10     0.187 C 
HETATM   24  O9  MIQ B 502       0.805  10.048 -15.031  1.00148.65    -0.388 OA
HETATM   25  C10 MIQ B 502       0.598  11.387 -14.692  1.00147.44     0.187 C 
HETATM   26  C11 MIQ B 502       1.797  12.221 -14.250  1.00144.08     0.149 C 
ENDBRANCH   5  21
TORSDOF 2
ENDMDL
MODEL 2
REMARK VINA RESULT:      -7.9      2.024      3.051
REMARK  2 active torsions:
REMARK  status: ('A' for Active; 'I' for Inactive)
REMARK    1  A    between atoms: C5_5  and  N6_21 
REMARK    2  A    between atoms: C18_14  and  N17_19 
ROOT
HETATM    1  O1  MIQ B 502       5.649  14.570 -10.969  1.00142.91    -0.171 OA
HETATM    2  C2  MIQ B 502       6.371  13.375 -10.915  1.00141.17     0.195 A 
HETATM    3  C3  MIQ B 502       5.896  11.986 -11.447  1.00141.71     0.035 A 
HETATM    4  C4  MIQ B 502       4.658  11.520 -12.116  1.00142.86     0.046 A 
HETATM    5  C5  MIQ B 502       4.515  10.160 -12.492  1.00139.53     0.031 A 
HETATM    6  C12 MIQ B 502       5.590   9.218 -12.219  1.00139.38     0.030 A 
HETATM    7  C13 MIQ B 502       6.777   9.664 -11.579  1.00141.18     0.019 A 
HETATM    8  C14 MIQ B 502       6.923  11.093 -11.189  1.00138.77     0.033 A 
HETATM    9  C15 MIQ B 502       8.043  11.934 -10.493  1.00142.10     0.195 A 
HETATM   10  N17 MIQ B 502       7.580  13.171 -10.422  1.00139.42    -0.288 N 
HETATM   11  O16 MIQ B 502       9.278  11.468 -10.039  1.00148.93    -0.171 OA
ENDROOT
BRANCH  10  12
HETATM   12  C18 MIQ B 502       8.355  14.236  -9.813  1.00139.82     0.187 C 
HETATM   13  C19 MIQ B 502       9.765  14.192 -10.416  1.00140.06     0.247 C 
HETATM   14  O25 MIQ B 502       9.889  14.173 -11.589  1.00143.95    -0.271 OA
HETATM   15  N20 MIQ B 502      10.951  14.180  -9.585  1.00140.02    -0.296 N 
HETATM   16  H13 MIQ B 502      11.865  14.145  -9.991  1.00142.77     0.171 HD
HETATM   17  C21 MIQ B 502      10.773  14.194  -8.156  1.00142.22     0.224 C 
HETATM   18  C22 MIQ B 502       9.555  13.473  -7.613  1.00139.52     0.106 C 
HETATM   19  O24 MIQ B 502      11.539  14.746  -7.443  1.00146.13    -0.273 OA
HETATM   20  C23 MIQ B 502       8.348  14.096  -8.291  1.00139.15     0.045 C 
ENDBRANCH  10  12
BRANCH   5  21
HETATM   21  N6  MIQ B 502       3.291   9.715 -13.133  1.00140.95    -0.377 N 
HETATM   22  C7  MIQ B 502       2.310  10.711 -13.526  1.00142.12     0.149 C 
HETATM   23  C8  MIQ B 502       0.899  10.137 -13.565  1.00144.10     0.187 C 
HETATM   24  O9  MIQ B 502       0.826   8.924 -14.252  1.00148.65    -0.388 OA
HETATM   25  C10 MIQ B 502       1.991   8.253 -14.630  1.00147.44     0.187 C 
HETATM   26  C11 MIQ B 502       3.236   8.406 -13.762  1.00144.08     0.149 C 
ENDBRANCH   5  21
TORSDOF 2
ENDMDL
MODEL 3
REMARK VINA RESULT:      -7.8      2.881      3.952
REMARK  2 active torsions:
REMARK  status: ('A' for Active; 'I' for Inactive)
REMARK    1  A    between atoms: C5_5  and  N6_21 
REMARK    2  A    between atoms: C18_14  and  N17_19 
ROOT
HETATM    1  O1  MIQ B 502      10.100  12.050 -11.274  1.00142.91    -0.171 OA
HETATM    2  C2  MIQ B 502       9.173  13.004 -10.848  1.00141.17     0.195 A 
HETATM    3  C3  MIQ B 502       7.625  12.936 -11.043  1.00141.71     0.035 A 
HETATM    4  C4  MIQ B 502       6.719  11.945 -11.671  1.00142.86     0.046 A 
HETATM    5  C5  MIQ B 502       5.319  12.165 -11.693  1.00139.53     0.031 A 
HETATM    6  C12 MIQ B 502       4.769  13.372 -11.092  1.00139.38     0.030 A 
HETATM    7  C13 MIQ B 502       5.636  14.322 -10.488  1.00141.18     0.019 A 
HETATM    8  C14 MIQ B 502       7.105  14.084 -10.467  1.00138.77     0.033 A 
HETATM    9  C15 MIQ B 502       8.338  14.869  -9.911  1.00142.10     0.195 A 
HETATM   10  N17 MIQ B 502       9.399  14.135 -10.202  1.00139.42    -0.288 N 
HETATM   11  O16 MIQ B 502       8.317  16.096  -9.246  1.00148.93    -0.171 OA
ENDROOT
BRANCH  10  12
HETATM   12  C18 MIQ B 502      10.739  14.566  -9.847  1.00139.82     0.187 C 
HETATM   13  C19 MIQ B 502      10.729  14.943  -8.360  1.00140.06     0.247 C 
HETATM   14  O25 MIQ B 502      10.290  14.180  -7.575  1.00143.95    -0.271 OA
HETATM   15  N20 MIQ B 502      11.252  16.210  -7.890  1.00140.02    -0.296 N 
HETATM   16  H13 MIQ B 502      11.234  16.447  -6.918  1.00142.77     0.171 HD
HETATM   17  C21 MIQ B 502      11.774  17.129  -8.869  1.00142.22     0.224 C 
HETATM   18  C22 MIQ B 502      11.101  17.131 -10.228  1.00139.52     0.106 C 
HETATM   19  O24 MIQ B 502      12.685  17.841  -8.624  1.00146.13    -0.273 OA
HETATM   20  C23 MIQ B 502      11.187  15.710 -10.754  1.00139.15     0.045 C 
ENDBRANCH  10  12
BRANCH   5  21
HETATM   21  N6  MIQ B 502       4.446  11.194 -12.325  1.00140.95    -0.377 N 
HETATM   22  C7  MIQ B 502       3.467  11.664 -13.290  1.00142.12     0.149 C 
HETATM   23  C8  MIQ B 502       2.260  10.738 -13.374  1.00144.10     0.187 C 
HETATM   24  O9  MIQ B 502       2.615   9.393 -13.491  1.00148.65    -0.388 OA
HETATM   25  C10 MIQ B 502       3.941   8.992 -13.306  1.00147.44     0.187 C 
HETATM   26  C11 MIQ B 502       4.817   9.790 -12.347  1.00144.08     0.149 C 
ENDBRANCH   5  21
TORSDOF 2
ENDMDL
MODEL 4
REMARK VINA RESULT:      -7.5      2.104      3.741
REMARK  2 active torsions:
REMARK  status: ('A' for Active; 'I' for Inactive)
REMARK    1  A    between atoms: C5_5  and  N6_21 
REMARK    2  A    between atoms: C18_14  and  N17_19 
ROOT
HETATM    1  O1  MIQ B 502       7.352  14.618 -10.229  1.00142.91    -0.171 OA
HETATM    2  C2  MIQ B 502       7.654  13.266 -10.406  1.00141.17     0.195 A 
HETATM    3  C3  MIQ B 502       6.745  12.200 -11.097  1.00141.71     0.035 A 
HETATM    4  C4  MIQ B 502       5.405  12.259 -11.728  1.00142.86     0.046 A 
HETATM    5  C5  MIQ B 502       4.824  11.093 -12.286  1.00139.53     0.031 A 
HETATM    6  C12 MIQ B 502       5.549   9.831 -12.238  1.00139.38     0.030 A 
HETATM    7  C13 MIQ B 502       6.833   9.774 -11.633  1.00141.18     0.019 A 
HETATM    8  C14 MIQ B 502       7.440  11.003 -11.052  1.00138.77     0.033 A 
HETATM    9  C15 MIQ B 502       8.788  11.327 -10.330  1.00142.10     0.195 A 
HETATM   10  N17 MIQ B 502       8.748  12.618 -10.043  1.00139.42    -0.288 N 
HETATM   11  O16 MIQ B 502       9.821  10.431 -10.046  1.00148.93    -0.171 OA
ENDROOT
BRANCH  10  12
HETATM   12  C18 MIQ B 502       9.839  13.274  -9.347  1.00139.82     0.187 C 
HETATM   13  C19 MIQ B 502       9.250  14.002  -8.133  1.00140.06     0.247 C 
HETATM   14  O25 MIQ B 502       8.547  13.411  -7.392  1.00143.95    -0.271 OA
HETATM   15  N20 MIQ B 502       9.536  15.397  -7.866  1.00140.02    -0.296 N 
HETATM   16  H13 MIQ B 502       9.139  15.862  -7.074  1.00142.77     0.171 HD
HETATM   17  C21 MIQ B 502      10.387  16.099  -8.791  1.00142.22     0.224 C 
HETATM   18  C22 MIQ B 502      10.295  15.690 -10.248  1.00139.52     0.106 C 
HETATM   19  O24 MIQ B 502      11.124  16.949  -8.428  1.00146.13    -0.273 OA
HETATM   20  C23 MIQ B 502      10.593  14.202 -10.298  1.00139.15     0.045 C 
ENDBRANCH  10  12
BRANCH   5  21
HETATM   21  N6  MIQ B 502       3.505  11.162 -12.888  1.00140.95    -0.377 N 
HETATM   22  C7  MIQ B 502       3.112  12.387 -13.562  1.00142.12     0.149 C 
HETATM   23  C8  MIQ B 502       1.601  12.577 -13.562  1.00144.10     0.187 C 
HETATM   24  O9  MIQ B 502       0.910  11.430 -13.958  1.00148.65    -0.388 OA
HETATM   25  C10 MIQ B 502       1.580  10.212 -14.095  1.00147.44     0.187 C 
HETATM   26  C11 MIQ B 502       2.787   9.939 -13.205  1.00144.08     0.149 C 
ENDBRANCH   5  21
TORSDOF 2
ENDMDL
MODEL 5
REMARK VINA RESULT:      -7.4      1.312      2.304
REMARK  2 active torsions:
REMARK  status: ('A' for Active; 'I' for Inactive)
REMARK    1  A    between atoms: C5_5  and  N6_21 
REMARK    2  A    between atoms: C18_14  and  N17_19 
ROOT
HETATM    1  O1  MIQ B 502       8.096  13.697 -11.451  1.00142.91    -0.171 OA
HETATM    2  C2  MIQ B 502       7.806  12.387 -11.064  1.00141.17     0.195 A 
HETATM    3  C3  MIQ B 502       6.538  11.567 -11.462  1.00141.71     0.035 A 
HETATM    4  C4  MIQ B 502       5.349  11.869 -12.294  1.00142.86     0.046 A 
HETATM    5  C5  MIQ B 502       4.336  10.894 -12.477  1.00139.53     0.031 A 
HETATM    6  C12 MIQ B 502       4.466   9.589 -11.843  1.00139.38     0.030 A 
HETATM    7  C13 MIQ B 502       5.606   9.299 -11.047  1.00141.18     0.019 A 
HETATM    8  C14 MIQ B 502       6.668  10.326 -10.860  1.00138.77     0.033 A 
HETATM    9  C15 MIQ B 502       8.025  10.375 -10.085  1.00142.10     0.195 A 
HETATM   10  N17 MIQ B 502       8.526  11.580 -10.304  1.00139.42    -0.288 N 
HETATM   11  O16 MIQ B 502       8.587   9.354  -9.317  1.00148.93    -0.171 OA
ENDROOT
BRANCH  10  12
HETATM   12  C18 MIQ B 502       9.789  11.992  -9.719  1.00139.82     0.187 C 
HETATM   13  C19 MIQ B 502      10.873  11.030 -10.221  1.00140.06     0.247 C 
HETATM   14  O25 MIQ B 502      10.970  10.825 -11.378  1.00143.95    -0.271 OA
HETATM   15  N20 MIQ B 502      11.787  10.369  -9.312  1.00140.02    -0.296 N 
HETATM   16  H13 MIQ B 502      12.486   9.739  -9.651  1.00142.77     0.171 HD
HETATM   17  C21 MIQ B 502      11.642  10.628  -7.903  1.00142.22     0.224 C 
HETATM   18  C22 MIQ B 502      10.233  10.869  -7.396  1.00139.52     0.106 C 
HETATM   19  O24 MIQ B 502      12.577  10.655  -7.180  1.00146.13    -0.273 OA
HETATM   20  C23 MIQ B 502       9.680  12.034  -8.196  1.00139.15     0.045 C 
ENDBRANCH  10  12
BRANCH   5  21
HETATM   21  N6  MIQ B 502       3.170  11.208 -13.282  1.00140.95    -0.377 N 
HETATM   22  C7  MIQ B 502       2.083  10.246 -13.335  1.00142.12     0.149 C 
HETATM   23  C8  MIQ B 502       1.285  10.359 -14.628  1.00144.10     0.187 C 
HETATM   24  O9  MIQ B 502       0.933  11.675 -14.935  1.00148.65    -0.388 OA
HETATM   25  C10 MIQ B 502       1.486  12.741 -14.221  1.00147.44     0.187 C 
HETATM   26  C11 MIQ B 502       2.892  12.585 -13.649  1.00144.08     0.149 C 
ENDBRANCH   5  21
TORSDOF 2
ENDMDL
MODEL 6
REMARK VINA RESULT:      -7.2     19.876     22.158
REMARK  2 active torsions:
REMARK  status: ('A' for Active; 'I' for Inactive)
REMARK    1  A    between atoms: C5_5  and  N6_21 
REMARK    2  A    between atoms: C18_14  and  N17_19 
ROOT
HETATM    1  O1  MIQ B 502      17.078   7.395 -29.443  1.00142.91    -0.171 OA
HETATM    2  C2  MIQ B 502      17.457   8.557 -28.767  1.00141.17     0.195 A 
HETATM    3  C3  MIQ B 502      18.914   8.960 -28.372  1.00141.71     0.035 A 
HETATM    4  C4  MIQ B 502      20.236   8.320 -28.565  1.00142.86     0.046 A 
HETATM    5  C5  MIQ B 502      21.413   8.947 -28.084  1.00139.53     0.031 A 
HETATM    6  C12 MIQ B 502      21.321  10.227 -27.398  1.00139.38     0.030 A 
HETATM    7  C13 MIQ B 502      20.054  10.843 -27.214  1.00141.18     0.019 A 
HETATM    8  C14 MIQ B 502      18.821  10.181 -27.723  1.00138.77     0.033 A 
HETATM    9  C15 MIQ B 502      17.299  10.537 -27.715  1.00142.10     0.195 A 
HETATM   10  N17 MIQ B 502      16.687   9.539 -28.332  1.00139.42    -0.288 N 
HETATM   11  O16 MIQ B 502      16.710  11.677 -27.165  1.00148.93    -0.171 OA
ENDROOT
BRANCH  10  12
HETATM   12  C18 MIQ B 502      15.246   9.522 -28.499  1.00139.82     0.187 C 
HETATM   13  C19 MIQ B 502      14.845  10.805 -29.237  1.00140.06     0.247 C 
HETATM   14  O25 MIQ B 502      15.400  11.091 -30.238  1.00143.95    -0.271 OA
HETATM   15  N20 MIQ B 502      13.797  11.675 -28.743  1.00140.02    -0.296 N 
HETATM   16  H13 MIQ B 502      13.549  12.513 -29.231  1.00142.77     0.171 HD
HETATM   17  C21 MIQ B 502      13.141  11.310 -27.514  1.00142.22     0.224 C 
HETATM   18  C22 MIQ B 502      13.988  10.605 -26.473  1.00139.52     0.106 C 
HETATM   19  O24 MIQ B 502      11.997  11.545 -27.331  1.00146.13    -0.273 OA
HETATM   20  C23 MIQ B 502      14.556   9.368 -27.144  1.00139.15     0.045 C 
ENDBRANCH  10  12
BRANCH   5  21
HETATM   21  N6  MIQ B 502      22.700   8.300 -28.266  1.00140.95    -0.377 N 
HETATM   22  C7  MIQ B 502      22.769   7.112 -29.099  1.00142.12     0.149 C 
HETATM   23  C8  MIQ B 502      23.930   6.208 -28.706  1.00144.10     0.187 C 
HETATM   24  O9  MIQ B 502      25.133   6.902 -28.555  1.00148.65    -0.388 OA
HETATM   25  C10 MIQ B 502      25.147   8.299 -28.549  1.00147.44     0.187 C 
HETATM   26  C11 MIQ B 502      23.925   9.039 -28.014  1.00144.08     0.149 C 
ENDBRANCH   5  21
TORSDOF 2
ENDMDL
MODEL 7
REMARK VINA RESULT:      -6.9      2.076      8.793
REMARK  2 active torsions:
REMARK  status: ('A' for Active; 'I' for Inactive)
REMARK    1  A    between atoms: C5_5  and  N6_21 
REMARK    2  A    between atoms: C18_14  and  N17_19 
ROOT
HETATM    1  O1  MIQ B 502       3.520  13.930 -12.956  1.00142.91    -0.171 OA
HETATM    2  C2  MIQ B 502       3.453  12.544 -13.111  1.00141.17     0.195 A 
HETATM    3  C3  MIQ B 502       4.547  11.514 -12.685  1.00141.71     0.035 A 
HETATM    4  C4  MIQ B 502       5.876  11.646 -12.043  1.00142.86     0.046 A 
HETATM    5  C5  MIQ B 502       6.660  10.496 -11.774  1.00139.53     0.031 A 
HETATM    6  C12 MIQ B 502       6.155   9.178 -12.130  1.00139.38     0.030 A 
HETATM    7  C13 MIQ B 502       4.881   9.050 -12.745  1.00141.18     0.019 A 
HETATM    8  C14 MIQ B 502       4.061  10.262 -13.023  1.00138.77     0.033 A 
HETATM    9  C15 MIQ B 502       2.657  10.515 -13.662  1.00142.10     0.195 A 
HETATM   10  N17 MIQ B 502       2.473  11.825 -13.631  1.00139.42    -0.288 N 
HETATM   11  O16 MIQ B 502       1.780   9.552 -14.163  1.00148.93    -0.171 OA
ENDROOT
BRANCH  10  12
HETATM   12  C18 MIQ B 502       1.267  12.433 -14.162  1.00139.82     0.187 C 
HETATM   13  C19 MIQ B 502       0.111  11.449 -13.943  1.00140.06     0.247 C 
HETATM   14  O25 MIQ B 502      -0.061  10.994 -12.869  1.00143.95    -0.271 OA
HETATM   15  N20 MIQ B 502      -0.780  11.066 -15.019  1.00140.02    -0.296 N 
HETATM   16  H13 MIQ B 502      -1.527  10.418 -14.864  1.00142.77     0.171 HD
HETATM   17  C21 MIQ B 502      -0.542  11.628 -16.324  1.00142.22     0.224 C 
HETATM   18  C22 MIQ B 502       0.903  11.893 -16.698  1.00139.52     0.106 C 
HETATM   19  O24 MIQ B 502      -1.432  11.873 -17.062  1.00146.13    -0.273 OA
HETATM   20  C23 MIQ B 502       1.464  12.812 -15.629  1.00139.15     0.045 C 
ENDBRANCH  10  12
BRANCH   5  21
HETATM   21  N6  MIQ B 502       7.966  10.642 -11.157  1.00140.95    -0.377 N 
HETATM   22  C7  MIQ B 502       8.924  11.550 -11.765  1.00142.12     0.149 C 
HETATM   23  C8  MIQ B 502      10.361  11.148 -11.461  1.00144.10     0.187 C 
HETATM   24  O9  MIQ B 502      10.574  10.874 -10.108  1.00148.65    -0.388 OA
HETATM   25  C10 MIQ B 502       9.493  10.769  -9.229  1.00147.44     0.187 C 
HETATM   26  C11 MIQ B 502       8.160  10.262  -9.769  1.00144.08     0.149 C 
ENDBRANCH   5  21
TORSDOF 2
ENDMDL
MODEL 8
REMARK VINA RESULT:      -6.8      2.539      8.666
REMARK  2 active torsions:
REMARK  status: ('A' for Active; 'I' for Inactive)
REMARK    1  A    between atoms: C5_5  and  N6_21 
REMARK    2  A    between atoms: C18_14  and  N17_19 
ROOT
HETATM    1  O1  MIQ B 502       1.946  12.481 -13.510  1.00142.91    -0.171 OA
HETATM    2  C2  MIQ B 502       2.667  11.292 -13.376  1.00141.17     0.195 A 
HETATM    3  C3  MIQ B 502       4.102  11.146 -12.778  1.00141.71     0.035 A 
HETATM    4  C4  MIQ B 502       5.074  12.113 -12.212  1.00142.86     0.046 A 
HETATM    5  C5  MIQ B 502       6.332  11.668 -11.734  1.00139.53     0.031 A 
HETATM    6  C12 MIQ B 502       6.671  10.253 -11.799  1.00139.38     0.030 A 
HETATM    7  C13 MIQ B 502       5.739   9.326 -12.340  1.00141.18     0.019 A 
HETATM    8  C14 MIQ B 502       4.419   9.799 -12.838  1.00138.77     0.033 A 
HETATM    9  C15 MIQ B 502       3.172   9.104 -13.477  1.00142.10     0.195 A 
HETATM   10  N17 MIQ B 502       2.297  10.068 -13.711  1.00139.42    -0.288 N 
HETATM   11  O16 MIQ B 502       3.021   7.743 -13.747  1.00148.93    -0.171 OA
ENDROOT
BRANCH  10  12
HETATM   12  C18 MIQ B 502       1.010   9.791 -14.322  1.00139.82     0.187 C 
HETATM   13  C19 MIQ B 502       0.832  10.761 -15.496  1.00140.06     0.247 C 
HETATM   14  O25 MIQ B 502       1.690  10.857 -16.300  1.00143.95    -0.271 OA
HETATM   15  N20 MIQ B 502      -0.366  11.561 -15.651  1.00140.02    -0.296 N 
HETATM   16  H13 MIQ B 502      -0.467  12.196 -16.418  1.00142.77     0.171 HD
HETATM   17  C21 MIQ B 502      -1.395  11.435 -14.651  1.00142.22     0.224 C 
HETATM   18  C22 MIQ B 502      -0.936  11.162 -13.231  1.00139.52     0.106 C 
HETATM   19  O24 MIQ B 502      -2.540  11.534 -14.927  1.00146.13    -0.273 OA
HETATM   20  C23 MIQ B 502      -0.105   9.893 -13.283  1.00139.15     0.045 C 
ENDBRANCH  10  12
BRANCH   5  21
HETATM   21  N6  MIQ B 502       7.279  12.627 -11.196  1.00140.95    -0.377 N 
HETATM   22  C7  MIQ B 502       8.553  12.801 -11.874  1.00142.12     0.149 C 
HETATM   23  C8  MIQ B 502       9.641  13.286 -10.925  1.00144.10     0.187 C 
HETATM   24  O9  MIQ B 502       9.233  14.363 -10.136  1.00148.65    -0.388 OA
HETATM   25  C10 MIQ B 502       7.890  14.749 -10.104  1.00147.44     0.187 C 
HETATM   26  C11 MIQ B 502       6.820  13.681 -10.309  1.00144.08     0.149 C 
ENDBRANCH   5  21
TORSDOF 2
ENDMDL
MODEL 9
REMARK VINA RESULT:      -6.8     18.909     21.123
REMARK  2 active torsions:
REMARK  status: ('A' for Active; 'I' for Inactive)
REMARK    1  A    between atoms: C5_5  and  N6_21 
REMARK    2  A    between atoms: C18_14  and  N17_19 
ROOT
HETATM    1  O1  MIQ B 502      20.035   0.009 -14.214  1.00142.91    -0.171 OA
HETATM    2  C2  MIQ B 502      19.812  -1.370 -14.208  1.00141.17     0.195 A 
HETATM    3  C3  MIQ B 502      19.902  -2.313 -12.966  1.00141.71     0.035 A 
HETATM    4  C4  MIQ B 502      20.217  -2.087 -11.535  1.00142.86     0.046 A 
HETATM    5  C5  MIQ B 502      20.218  -3.172 -10.622  1.00139.53     0.031 A 
HETATM    6  C12 MIQ B 502      19.909  -4.514 -11.093  1.00139.38     0.030 A 
HETATM    7  C13 MIQ B 502      19.606  -4.731 -12.464  1.00141.18     0.019 A 
HETATM    8  C14 MIQ B 502      19.604  -3.588 -13.418  1.00138.77     0.033 A 
HETATM    9  C15 MIQ B 502      19.326  -3.435 -14.949  1.00142.10     0.195 A 
HETATM   10  N17 MIQ B 502      19.480  -2.150 -15.222  1.00139.42    -0.288 N 
HETATM   11  O16 MIQ B 502      18.987  -4.453 -15.843  1.00148.93    -0.171 OA
ENDROOT
BRANCH  10  12
HETATM   12  C18 MIQ B 502      19.314  -1.636 -16.569  1.00139.82     0.187 C 
HETATM   13  C19 MIQ B 502      17.951  -2.112 -17.086  1.00140.06     0.247 C 
HETATM   14  O25 MIQ B 502      16.990  -1.934 -16.425  1.00143.95    -0.271 OA
HETATM   15  N20 MIQ B 502      17.808  -2.770 -18.369  1.00140.02    -0.296 N 
HETATM   16  H13 MIQ B 502      16.914  -3.082 -18.692  1.00142.77     0.171 HD
HETATM   17  C21 MIQ B 502      18.997  -2.985 -19.152  1.00142.22     0.224 C 
HETATM   18  C22 MIQ B 502      20.278  -3.256 -18.387  1.00139.52     0.106 C 
HETATM   19  O24 MIQ B 502      18.974  -2.947 -20.333  1.00146.13    -0.273 OA
HETATM   20  C23 MIQ B 502      20.480  -2.076 -17.453  1.00139.15     0.045 C 
ENDBRANCH  10  12
BRANCH   5  21
HETATM   21  N6  MIQ B 502      20.543  -2.938  -9.226  1.00140.95    -0.377 N 
HETATM   22  C7  MIQ B 502      21.397  -3.894  -8.543  1.00142.12     0.149 C 
HETATM   23  C8  MIQ B 502      21.140  -3.914  -7.041  1.00144.10     0.187 C 
HETATM   24  O9  MIQ B 502      21.103  -2.637  -6.479  1.00148.65    -0.388 OA
HETATM   25  C10 MIQ B 502      21.076  -1.504  -7.296  1.00147.44     0.187 C 
HETATM   26  C11 MIQ B 502      20.407  -1.607  -8.663  1.00144.08     0.149 C 
ENDBRANCH   5  21
TORSDOF 2
ENDMDL
