MODEL 1
REMARK VINA RESULT:      -6.1      0.000      0.000
REMARK  2 active torsions:
REMARK  status: ('A' for Active; 'I' for Inactive)
REMARK    1  A    between atoms: C5_5  and  N6_21 
REMARK    2  A    between atoms: C18_14  and  N17_19 
ROOT
HETATM    1  O1  MIQ B 502     -15.802   4.300 -11.627  1.00142.91    -0.171 OA
HETATM    2  C2  MIQ B 502     -15.014   3.390 -12.337  1.00141.17     0.195 A 
HETATM    3  C3  MIQ B 502     -15.113   1.833 -12.265  1.00141.71     0.035 A 
HETATM    4  C4  MIQ B 502     -15.980   0.901 -11.506  1.00142.86     0.046 A 
HETATM    5  C5  MIQ B 502     -15.829  -0.501 -11.656  1.00139.53     0.031 A 
HETATM    6  C12 MIQ B 502     -14.816  -1.026 -12.561  1.00139.38     0.030 A 
HETATM    7  C13 MIQ B 502     -13.985  -0.133 -13.289  1.00141.18     0.019 A 
HETATM    8  C14 MIQ B 502     -14.150   1.338 -13.129  1.00138.77     0.033 A 
HETATM    9  C15 MIQ B 502     -13.450   2.595 -13.742  1.00142.10     0.195 A 
HETATM   10  N17 MIQ B 502     -14.048   3.645 -13.202  1.00139.42    -0.288 N 
HETATM   11  O16 MIQ B 502     -12.406   2.602 -14.668  1.00148.93    -0.171 OA
ENDROOT
BRANCH  10  12
HETATM   12  C18 MIQ B 502     -13.642   4.999 -13.530  1.00139.82     0.187 C 
HETATM   13  C19 MIQ B 502     -13.533   5.097 -15.056  1.00140.06     0.247 C 
HETATM   14  O25 MIQ B 502     -14.436   4.734 -15.723  1.00143.95    -0.271 OA
HETATM   15  N20 MIQ B 502     -12.352   5.630 -15.705  1.00140.02    -0.296 N 
HETATM   16  H13 MIQ B 502     -12.291   5.683 -16.703  1.00142.77     0.171 HD
HETATM   17  C21 MIQ B 502     -11.259   6.057 -14.870  1.00142.22     0.224 C 
HETATM   18  C22 MIQ B 502     -11.040   5.282 -13.586  1.00139.52     0.106 C 
HETATM   19  O24 MIQ B 502     -10.572   6.971 -15.171  1.00146.13    -0.273 OA
HETATM   20  C23 MIQ B 502     -12.342   5.354 -12.810  1.00139.15     0.045 C 
ENDBRANCH  10  12
BRANCH   5  21
HETATM   21  N6  MIQ B 502     -16.675  -1.403 -10.896  1.00140.95    -0.377 N 
HETATM   22  C7  MIQ B 502     -16.271  -1.764  -9.548  1.00142.12     0.149 C 
HETATM   23  C8  MIQ B 502     -16.823  -3.122  -9.134  1.00144.10     0.187 C 
HETATM   24  O9  MIQ B 502     -18.186  -3.260  -9.405  1.00148.65    -0.388 OA
HETATM   25  C10 MIQ B 502     -18.852  -2.312 -10.186  1.00147.44     0.187 C 
HETATM   26  C11 MIQ B 502     -18.068  -1.579 -11.270  1.00144.08     0.149 C 
ENDBRANCH   5  21
TORSDOF 2
ENDMDL
MODEL 2
REMARK VINA RESULT:      -5.8     28.471     29.671
REMARK  2 active torsions:
REMARK  status: ('A' for Active; 'I' for Inactive)
REMARK    1  A    between atoms: C5_5  and  N6_21 
REMARK    2  A    between atoms: C18_14  and  N17_19 
ROOT
HETATM    1  O1  MIQ B 502     -22.872  18.662   9.937  1.00142.91    -0.171 OA
HETATM    2  C2  MIQ B 502     -24.254  18.827   9.820  1.00141.17     0.195 A 
HETATM    3  C3  MIQ B 502     -25.336  17.721  10.036  1.00141.71     0.035 A 
HETATM    4  C4  MIQ B 502     -25.267  16.285  10.399  1.00142.86     0.046 A 
HETATM    5  C5  MIQ B 502     -26.455  15.521  10.525  1.00139.53     0.031 A 
HETATM    6  C12 MIQ B 502     -27.747  16.150  10.296  1.00139.38     0.030 A 
HETATM    7  C13 MIQ B 502     -27.813  17.527   9.948  1.00141.18     0.019 A 
HETATM    8  C14 MIQ B 502     -26.563  18.325   9.820  1.00138.77     0.033 A 
HETATM    9  C15 MIQ B 502     -26.242  19.815   9.470  1.00142.10     0.195 A 
HETATM   10  N17 MIQ B 502     -24.924  19.924   9.516  1.00139.42    -0.288 N 
HETATM   11  O16 MIQ B 502     -27.162  20.819   9.167  1.00148.93    -0.171 OA
ENDROOT
BRANCH  10  12
HETATM   12  C18 MIQ B 502     -24.259  21.181   9.226  1.00139.82     0.187 C 
HETATM   13  C19 MIQ B 502     -23.184  20.907   8.167  1.00140.06     0.247 C 
HETATM   14  O25 MIQ B 502     -23.481  20.328   7.182  1.00143.95    -0.271 OA
HETATM   15  N20 MIQ B 502     -21.814  21.345   8.337  1.00140.02    -0.296 N 
HETATM   16  H13 MIQ B 502     -21.121  21.154   7.641  1.00142.77     0.171 HD
HETATM   17  C21 MIQ B 502     -21.474  22.040   9.552  1.00142.22     0.224 C 
HETATM   18  C22 MIQ B 502     -22.217  21.622  10.806  1.00139.52     0.106 C 
HETATM   19  O24 MIQ B 502     -20.660  22.897   9.566  1.00146.13    -0.273 OA
HETATM   20  C23 MIQ B 502     -23.696  21.792  10.508  1.00139.15     0.045 C 
ENDBRANCH  10  12
BRANCH   5  21
HETATM   21  N6  MIQ B 502     -26.372  14.112  10.867  1.00140.95    -0.377 N 
HETATM   22  C7  MIQ B 502     -25.116  13.595  11.380  1.00142.12     0.149 C 
HETATM   23  C8  MIQ B 502     -24.952  12.108  11.088  1.00144.10     0.187 C 
HETATM   24  O9  MIQ B 502     -26.084  11.362  11.419  1.00148.65    -0.388 OA
HETATM   25  C10 MIQ B 502     -27.281  12.001  11.752  1.00147.44     0.187 C 
HETATM   26  C11 MIQ B 502     -27.586  13.355  11.119  1.00144.08     0.149 C 
ENDBRANCH   5  21
TORSDOF 2
ENDMDL
MODEL 3
REMARK VINA RESULT:      -5.8     24.408     27.182
REMARK  2 active torsions:
REMARK  status: ('A' for Active; 'I' for Inactive)
REMARK    1  A    between atoms: C5_5  and  N6_21 
REMARK    2  A    between atoms: C18_14  and  N17_19 
ROOT
HETATM    1  O1  MIQ B 502     -24.956   3.195  11.748  1.00142.91    -0.171 OA
HETATM    2  C2  MIQ B 502     -23.605   2.871  11.891  1.00141.17     0.195 A 
HETATM    3  C3  MIQ B 502     -22.473   3.829  12.381  1.00141.71     0.035 A 
HETATM    4  C4  MIQ B 502     -22.455   5.247  12.813  1.00142.86     0.046 A 
HETATM    5  C5  MIQ B 502     -21.240   5.858  13.214  1.00139.53     0.031 A 
HETATM    6  C12 MIQ B 502     -20.005   5.088  13.201  1.00139.38     0.030 A 
HETATM    7  C13 MIQ B 502     -20.022   3.729  12.788  1.00141.18     0.019 A 
HETATM    8  C14 MIQ B 502     -21.301   3.092  12.370  1.00138.77     0.033 A 
HETATM    9  C15 MIQ B 502     -21.707   1.666  11.871  1.00142.10     0.195 A 
HETATM   10  N17 MIQ B 502     -23.011   1.713  11.654  1.00139.42    -0.288 N 
HETATM   11  O16 MIQ B 502     -20.860   0.571  11.691  1.00148.93    -0.171 OA
ENDROOT
BRANCH  10  12
HETATM   12  C18 MIQ B 502     -23.739   0.558  11.163  1.00139.82     0.187 C 
HETATM   13  C19 MIQ B 502     -23.443  -0.616  12.103  1.00140.06     0.247 C 
HETATM   14  O25 MIQ B 502     -23.580  -0.472  13.266  1.00143.95    -0.271 OA
HETATM   15  N20 MIQ B 502     -23.005  -1.903  11.603  1.00140.02    -0.296 N 
HETATM   16  H13 MIQ B 502     -22.808  -2.660  12.228  1.00142.77     0.171 HD
HETATM   17  C21 MIQ B 502     -22.835  -2.052  10.180  1.00142.22     0.224 C 
HETATM   18  C22 MIQ B 502     -22.363  -0.828   9.419  1.00139.52     0.106 C 
HETATM   19  O24 MIQ B 502     -23.059  -3.076   9.635  1.00146.13    -0.273 OA
HETATM   20  C23 MIQ B 502     -23.366   0.274   9.709  1.00139.15     0.045 C 
ENDBRANCH  10  12
BRANCH   5  21
HETATM   21  N6  MIQ B 502     -21.235   7.252  13.621  1.00140.95    -0.377 N 
HETATM   22  C7  MIQ B 502     -21.420   8.273  12.605  1.00142.12     0.149 C 
HETATM   23  C8  MIQ B 502     -20.775   9.595  13.002  1.00144.10     0.187 C 
HETATM   24  O9  MIQ B 502     -21.093   9.984  14.305  1.00148.65    -0.388 OA
HETATM   25  C10 MIQ B 502     -21.740   9.099  15.171  1.00147.44     0.187 C 
HETATM   26  C11 MIQ B 502     -21.486   7.604  15.008  1.00144.08     0.149 C 
ENDBRANCH   5  21
TORSDOF 2
ENDMDL
MODEL 4
REMARK VINA RESULT:      -5.7     28.982     29.987
REMARK  2 active torsions:
REMARK  status: ('A' for Active; 'I' for Inactive)
REMARK    1  A    between atoms: C5_5  and  N6_21 
REMARK    2  A    between atoms: C18_14  and  N17_19 
ROOT
HETATM    1  O1  MIQ B 502     -27.011  20.903   9.563  1.00142.91    -0.171 OA
HETATM    2  C2  MIQ B 502     -26.074  19.869   9.615  1.00141.17     0.195 A 
HETATM    3  C3  MIQ B 502     -26.388  18.345   9.750  1.00141.71     0.035 A 
HETATM    4  C4  MIQ B 502     -27.647  17.570   9.854  1.00142.86     0.046 A 
HETATM    5  C5  MIQ B 502     -27.611  16.157   9.967  1.00139.53     0.031 A 
HETATM    6  C12 MIQ B 502     -26.330  15.465   9.981  1.00139.38     0.030 A 
HETATM    7  C13 MIQ B 502     -25.123  16.208   9.880  1.00141.18     0.019 A 
HETATM    8  C14 MIQ B 502     -25.167  17.691   9.759  1.00138.77     0.033 A 
HETATM    9  C15 MIQ B 502     -24.088  18.815   9.628  1.00142.10     0.195 A 
HETATM   10  N17 MIQ B 502     -24.756  19.955   9.557  1.00139.42    -0.288 N 
HETATM   11  O16 MIQ B 502     -22.703  18.645   9.596  1.00148.93    -0.171 OA
ENDROOT
BRANCH  10  12
HETATM   12  C18 MIQ B 502     -24.070  21.229   9.443  1.00139.82     0.187 C 
HETATM   13  C19 MIQ B 502     -23.054  21.112   8.300  1.00140.06     0.247 C 
HETATM   14  O25 MIQ B 502     -23.411  20.710   7.251  1.00143.95    -0.271 OA
HETATM   15  N20 MIQ B 502     -21.666  21.489   8.471  1.00140.02    -0.296 N 
HETATM   16  H13 MIQ B 502     -21.011  21.402   7.719  1.00142.77     0.171 HD
HETATM   17  C21 MIQ B 502     -21.251  21.968   9.764  1.00142.22     0.224 C 
HETATM   18  C22 MIQ B 502     -21.946  21.364  10.970  1.00139.52     0.106 C 
HETATM   19  O24 MIQ B 502     -20.414  22.795   9.878  1.00146.13    -0.273 OA
HETATM   20  C23 MIQ B 502     -23.432  21.610  10.778  1.00139.15     0.045 C 
ENDBRANCH  10  12
BRANCH   5  21
HETATM   21  N6  MIQ B 502     -28.851  15.411  10.083  1.00140.95    -0.377 N 
HETATM   22  C7  MIQ B 502     -30.098  16.083   9.760  1.00142.12     0.149 C 
HETATM   23  C8  MIQ B 502     -31.281  15.474  10.502  1.00144.10     0.187 C 
HETATM   24  O9  MIQ B 502     -31.315  14.081  10.420  1.00148.65    -0.388 OA
HETATM   25  C10 MIQ B 502     -30.226  13.375   9.902  1.00147.44     0.187 C 
HETATM   26  C11 MIQ B 502     -28.828  13.959  10.079  1.00144.08     0.149 C 
ENDBRANCH   5  21
TORSDOF 2
ENDMDL
MODEL 5
REMARK VINA RESULT:      -5.7      1.713      2.599
REMARK  2 active torsions:
REMARK  status: ('A' for Active; 'I' for Inactive)
REMARK    1  A    between atoms: C5_5  and  N6_21 
REMARK    2  A    between atoms: C18_14  and  N17_19 
ROOT
HETATM    1  O1  MIQ B 502     -12.636   0.904 -12.498  1.00142.91    -0.171 OA
HETATM    2  C2  MIQ B 502     -13.627   1.860 -12.728  1.00141.17     0.195 A 
HETATM    3  C3  MIQ B 502     -15.162   1.671 -12.504  1.00141.71     0.035 A 
HETATM    4  C4  MIQ B 502     -15.989   0.539 -12.022  1.00142.86     0.046 A 
HETATM    5  C5  MIQ B 502     -17.397   0.672 -11.922  1.00139.53     0.031 A 
HETATM    6  C12 MIQ B 502     -18.032   1.928 -12.294  1.00139.38     0.030 A 
HETATM    7  C13 MIQ B 502     -17.239   3.014 -12.755  1.00141.18     0.019 A 
HETATM    8  C14 MIQ B 502     -15.761   2.869 -12.856  1.00138.77     0.033 A 
HETATM    9  C15 MIQ B 502     -14.593   3.808 -13.300  1.00142.10     0.195 A 
HETATM   10  N17 MIQ B 502     -13.484   3.099 -13.167  1.00139.42    -0.288 N 
HETATM   11  O16 MIQ B 502     -14.703   5.125 -13.748  1.00148.93    -0.171 OA
ENDROOT
BRANCH  10  12
HETATM   12  C18 MIQ B 502     -12.186   3.651 -13.508  1.00139.82     0.187 C 
HETATM   13  C19 MIQ B 502     -12.059   5.011 -12.809  1.00140.06     0.247 C 
HETATM   14  O25 MIQ B 502     -12.280   5.088 -11.653  1.00143.95    -0.271 OA
HETATM   15  N20 MIQ B 502     -11.668   6.206 -13.529  1.00140.02    -0.296 N 
HETATM   16  H13 MIQ B 502     -11.595   7.088 -13.063  1.00142.77     0.171 HD
HETATM   17  C21 MIQ B 502     -11.413   6.089 -14.942  1.00142.22     0.224 C 
HETATM   18  C22 MIQ B 502     -12.247   5.077 -15.703  1.00139.52     0.106 C 
HETATM   19  O24 MIQ B 502     -10.589   6.746 -15.478  1.00146.13    -0.273 OA
HETATM   20  C23 MIQ B 502     -12.026   3.737 -15.025  1.00139.15     0.045 C 
ENDBRANCH  10  12
BRANCH   5  21
HETATM   21  N6  MIQ B 502     -18.196  -0.449 -11.463  1.00140.95    -0.377 N 
HETATM   22  C7  MIQ B 502     -17.516  -1.666 -11.054  1.00142.12     0.149 C 
HETATM   23  C8  MIQ B 502     -18.399  -2.896 -11.223  1.00144.10     0.187 C 
HETATM   24  O9  MIQ B 502     -19.680  -2.722 -10.697  1.00148.65    -0.388 OA
HETATM   25  C10 MIQ B 502     -20.112  -1.457 -10.288  1.00147.44     0.187 C 
HETATM   26  C11 MIQ B 502     -19.557  -0.230 -11.004  1.00144.08     0.149 C 
ENDBRANCH   5  21
TORSDOF 2
ENDMDL
MODEL 6
REMARK VINA RESULT:      -5.6     26.894     28.827
REMARK  2 active torsions:
REMARK  status: ('A' for Active; 'I' for Inactive)
REMARK    1  A    between atoms: C5_5  and  N6_21 
REMARK    2  A    between atoms: C18_14  and  N17_19 
ROOT
HETATM    1  O1  MIQ B 502     -17.157  13.798  12.111  1.00142.91    -0.171 OA
HETATM    2  C2  MIQ B 502     -17.124  15.098  11.601  1.00141.17     0.195 A 
HETATM    3  C3  MIQ B 502     -15.857  15.999  11.455  1.00141.71     0.035 A 
HETATM    4  C4  MIQ B 502     -14.423  15.800  11.770  1.00142.86     0.046 A 
HETATM    5  C5  MIQ B 502     -13.483  16.831  11.517  1.00139.53     0.031 A 
HETATM    6  C12 MIQ B 502     -13.932  18.092  10.943  1.00139.38     0.030 A 
HETATM    7  C13 MIQ B 502     -15.307  18.283  10.640  1.00141.18     0.019 A 
HETATM    8  C14 MIQ B 502     -16.288  17.196  10.906  1.00138.77     0.033 A 
HETATM    9  C15 MIQ B 502     -17.831  17.036  10.710  1.00142.10     0.195 A 
HETATM   10  N17 MIQ B 502     -18.130  15.822  11.140  1.00139.42    -0.288 N 
HETATM   11  O16 MIQ B 502     -18.710  17.987  10.188  1.00148.93    -0.171 OA
ENDROOT
BRANCH  10  12
HETATM   12  C18 MIQ B 502     -19.494  15.327  11.124  1.00139.82     0.187 C 
HETATM   13  C19 MIQ B 502     -20.045  15.520   9.706  1.00140.06     0.247 C 
HETATM   14  O25 MIQ B 502     -19.421  15.123   8.787  1.00143.95    -0.271 OA
HETATM   15  N20 MIQ B 502     -21.315  16.173   9.462  1.00140.02    -0.296 N 
HETATM   16  H13 MIQ B 502     -21.660  16.299   8.531  1.00142.77     0.171 HD
HETATM   17  C21 MIQ B 502     -22.052  16.659  10.600  1.00142.22     0.224 C 
HETATM   18  C22 MIQ B 502     -21.238  17.170  11.773  1.00139.52     0.106 C 
HETATM   19  O24 MIQ B 502     -23.234  16.654  10.618  1.00146.13    -0.273 OA
HETATM   20  C23 MIQ B 502     -20.327  16.030  12.194  1.00139.15     0.045 C 
ENDBRANCH  10  12
BRANCH   5  21
HETATM   21  N6  MIQ B 502     -12.084  16.628  11.844  1.00140.95    -0.377 N 
HETATM   22  C7  MIQ B 502     -11.434  15.412  11.387  1.00142.12     0.149 C 
HETATM   23  C8  MIQ B 502     -10.266  15.020  12.284  1.00144.10     0.187 C 
HETATM   24  O9  MIQ B 502      -9.410  16.087  12.559  1.00148.65    -0.388 OA
HETATM   25  C10 MIQ B 502      -9.772  17.392  12.214  1.00147.44     0.187 C 
HETATM   26  C11 MIQ B 502     -11.252  17.761  12.208  1.00144.08     0.149 C 
ENDBRANCH   5  21
TORSDOF 2
ENDMDL
MODEL 7
REMARK VINA RESULT:      -5.6     27.622     28.839
REMARK  2 active torsions:
REMARK  status: ('A' for Active; 'I' for Inactive)
REMARK    1  A    between atoms: C5_5  and  N6_21 
REMARK    2  A    between atoms: C18_14  and  N17_19 
ROOT
HETATM    1  O1  MIQ B 502     -13.964  15.127  12.557  1.00142.91    -0.171 OA
HETATM    2  C2  MIQ B 502     -14.010  16.390  11.962  1.00141.17     0.195 A 
HETATM    3  C3  MIQ B 502     -15.277  17.083  11.366  1.00141.71     0.035 A 
HETATM    4  C4  MIQ B 502     -16.698  16.679  11.248  1.00142.86     0.046 A 
HETATM    5  C5  MIQ B 502     -17.642  17.547  10.642  1.00139.53     0.031 A 
HETATM    6  C12 MIQ B 502     -17.211  18.842  10.135  1.00139.38     0.030 A 
HETATM    7  C13 MIQ B 502     -15.848  19.230  10.249  1.00141.18     0.019 A 
HETATM    8  C14 MIQ B 502     -14.863  18.315  10.888  1.00138.77     0.033 A 
HETATM    9  C15 MIQ B 502     -13.330  18.388  11.189  1.00142.10     0.195 A 
HETATM   10  N17 MIQ B 502     -13.021  17.249  11.785  1.00139.42    -0.288 N 
HETATM   11  O16 MIQ B 502     -12.468  19.443  10.885  1.00148.93    -0.171 OA
ENDROOT
BRANCH  10  12
HETATM   12  C18 MIQ B 502     -11.661  16.956  12.200  1.00139.82     0.187 C 
HETATM   13  C19 MIQ B 502     -11.266  15.606  11.588  1.00140.06     0.247 C 
HETATM   14  O25 MIQ B 502     -11.421  15.431  10.432  1.00143.95    -0.271 OA
HETATM   15  N20 MIQ B 502     -10.701  14.541  12.390  1.00140.02    -0.296 N 
HETATM   16  H13 MIQ B 502     -10.453  13.662  11.980  1.00142.77     0.171 HD
HETATM   17  C21 MIQ B 502     -10.531  14.775  13.801  1.00142.22     0.224 C 
HETATM   18  C22 MIQ B 502     -11.563  15.660  14.473  1.00139.52     0.106 C 
HETATM   19  O24 MIQ B 502      -9.628  14.305  14.401  1.00146.13    -0.273 OA
HETATM   20  C23 MIQ B 502     -11.554  16.980  13.724  1.00139.15     0.045 C 
ENDBRANCH  10  12
BRANCH   5  21
HETATM   21  N6  MIQ B 502     -19.027  17.133  10.520  1.00140.95    -0.377 N 
HETATM   22  C7  MIQ B 502     -19.929  17.950   9.726  1.00142.12     0.149 C 
HETATM   23  C8  MIQ B 502     -21.375  17.809  10.182  1.00144.10     0.187 C 
HETATM   24  O9  MIQ B 502     -21.766  16.479  10.349  1.00148.65    -0.388 OA
HETATM   25  C10 MIQ B 502     -20.817  15.454  10.313  1.00147.44     0.187 C 
HETATM   26  C11 MIQ B 502     -19.399  15.755  10.787  1.00144.08     0.149 C 
ENDBRANCH   5  21
TORSDOF 2
ENDMDL
MODEL 8
REMARK VINA RESULT:      -5.6     14.970     16.552
REMARK  2 active torsions:
REMARK  status: ('A' for Active; 'I' for Inactive)
REMARK    1  A    between atoms: C5_5  and  N6_21 
REMARK    2  A    between atoms: C18_14  and  N17_19 
ROOT
HETATM    1  O1  MIQ B 502     -24.475  14.860  -7.887  1.00142.91    -0.171 OA
HETATM    2  C2  MIQ B 502     -25.524  13.956  -8.070  1.00141.17     0.195 A 
HETATM    3  C3  MIQ B 502     -25.387  12.411  -8.262  1.00141.71     0.035 A 
HETATM    4  C4  MIQ B 502     -24.228  11.489  -8.307  1.00142.86     0.046 A 
HETATM    5  C5  MIQ B 502     -24.426  10.098  -8.499  1.00139.53     0.031 A 
HETATM    6  C12 MIQ B 502     -25.776   9.575  -8.653  1.00139.38     0.030 A 
HETATM    7  C13 MIQ B 502     -26.887  10.459  -8.610  1.00141.18     0.019 A 
HETATM    8  C14 MIQ B 502     -26.674  11.918  -8.405  1.00138.77     0.033 A 
HETATM    9  C15 MIQ B 502     -27.614  13.163  -8.300  1.00142.10     0.195 A 
HETATM   10  N17 MIQ B 502     -26.821  14.205  -8.113  1.00139.42    -0.288 N 
HETATM   11  O16 MIQ B 502     -29.007  13.167  -8.389  1.00148.93    -0.171 OA
ENDROOT
BRANCH  10  12
HETATM   12  C18 MIQ B 502     -27.354  15.548  -7.986  1.00139.82     0.187 C 
HETATM   13  C19 MIQ B 502     -26.632  16.437  -9.006  1.00140.06     0.247 C 
HETATM   14  O25 MIQ B 502     -26.575  16.091 -10.132  1.00143.95    -0.271 OA
HETATM   15  N20 MIQ B 502     -26.021  17.694  -8.627  1.00140.02    -0.296 N 
HETATM   16  H13 MIQ B 502     -25.547  18.262  -9.301  1.00142.77     0.171 HD
HETATM   17  C21 MIQ B 502     -26.095  18.090  -7.244  1.00142.22     0.224 C 
HETATM   18  C22 MIQ B 502     -26.059  16.978  -6.214  1.00139.52     0.106 C 
HETATM   19  O24 MIQ B 502     -26.184  19.226  -6.930  1.00146.13    -0.273 OA
HETATM   20  C23 MIQ B 502     -27.208  16.044  -6.548  1.00139.15     0.045 C 
ENDBRANCH  10  12
BRANCH   5  21
HETATM   21  N6  MIQ B 502     -23.281   9.208  -8.556  1.00140.95    -0.377 N 
HETATM   22  C7  MIQ B 502     -21.953   9.790  -8.644  1.00142.12     0.149 C 
HETATM   23  C8  MIQ B 502     -20.964   8.850  -9.322  1.00144.10     0.187 C 
HETATM   24  O9  MIQ B 502     -21.014   7.550  -8.815  1.00148.65    -0.388 OA
HETATM   25  C10 MIQ B 502     -22.042   7.167  -7.950  1.00147.44     0.187 C 
HETATM   26  C11 MIQ B 502     -23.405   7.836  -8.095  1.00144.08     0.149 C 
ENDBRANCH   5  21
TORSDOF 2
ENDMDL
MODEL 9
REMARK VINA RESULT:      -5.6      1.872      2.478
REMARK  2 active torsions:
REMARK  status: ('A' for Active; 'I' for Inactive)
REMARK    1  A    between atoms: C5_5  and  N6_21 
REMARK    2  A    between atoms: C18_14  and  N17_19 
ROOT
HETATM    1  O1  MIQ B 502     -17.230   3.570 -13.750  1.00142.91    -0.171 OA
HETATM    2  C2  MIQ B 502     -16.339   2.773 -13.028  1.00141.17     0.195 A 
HETATM    3  C3  MIQ B 502     -16.710   1.521 -12.170  1.00141.71     0.035 A 
HETATM    4  C4  MIQ B 502     -17.988   0.833 -11.870  1.00142.86     0.046 A 
HETATM    5  C5  MIQ B 502     -18.007  -0.313 -11.035  1.00139.53     0.031 A 
HETATM    6  C12 MIQ B 502     -16.762  -0.816 -10.470  1.00139.38     0.030 A 
HETATM    7  C13 MIQ B 502     -15.537  -0.157 -10.758  1.00141.18     0.019 A 
HETATM    8  C14 MIQ B 502     -15.523   1.044 -11.637  1.00138.77     0.033 A 
HETATM    9  C15 MIQ B 502     -14.409   2.005 -12.169  1.00142.10     0.195 A 
HETATM   10  N17 MIQ B 502     -15.027   2.899 -12.922  1.00139.42    -0.288 N 
HETATM   11  O16 MIQ B 502     -13.042   1.930 -11.898  1.00148.93    -0.171 OA
ENDROOT
BRANCH  10  12
HETATM   12  C18 MIQ B 502     -14.300   3.971 -13.575  1.00139.82     0.187 C 
HETATM   13  C19 MIQ B 502     -13.128   3.344 -14.339  1.00140.06     0.247 C 
HETATM   14  O25 MIQ B 502     -13.333   2.441 -15.070  1.00143.95    -0.271 OA
HETATM   15  N20 MIQ B 502     -11.772   3.831 -14.191  1.00140.02    -0.296 N 
HETATM   16  H13 MIQ B 502     -11.014   3.409 -14.690  1.00142.77     0.171 HD
HETATM   17  C21 MIQ B 502     -11.544   4.927 -13.284  1.00142.22     0.224 C 
HETATM   18  C22 MIQ B 502     -12.427   4.987 -12.053  1.00139.52     0.106 C 
HETATM   19  O24 MIQ B 502     -10.713   5.740 -13.495  1.00146.13    -0.273 OA
HETATM   20  C23 MIQ B 502     -13.860   5.017 -12.552  1.00139.15     0.045 C 
ENDBRANCH  10  12
BRANCH   5  21
HETATM   21  N6  MIQ B 502     -19.267  -0.967 -10.738  1.00140.95    -0.377 N 
HETATM   22  C7  MIQ B 502     -19.242  -2.336 -10.252  1.00142.12     0.149 C 
HETATM   23  C8  MIQ B 502     -20.524  -3.084 -10.591  1.00144.10     0.187 C 
HETATM   24  O9  MIQ B 502     -21.676  -2.361 -10.274  1.00148.65    -0.388 OA
HETATM   25  C10 MIQ B 502     -21.587  -1.014  -9.912  1.00147.44     0.187 C 
HETATM   26  C11 MIQ B 502     -20.460  -0.172 -10.500  1.00144.08     0.149 C 
ENDBRANCH   5  21
TORSDOF 2
ENDMDL
