MODEL 1
REMARK VINA RESULT:      -6.6      0.000      0.000
REMARK  2 active torsions:
REMARK  status: ('A' for Active; 'I' for Inactive)
REMARK    1  A    between atoms: C5_5  and  N6_21 
REMARK    2  A    between atoms: C18_14  and  N17_19 
ROOT
HETATM    1  O1  MIQ B 502      19.466 -16.524  14.101  1.00142.91    -0.171 OA
HETATM    2  C2  MIQ B 502      19.229 -17.835  13.680  1.00141.17     0.195 A 
HETATM    3  C3  MIQ B 502      20.154 -19.067  13.937  1.00141.71     0.035 A 
HETATM    4  C4  MIQ B 502      21.448 -19.241  14.638  1.00142.86     0.046 A 
HETATM    5  C5  MIQ B 502      22.059 -20.519  14.708  1.00139.53     0.031 A 
HETATM    6  C12 MIQ B 502      21.411 -21.665  14.087  1.00139.38     0.030 A 
HETATM    7  C13 MIQ B 502      20.169 -21.498  13.415  1.00141.18     0.019 A 
HETATM    8  C14 MIQ B 502      19.531 -20.155  13.347  1.00138.77     0.033 A 
HETATM    9  C15 MIQ B 502      18.212 -19.596  12.722  1.00142.10     0.195 A 
HETATM   10  N17 MIQ B 502      18.198 -18.302  12.998  1.00139.42    -0.288 N 
HETATM   11  O16 MIQ B 502      17.250 -20.319  12.014  1.00148.93    -0.171 OA
ENDROOT
BRANCH  10  12
HETATM   12  C18 MIQ B 502      17.115 -17.445  12.553  1.00139.82     0.187 C 
HETATM   13  C19 MIQ B 502      17.736 -16.242  11.832  1.00140.06     0.247 C 
HETATM   14  O25 MIQ B 502      18.529 -16.429  10.978  1.00143.95    -0.271 OA
HETATM   15  N20 MIQ B 502      17.372 -14.880  12.165  1.00140.02    -0.296 N 
HETATM   16  H13 MIQ B 502      17.789 -14.104  11.692  1.00142.77     0.171 HD
HETATM   17  C21 MIQ B 502      16.409 -14.678  13.218  1.00142.22     0.224 C 
HETATM   18  C22 MIQ B 502      16.427 -15.677  14.358  1.00139.52     0.106 C 
HETATM   19  O24 MIQ B 502      15.642 -13.780  13.189  1.00146.13    -0.273 OA
HETATM   20  C23 MIQ B 502      16.231 -17.047  13.734  1.00139.15     0.045 C 
ENDBRANCH  10  12
BRANCH   5  21
HETATM   21  N6  MIQ B 502      23.334 -20.672  15.385  1.00140.95    -0.377 N 
HETATM   22  C7  MIQ B 502      23.414 -20.342  16.797  1.00142.12     0.149 C 
HETATM   23  C8  MIQ B 502      24.822 -19.926  17.205  1.00144.10     0.187 C 
HETATM   24  O9  MIQ B 502      25.803 -20.804  16.741  1.00148.65    -0.388 OA
HETATM   25  C10 MIQ B 502      25.482 -21.798  15.813  1.00147.44     0.187 C 
HETATM   26  C11 MIQ B 502      24.358 -21.531  14.817  1.00144.08     0.149 C 
ENDBRANCH   5  21
TORSDOF 2
ENDMDL
MODEL 2
REMARK VINA RESULT:      -6.5      3.222      4.194
REMARK  2 active torsions:
REMARK  status: ('A' for Active; 'I' for Inactive)
REMARK    1  A    between atoms: C5_5  and  N6_21 
REMARK    2  A    between atoms: C18_14  and  N17_19 
ROOT
HETATM    1  O1  MIQ B 502      15.519 -17.523  14.440  1.00142.91    -0.171 OA
HETATM    2  C2  MIQ B 502      16.729 -17.215  13.813  1.00141.17     0.195 A 
HETATM    3  C3  MIQ B 502      18.150 -17.306  14.455  1.00141.71     0.035 A 
HETATM    4  C4  MIQ B 502      18.638 -17.708  15.795  1.00142.86     0.046 A 
HETATM    5  C5  MIQ B 502      20.025 -17.688  16.088  1.00139.53     0.031 A 
HETATM    6  C12 MIQ B 502      20.974 -17.271  15.065  1.00139.38     0.030 A 
HETATM    7  C13 MIQ B 502      20.506 -16.887  13.780  1.00141.18     0.019 A 
HETATM    8  C14 MIQ B 502      19.049 -16.912  13.477  1.00138.77     0.033 A 
HETATM    9  C15 MIQ B 502      18.181 -16.575  12.221  1.00142.10     0.195 A 
HETATM   10  N17 MIQ B 502      16.926 -16.798  12.574  1.00139.42    -0.288 N 
HETATM   11  O16 MIQ B 502      18.643 -16.127  10.982  1.00148.93    -0.171 OA
ENDROOT
BRANCH  10  12
HETATM   12  C18 MIQ B 502      15.828 -16.573  11.652  1.00139.82     0.187 C 
HETATM   13  C19 MIQ B 502      14.825 -15.637  12.337  1.00140.06     0.247 C 
HETATM   14  O25 MIQ B 502      15.211 -14.631  12.817  1.00143.95    -0.271 OA
HETATM   15  N20 MIQ B 502      13.413 -15.952  12.409  1.00140.02    -0.296 N 
HETATM   16  H13 MIQ B 502      12.769 -15.336  12.865  1.00142.77     0.171 HD
HETATM   17  C21 MIQ B 502      12.968 -17.192  11.825  1.00142.22     0.224 C 
HETATM   18  C22 MIQ B 502      13.931 -18.361  11.894  1.00139.52     0.106 C 
HETATM   19  O24 MIQ B 502      11.906 -17.288  11.315  1.00146.13    -0.273 OA
HETATM   20  C23 MIQ B 502      15.213 -17.904  11.222  1.00139.15     0.045 C 
ENDBRANCH  10  12
BRANCH   5  21
HETATM   21  N6  MIQ B 502      20.489 -18.070  17.410  1.00140.95    -0.377 N 
HETATM   22  C7  MIQ B 502      21.751 -17.531  17.886  1.00142.12     0.149 C 
HETATM   23  C8  MIQ B 502      22.411 -18.447  18.908  1.00144.10     0.187 C 
HETATM   24  O9  MIQ B 502      21.531 -18.874  19.904  1.00148.65    -0.388 OA
HETATM   25  C10 MIQ B 502      20.158 -18.642  19.783  1.00147.44     0.187 C 
HETATM   26  C11 MIQ B 502      19.548 -18.592  18.386  1.00144.08     0.149 C 
ENDBRANCH   5  21
TORSDOF 2
ENDMDL
MODEL 3
REMARK VINA RESULT:      -6.5      2.645      8.419
REMARK  2 active torsions:
REMARK  status: ('A' for Active; 'I' for Inactive)
REMARK    1  A    between atoms: C5_5  and  N6_21 
REMARK    2  A    between atoms: C18_14  and  N17_19 
ROOT
HETATM    1  O1  MIQ B 502      18.248 -20.618  14.265  1.00142.91    -0.171 OA
HETATM    2  C2  MIQ B 502      18.676 -19.303  14.068  1.00141.17     0.195 A 
HETATM    3  C3  MIQ B 502      17.787 -18.102  13.610  1.00141.71     0.035 A 
HETATM    4  C4  MIQ B 502      16.350 -17.970  13.272  1.00142.86     0.046 A 
HETATM    5  C5  MIQ B 502      15.819 -16.714  12.881  1.00139.53     0.031 A 
HETATM    6  C12 MIQ B 502      16.691 -15.551  12.812  1.00139.38     0.030 A 
HETATM    7  C13 MIQ B 502      18.068 -15.677  13.138  1.00141.18     0.019 A 
HETATM    8  C14 MIQ B 502      18.620 -16.997  13.550  1.00138.77     0.033 A 
HETATM    9  C15 MIQ B 502      20.033 -17.514  13.973  1.00142.10     0.195 A 
HETATM   10  N17 MIQ B 502      19.890 -18.804  14.228  1.00139.42    -0.288 N 
HETATM   11  O16 MIQ B 502      21.206 -16.762  14.060  1.00148.93    -0.171 OA
ENDROOT
BRANCH  10  12
HETATM   12  C18 MIQ B 502      21.013 -19.625  14.638  1.00139.82     0.187 C 
HETATM   13  C19 MIQ B 502      21.035 -20.870  13.743  1.00140.06     0.247 C 
HETATM   14  O25 MIQ B 502      20.991 -20.738  12.572  1.00143.95    -0.271 OA
HETATM   15  N20 MIQ B 502      21.114 -22.207  14.296  1.00140.02    -0.296 N 
HETATM   16  H13 MIQ B 502      21.120 -23.012  13.701  1.00142.77     0.171 HD
HETATM   17  C21 MIQ B 502      21.156 -22.342  15.729  1.00142.22     0.224 C 
HETATM   18  C22 MIQ B 502      20.380 -21.317  16.534  1.00139.52     0.106 C 
HETATM   19  O24 MIQ B 502      21.770 -23.208  16.250  1.00146.13    -0.273 OA
HETATM   20  C23 MIQ B 502      20.914 -19.956  16.126  1.00139.15     0.045 C 
ENDBRANCH  10  12
BRANCH   5  21
HETATM   21  N6  MIQ B 502      14.413 -16.602  12.538  1.00140.95    -0.377 N 
HETATM   22  C7  MIQ B 502      13.860 -15.280  12.298  1.00142.12     0.149 C 
HETATM   23  C8  MIQ B 502      12.366 -15.227  12.590  1.00144.10     0.187 C 
HETATM   24  O9  MIQ B 502      11.661 -16.283  12.009  1.00148.65    -0.388 OA
HETATM   25  C10 MIQ B 502      12.344 -17.360  11.438  1.00147.44     0.187 C 
HETATM   26  C11 MIQ B 502      13.699 -17.754  12.016  1.00144.08     0.149 C 
ENDBRANCH   5  21
TORSDOF 2
ENDMDL
MODEL 4
REMARK VINA RESULT:      -6.3      7.494     11.237
REMARK  2 active torsions:
REMARK  status: ('A' for Active; 'I' for Inactive)
REMARK    1  A    between atoms: C5_5  and  N6_21 
REMARK    2  A    between atoms: C18_14  and  N17_19 
ROOT
HETATM    1  O1  MIQ B 502      14.706  -9.734  18.220  1.00142.91    -0.171 OA
HETATM    2  C2  MIQ B 502      14.212 -10.947  18.707  1.00141.17     0.195 A 
HETATM    3  C3  MIQ B 502      14.066 -12.275  17.899  1.00141.71     0.035 A 
HETATM    4  C4  MIQ B 502      14.370 -12.654  16.498  1.00142.86     0.046 A 
HETATM    5  C5  MIQ B 502      14.123 -13.974  16.043  1.00139.53     0.031 A 
HETATM    6  C12 MIQ B 502      13.568 -14.961  16.958  1.00139.38     0.030 A 
HETATM    7  C13 MIQ B 502      13.277 -14.598  18.301  1.00141.18     0.019 A 
HETATM    8  C14 MIQ B 502      13.540 -13.212  18.773  1.00138.77     0.033 A 
HETATM    9  C15 MIQ B 502      13.360 -12.461  20.133  1.00142.10     0.195 A 
HETATM   10  N17 MIQ B 502      13.780 -11.224  19.926  1.00139.42    -0.288 N 
HETATM   11  O16 MIQ B 502      12.856 -12.993  21.321  1.00148.93    -0.171 OA
ENDROOT
BRANCH  10  12
HETATM   12  C18 MIQ B 502      13.745 -10.226  20.978  1.00139.82     0.187 C 
HETATM   13  C19 MIQ B 502      12.944  -9.026  20.458  1.00140.06     0.247 C 
HETATM   14  O25 MIQ B 502      11.878  -9.206  19.986  1.00143.95    -0.271 OA
HETATM   15  N20 MIQ B 502      13.458  -7.674  20.535  1.00140.02    -0.296 N 
HETATM   16  H13 MIQ B 502      12.928  -6.899  20.186  1.00142.77     0.171 HD
HETATM   17  C21 MIQ B 502      14.766  -7.480  21.106  1.00142.22     0.224 C 
HETATM   18  C22 MIQ B 502      15.781  -8.582  20.872  1.00139.52     0.106 C 
HETATM   19  O24 MIQ B 502      15.030  -6.513  21.731  1.00146.13    -0.273 OA
HETATM   20  C23 MIQ B 502      15.163  -9.860  21.412  1.00139.15     0.045 C 
ENDBRANCH  10  12
BRANCH   5  21
HETATM   21  N6  MIQ B 502      14.413 -14.327  14.666  1.00140.95    -0.377 N 
HETATM   22  C7  MIQ B 502      15.788 -14.257  14.205  1.00142.12     0.149 C 
HETATM   23  C8  MIQ B 502      15.873 -14.013  12.703  1.00144.10     0.187 C 
HETATM   24  O9  MIQ B 502      15.040 -14.857  11.968  1.00148.65    -0.388 OA
HETATM   25  C10 MIQ B 502      14.087 -15.649  12.613  1.00147.44     0.187 C 
HETATM   26  C11 MIQ B 502      13.472 -15.138  13.912  1.00144.08     0.149 C 
ENDBRANCH   5  21
TORSDOF 2
ENDMDL
MODEL 5
REMARK VINA RESULT:      -6.2      4.904      6.317
REMARK  2 active torsions:
REMARK  status: ('A' for Active; 'I' for Inactive)
REMARK    1  A    between atoms: C5_5  and  N6_21 
REMARK    2  A    between atoms: C18_14  and  N17_19 
ROOT
HETATM    1  O1  MIQ B 502      14.291 -16.682  10.731  1.00142.91    -0.171 OA
HETATM    2  C2  MIQ B 502      15.045 -17.105  11.828  1.00141.17     0.195 A 
HETATM    3  C3  MIQ B 502      15.792 -18.469  11.963  1.00141.71     0.035 A 
HETATM    4  C4  MIQ B 502      15.940 -19.643  11.069  1.00142.86     0.046 A 
HETATM    5  C5  MIQ B 502      16.703 -20.765  11.480  1.00139.53     0.031 A 
HETATM    6  C12 MIQ B 502      17.347 -20.762  12.786  1.00139.38     0.030 A 
HETATM    7  C13 MIQ B 502      17.207 -19.636  13.642  1.00141.18     0.019 A 
HETATM    8  C14 MIQ B 502      16.406 -18.461  13.205  1.00138.77     0.033 A 
HETATM    9  C15 MIQ B 502      16.037 -17.082  13.844  1.00142.10     0.195 A 
HETATM   10  N17 MIQ B 502      15.285 -16.456  12.954  1.00139.42    -0.288 N 
HETATM   11  O16 MIQ B 502      16.424 -16.614  15.102  1.00148.93    -0.171 OA
ENDROOT
BRANCH  10  12
HETATM   12  C18 MIQ B 502      14.740 -15.137  13.217  1.00139.82     0.187 C 
HETATM   13  C19 MIQ B 502      15.886 -14.249  13.717  1.00140.06     0.247 C 
HETATM   14  O25 MIQ B 502      16.887 -14.196  13.095  1.00143.95    -0.271 OA
HETATM   15  N20 MIQ B 502      15.772 -13.466  14.931  1.00140.02    -0.296 N 
HETATM   16  H13 MIQ B 502      16.530 -12.896  15.250  1.00142.77     0.171 HD
HETATM   17  C21 MIQ B 502      14.545 -13.556  15.678  1.00142.22     0.224 C 
HETATM   18  C22 MIQ B 502      13.833 -14.895  15.662  1.00139.52     0.106 C 
HETATM   19  O24 MIQ B 502      14.112 -12.629  16.270  1.00146.13    -0.273 OA
HETATM   20  C23 MIQ B 502      13.577 -15.229  14.203  1.00139.15     0.045 C 
ENDBRANCH  10  12
BRANCH   5  21
HETATM   21  N6  MIQ B 502      16.827 -21.914  10.601  1.00140.95    -0.377 N 
HETATM   22  C7  MIQ B 502      16.169 -21.872   9.307  1.00142.12     0.149 C 
HETATM   23  C8  MIQ B 502      15.826 -23.266   8.798  1.00144.10     0.187 C 
HETATM   24  O9  MIQ B 502      16.896 -24.158   8.895  1.00148.65    -0.388 OA
HETATM   25  C10 MIQ B 502      18.046 -23.809   9.608  1.00147.44     0.187 C 
HETATM   26  C11 MIQ B 502      17.909 -22.863  10.796  1.00144.08     0.149 C 
ENDBRANCH   5  21
TORSDOF 2
ENDMDL
MODEL 6
REMARK VINA RESULT:      -6.2     20.657     22.701
REMARK  2 active torsions:
REMARK  status: ('A' for Active; 'I' for Inactive)
REMARK    1  A    between atoms: C5_5  and  N6_21 
REMARK    2  A    between atoms: C18_14  and  N17_19 
ROOT
HETATM    1  O1  MIQ B 502      28.151  -2.042   3.045  1.00142.91    -0.171 OA
HETATM    2  C2  MIQ B 502      27.702  -1.338   4.165  1.00141.17     0.195 A 
HETATM    3  C3  MIQ B 502      26.257  -0.792   4.391  1.00141.71     0.035 A 
HETATM    4  C4  MIQ B 502      25.013  -0.834   3.586  1.00142.86     0.046 A 
HETATM    5  C5  MIQ B 502      23.824  -0.233   4.071  1.00139.53     0.031 A 
HETATM    6  C12 MIQ B 502      23.826   0.428   5.368  1.00139.38     0.030 A 
HETATM    7  C13 MIQ B 502      25.017   0.468   6.141  1.00141.18     0.019 A 
HETATM    8  C14 MIQ B 502      26.262  -0.167   5.628  1.00138.77     0.033 A 
HETATM    9  C15 MIQ B 502      27.719  -0.327   6.172  1.00142.10     0.195 A 
HETATM   10  N17 MIQ B 502      28.383  -0.998   5.246  1.00139.42    -0.288 N 
HETATM   11  O16 MIQ B 502      28.214   0.146   7.389  1.00148.93    -0.171 OA
ENDROOT
BRANCH  10  12
HETATM   12  C18 MIQ B 502      29.789  -1.321   5.405  1.00139.82     0.187 C 
HETATM   13  C19 MIQ B 502      29.972  -1.940   6.796  1.00140.06     0.247 C 
HETATM   14  O25 MIQ B 502      29.275  -2.833   7.125  1.00143.95    -0.271 OA
HETATM   15  N20 MIQ B 502      30.981  -1.462   7.719  1.00140.02    -0.296 N 
HETATM   16  H13 MIQ B 502      31.086  -1.871   8.626  1.00142.77     0.171 HD
HETATM   17  C21 MIQ B 502      31.813  -0.364   7.298  1.00142.22     0.224 C 
HETATM   18  C22 MIQ B 502      31.169   0.672   6.397  1.00139.52     0.106 C 
HETATM   19  O24 MIQ B 502      32.942  -0.279   7.637  1.00146.13    -0.273 OA
HETATM   20  C23 MIQ B 502      30.648  -0.077   5.183  1.00139.15     0.045 C 
ENDBRANCH  10  12
BRANCH   5  21
HETATM   21  N6  MIQ B 502      22.618  -0.269   3.265  1.00140.95    -0.377 N 
HETATM   22  C7  MIQ B 502      21.804   0.932   3.179  1.00142.12     0.149 C 
HETATM   23  C8  MIQ B 502      20.343   0.609   2.890  1.00144.10     0.187 C 
HETATM   24  O9  MIQ B 502      20.185  -0.296   1.838  1.00148.65    -0.388 OA
HETATM   25  C10 MIQ B 502      21.289  -0.971   1.313  1.00147.44     0.187 C 
HETATM   26  C11 MIQ B 502      22.460  -1.284   2.238  1.00144.08     0.149 C 
ENDBRANCH   5  21
TORSDOF 2
ENDMDL
MODEL 7
REMARK VINA RESULT:      -6.2      2.475      3.739
REMARK  2 active torsions:
REMARK  status: ('A' for Active; 'I' for Inactive)
REMARK    1  A    between atoms: C5_5  and  N6_21 
REMARK    2  A    between atoms: C18_14  and  N17_19 
ROOT
HETATM    1  O1  MIQ B 502      16.028 -19.218  12.906  1.00142.91    -0.171 OA
HETATM    2  C2  MIQ B 502      16.973 -18.218  13.148  1.00141.17     0.195 A 
HETATM    3  C3  MIQ B 502      18.437 -18.434  13.647  1.00141.71     0.035 A 
HETATM    4  C4  MIQ B 502      19.230 -19.639  13.988  1.00142.86     0.046 A 
HETATM    5  C5  MIQ B 502      20.574 -19.513  14.422  1.00139.53     0.031 A 
HETATM    6  C12 MIQ B 502      21.178 -18.193  14.532  1.00139.38     0.030 A 
HETATM    7  C13 MIQ B 502      20.418 -17.038  14.203  1.00141.18     0.019 A 
HETATM    8  C14 MIQ B 502      19.009 -17.176  13.746  1.00138.77     0.033 A 
HETATM    9  C15 MIQ B 502      17.892 -16.173  13.306  1.00142.10     0.195 A 
HETATM   10  N17 MIQ B 502      16.836 -16.911  13.007  1.00139.42    -0.288 N 
HETATM   11  O16 MIQ B 502      17.995 -14.782  13.246  1.00148.93    -0.171 OA
ENDROOT
BRANCH  10  12
HETATM   12  C18 MIQ B 502      15.591 -16.308  12.569  1.00139.82     0.187 C 
HETATM   13  C19 MIQ B 502      14.478 -16.805  13.499  1.00140.06     0.247 C 
HETATM   14  O25 MIQ B 502      14.621 -16.720  14.667  1.00143.95    -0.271 OA
HETATM   15  N20 MIQ B 502      13.249 -17.374  12.984  1.00140.02    -0.296 N 
HETATM   16  H13 MIQ B 502      12.533 -17.701  13.602  1.00142.77     0.171 HD
HETATM   17  C21 MIQ B 502      13.101 -17.477  11.555  1.00142.22     0.224 C 
HETATM   18  C22 MIQ B 502      14.363 -17.745  10.757  1.00139.52     0.106 C 
HETATM   19  O24 MIQ B 502      12.048 -17.354  11.032  1.00146.13    -0.273 OA
HETATM   20  C23 MIQ B 502      15.333 -16.629  11.098  1.00139.15     0.045 C 
ENDBRANCH  10  12
BRANCH   5  21
HETATM   21  N6  MIQ B 502      21.334 -20.701  14.768  1.00140.95    -0.377 N 
HETATM   22  C7  MIQ B 502      20.708 -22.001  14.595  1.00142.12     0.149 C 
HETATM   23  C8  MIQ B 502      21.290 -23.043  15.541  1.00144.10     0.187 C 
HETATM   24  O9  MIQ B 502      22.686 -23.049  15.551  1.00148.65    -0.388 OA
HETATM   25  C10 MIQ B 502      23.403 -22.029  14.919  1.00147.44     0.187 C 
HETATM   26  C11 MIQ B 502      22.783 -20.637  14.849  1.00144.08     0.149 C 
ENDBRANCH   5  21
TORSDOF 2
ENDMDL
MODEL 8
REMARK VINA RESULT:      -6.1      1.922      2.351
REMARK  2 active torsions:
REMARK  status: ('A' for Active; 'I' for Inactive)
REMARK    1  A    between atoms: C5_5  and  N6_21 
REMARK    2  A    between atoms: C18_14  and  N17_19 
ROOT
HETATM    1  O1  MIQ B 502      19.292 -16.321  13.426  1.00142.91    -0.171 OA
HETATM    2  C2  MIQ B 502      18.810 -17.630  13.491  1.00141.17     0.195 A 
HETATM    3  C3  MIQ B 502      19.614 -18.887  13.952  1.00141.71     0.035 A 
HETATM    4  C4  MIQ B 502      21.004 -19.090  14.424  1.00142.86     0.046 A 
HETATM    5  C5  MIQ B 502      21.457 -20.385  14.782  1.00139.53     0.031 A 
HETATM    6  C12 MIQ B 502      20.551 -21.521  14.684  1.00139.38     0.030 A 
HETATM    7  C13 MIQ B 502      19.218 -21.326  14.232  1.00141.18     0.019 A 
HETATM    8  C14 MIQ B 502      18.747 -19.963  13.861  1.00138.77     0.033 A 
HETATM    9  C15 MIQ B 502      17.396 -19.371  13.341  1.00142.10     0.195 A 
HETATM   10  N17 MIQ B 502      17.601 -18.073  13.191  1.00139.42    -0.288 N 
HETATM   11  O16 MIQ B 502      16.218 -20.075  13.086  1.00148.93    -0.171 OA
ENDROOT
BRANCH  10  12
HETATM   12  C18 MIQ B 502      16.555 -17.193  12.703  1.00139.82     0.187 C 
HETATM   13  C19 MIQ B 502      15.303 -17.438  13.553  1.00140.06     0.247 C 
HETATM   14  O25 MIQ B 502      15.390 -17.408  14.729  1.00143.95    -0.271 OA
HETATM   15  N20 MIQ B 502      14.011 -17.701  12.952  1.00140.02    -0.296 N 
HETATM   16  H13 MIQ B 502      13.202 -17.866  13.518  1.00142.77     0.171 HD
HETATM   17  C21 MIQ B 502      13.932 -17.742  11.515  1.00142.22     0.224 C 
HETATM   18  C22 MIQ B 502      15.147 -18.278  10.781  1.00139.52     0.106 C 
HETATM   19  O24 MIQ B 502      12.970 -17.372  10.938  1.00146.13    -0.273 OA
HETATM   20  C23 MIQ B 502      16.323 -17.420  11.210  1.00139.15     0.045 C 
ENDBRANCH  10  12
BRANCH   5  21
HETATM   21  N6  MIQ B 502      22.825 -20.573  15.229  1.00140.95    -0.377 N 
HETATM   22  C7  MIQ B 502      23.114 -20.458  16.648  1.00142.12     0.149 C 
HETATM   23  C8  MIQ B 502      24.555 -20.035  16.903  1.00144.10     0.187 C 
HETATM   24  O9  MIQ B 502      25.478 -20.778  16.164  1.00148.65    -0.388 OA
HETATM   25  C10 MIQ B 502      25.046 -21.635  15.148  1.00147.44     0.187 C 
HETATM   26  C11 MIQ B 502      23.774 -21.279  14.386  1.00144.08     0.149 C 
ENDBRANCH   5  21
TORSDOF 2
ENDMDL
MODEL 9
REMARK VINA RESULT:      -6.1     20.595     22.693
REMARK  2 active torsions:
REMARK  status: ('A' for Active; 'I' for Inactive)
REMARK    1  A    between atoms: C5_5  and  N6_21 
REMARK    2  A    between atoms: C18_14  and  N17_19 
ROOT
HETATM    1  O1  MIQ B 502      27.703  -1.651   4.187  1.00142.91    -0.171 OA
HETATM    2  C2  MIQ B 502      26.823  -0.725   4.752  1.00141.17     0.195 A 
HETATM    3  C3  MIQ B 502      25.379  -0.402   4.251  1.00141.71     0.035 A 
HETATM    4  C4  MIQ B 502      24.549  -0.914   3.136  1.00142.86     0.046 A 
HETATM    5  C5  MIQ B 502      23.238  -0.414   2.930  1.00139.53     0.031 A 
HETATM    6  C12 MIQ B 502      22.706   0.609   3.820  1.00139.38     0.030 A 
HETATM    7  C13 MIQ B 502      23.502   1.099   4.890  1.00141.18     0.019 A 
HETATM    8  C14 MIQ B 502      24.876   0.568   5.103  1.00138.77     0.033 A 
HETATM    9  C15 MIQ B 502      26.014   0.848   6.138  1.00142.10     0.195 A 
HETATM   10  N17 MIQ B 502      27.016   0.051   5.804  1.00139.42    -0.288 N 
HETATM   11  O16 MIQ B 502      25.977   1.758   7.196  1.00148.93    -0.171 OA
ENDROOT
BRANCH  10  12
HETATM   12  C18 MIQ B 502      28.263   0.050   6.546  1.00139.82     0.187 C 
HETATM   13  C19 MIQ B 502      29.405   0.244   5.541  1.00140.06     0.247 C 
HETATM   14  O25 MIQ B 502      29.350   1.137   4.772  1.00143.95    -0.271 OA
HETATM   15  N20 MIQ B 502      30.555  -0.636   5.512  1.00140.02    -0.296 N 
HETATM   16  H13 MIQ B 502      31.290  -0.503   4.846  1.00142.77     0.171 HD
HETATM   17  C21 MIQ B 502      30.594  -1.726   6.453  1.00142.22     0.224 C 
HETATM   18  C22 MIQ B 502      29.264  -2.353   6.824  1.00139.52     0.106 C 
HETATM   19  O24 MIQ B 502      31.612  -2.106   6.916  1.00146.13    -0.273 OA
HETATM   20  C23 MIQ B 502      28.394  -1.233   7.365  1.00139.15     0.045 C 
ENDBRANCH  10  12
BRANCH   5  21
HETATM   21  N6  MIQ B 502      22.441  -0.914   1.824  1.00140.95    -0.377 N 
HETATM   22  C7  MIQ B 502      21.045  -0.522   1.742  1.00142.12     0.149 C 
HETATM   23  C8  MIQ B 502      20.208  -1.554   0.996  1.00144.10     0.187 C 
HETATM   24  O9  MIQ B 502      20.787  -1.956  -0.209  1.00148.65    -0.388 OA
HETATM   25  C10 MIQ B 502      22.100  -1.591  -0.519  1.00147.44     0.187 C 
HETATM   26  C11 MIQ B 502      23.094  -1.402   0.622  1.00144.08     0.149 C 
ENDBRANCH   5  21
TORSDOF 2
ENDMDL
