MODEL 1
REMARK VINA RESULT:      -8.7      0.000      0.000
REMARK  2 active torsions:
REMARK  status: ('A' for Active; 'I' for Inactive)
REMARK    1  A    between atoms: C5_5  and  N6_21 
REMARK    2  A    between atoms: C18_14  and  N17_19 
ROOT
HETATM    1  O1  MIQ B 502       7.191  19.477  -3.990  1.00142.91    -0.171 OA
HETATM    2  C2  MIQ B 502       7.008  18.098  -4.119  1.00141.17     0.195 A 
HETATM    3  C3  MIQ B 502       6.100  17.200  -3.220  1.00141.71     0.035 A 
HETATM    4  C4  MIQ B 502       5.221  17.479  -2.060  1.00142.86     0.046 A 
HETATM    5  C5  MIQ B 502       4.501  16.428  -1.437  1.00139.53     0.031 A 
HETATM    6  C12 MIQ B 502       4.626  15.068  -1.942  1.00139.38     0.030 A 
HETATM    7  C13 MIQ B 502       5.468  14.801  -3.056  1.00141.18     0.019 A 
HETATM    8  C14 MIQ B 502       6.219  15.908  -3.707  1.00138.77     0.033 A 
HETATM    9  C15 MIQ B 502       7.207  16.005  -4.915  1.00142.10     0.195 A 
HETATM   10  N17 MIQ B 502       7.546  17.280  -5.008  1.00139.42    -0.288 N 
HETATM   11  O16 MIQ B 502       7.643  14.955  -5.724  1.00148.93    -0.171 OA
ENDROOT
BRANCH  10  12
HETATM   12  C18 MIQ B 502       8.475  17.745  -6.022  1.00139.82     0.187 C 
HETATM   13  C19 MIQ B 502       7.962  17.260  -7.383  1.00140.06     0.247 C 
HETATM   14  O25 MIQ B 502       6.841  17.470  -7.685  1.00143.95    -0.271 OA
HETATM   15  N20 MIQ B 502       8.819  16.556  -8.315  1.00140.02    -0.296 N 
HETATM   16  H13 MIQ B 502       8.470  16.239  -9.198  1.00142.77     0.171 HD
HETATM   17  C21 MIQ B 502      10.181  16.303  -7.920  1.00142.22     0.224 C 
HETATM   18  C22 MIQ B 502      10.427  16.052  -6.445  1.00139.52     0.106 C 
HETATM   19  O24 MIQ B 502      11.062  16.297  -8.708  1.00146.13    -0.273 OA
HETATM   20  C23 MIQ B 502       9.890  17.264  -5.706  1.00139.15     0.045 C 
ENDBRANCH  10  12
BRANCH   5  21
HETATM   21  N6  MIQ B 502       3.656  16.712  -0.292  1.00140.95    -0.377 N 
HETATM   22  C7  MIQ B 502       2.509  15.855  -0.045  1.00142.12     0.149 C 
HETATM   23  C8  MIQ B 502       1.407  16.584   0.712  1.00144.10     0.187 C 
HETATM   24  O9  MIQ B 502       1.881  17.282   1.825  1.00148.65    -0.388 OA
HETATM   25  C10 MIQ B 502       3.254  17.446   2.025  1.00147.44     0.187 C 
HETATM   26  C11 MIQ B 502       4.166  17.517   0.804  1.00144.08     0.149 C 
ENDBRANCH   5  21
TORSDOF 2
ENDMDL
MODEL 2
REMARK VINA RESULT:      -7.5      1.519      2.457
REMARK  2 active torsions:
REMARK  status: ('A' for Active; 'I' for Inactive)
REMARK    1  A    between atoms: C5_5  and  N6_21 
REMARK    2  A    between atoms: C18_14  and  N17_19 
ROOT
HETATM    1  O1  MIQ B 502       6.686  16.212  -5.130  1.00142.91    -0.171 OA
HETATM    2  C2  MIQ B 502       7.026  17.120  -4.126  1.00141.17     0.195 A 
HETATM    3  C3  MIQ B 502       6.158  17.485  -2.879  1.00141.71     0.035 A 
HETATM    4  C4  MIQ B 502       4.831  17.037  -2.396  1.00142.86     0.046 A 
HETATM    5  C5  MIQ B 502       4.291  17.563  -1.195  1.00139.53     0.031 A 
HETATM    6  C12 MIQ B 502       5.046  18.548  -0.433  1.00139.38     0.030 A 
HETATM    7  C13 MIQ B 502       6.319  18.976  -0.896  1.00141.18     0.019 A 
HETATM    8  C14 MIQ B 502       6.882  18.419  -2.156  1.00138.77     0.033 A 
HETATM    9  C15 MIQ B 502       8.207  18.635  -2.958  1.00142.10     0.195 A 
HETATM   10  N17 MIQ B 502       8.128  17.843  -4.014  1.00139.42    -0.288 N 
HETATM   11  O16 MIQ B 502       9.256  19.493  -2.623  1.00148.93    -0.171 OA
ENDROOT
BRANCH  10  12
HETATM   12  C18 MIQ B 502       9.188  17.791  -5.003  1.00139.82     0.187 C 
HETATM   13  C19 MIQ B 502       8.547  17.965  -6.386  1.00140.06     0.247 C 
HETATM   14  O25 MIQ B 502       7.815  18.871  -6.571  1.00143.95    -0.271 OA
HETATM   15  N20 MIQ B 502       8.820  17.049  -7.474  1.00140.02    -0.296 N 
HETATM   16  H13 MIQ B 502       8.390  17.169  -8.370  1.00142.77     0.171 HD
HETATM   17  C21 MIQ B 502       9.708  15.944  -7.220  1.00142.22     0.224 C 
HETATM   18  C22 MIQ B 502       9.678  15.353  -5.824  1.00139.52     0.106 C 
HETATM   19  O24 MIQ B 502      10.428  15.525  -8.058  1.00146.13    -0.273 OA
HETATM   20  C23 MIQ B 502       9.980  16.492  -4.867  1.00139.15     0.045 C 
ENDBRANCH  10  12
BRANCH   5  21
HETATM   21  N6  MIQ B 502       2.983  17.127  -0.741  1.00140.95    -0.377 N 
HETATM   22  C7  MIQ B 502       2.909  16.054   0.236  1.00142.12     0.149 C 
HETATM   23  C8  MIQ B 502       1.598  15.286   0.139  1.00144.10     0.187 C 
HETATM   24  O9  MIQ B 502       0.481  16.121   0.085  1.00148.65    -0.388 OA
HETATM   25  C10 MIQ B 502       0.635  17.498  -0.096  1.00147.44     0.187 C 
HETATM   26  C11 MIQ B 502       1.832  17.999  -0.897  1.00144.08     0.149 C 
ENDBRANCH   5  21
TORSDOF 2
ENDMDL
MODEL 3
REMARK VINA RESULT:      -7.5      1.730      2.685
REMARK  2 active torsions:
REMARK  status: ('A' for Active; 'I' for Inactive)
REMARK    1  A    between atoms: C5_5  and  N6_21 
REMARK    2  A    between atoms: C18_14  and  N17_19 
ROOT
HETATM    1  O1  MIQ B 502       5.374  15.789  -4.850  1.00142.91    -0.171 OA
HETATM    2  C2  MIQ B 502       6.048  16.729  -4.068  1.00141.17     0.195 A 
HETATM    3  C3  MIQ B 502       5.570  17.298  -2.694  1.00141.71     0.035 A 
HETATM    4  C4  MIQ B 502       4.376  17.054  -1.850  1.00142.86     0.046 A 
HETATM    5  C5  MIQ B 502       4.218  17.738  -0.618  1.00139.53     0.031 A 
HETATM    6  C12 MIQ B 502       5.234  18.684  -0.181  1.00139.38     0.030 A 
HETATM    7  C13 MIQ B 502       6.380  18.917  -0.989  1.00141.18     0.019 A 
HETATM    8  C14 MIQ B 502       6.542  18.194  -2.280  1.00138.77     0.033 A 
HETATM    9  C15 MIQ B 502       7.629  18.181  -3.404  1.00142.10     0.195 A 
HETATM   10  N17 MIQ B 502       7.205  17.320  -4.313  1.00139.42    -0.288 N 
HETATM   11  O16 MIQ B 502       8.806  18.932  -3.436  1.00148.93    -0.171 OA
ENDROOT
BRANCH  10  12
HETATM   12  C18 MIQ B 502       7.963  17.060  -5.522  1.00139.82     0.187 C 
HETATM   13  C19 MIQ B 502       9.396  16.701  -5.108  1.00140.06     0.247 C 
HETATM   14  O25 MIQ B 502       9.567  15.866  -4.292  1.00143.95    -0.271 OA
HETATM   15  N20 MIQ B 502      10.547  17.355  -5.694  1.00140.02    -0.296 N 
HETATM   16  H13 MIQ B 502      11.477  17.116  -5.410  1.00142.77     0.171 HD
HETATM   17  C21 MIQ B 502      10.312  18.378  -6.680  1.00142.22     0.224 C 
HETATM   18  C22 MIQ B 502       9.067  19.224  -6.500  1.00139.52     0.106 C 
HETATM   19  O24 MIQ B 502      11.052  18.545  -7.586  1.00146.13    -0.273 OA
HETATM   20  C23 MIQ B 502       7.893  18.262  -6.463  1.00139.15     0.045 C 
ENDBRANCH  10  12
BRANCH   5  21
HETATM   21  N6  MIQ B 502       3.036  17.502   0.191  1.00140.95    -0.377 N 
HETATM   22  C7  MIQ B 502       2.475  16.162   0.225  1.00142.12     0.149 C 
HETATM   23  C8  MIQ B 502       0.982  16.179   0.531  1.00144.10     0.187 C 
HETATM   24  O9  MIQ B 502       0.660  16.989   1.621  1.00148.65    -0.388 OA
HETATM   25  C10 MIQ B 502       1.616  17.845   2.174  1.00147.44     0.187 C 
HETATM   26  C11 MIQ B 502       2.693  18.422   1.261  1.00144.08     0.149 C 
ENDBRANCH   5  21
TORSDOF 2
ENDMDL
MODEL 4
REMARK VINA RESULT:      -7.3      1.790      2.234
REMARK  2 active torsions:
REMARK  status: ('A' for Active; 'I' for Inactive)
REMARK    1  A    between atoms: C5_5  and  N6_21 
REMARK    2  A    between atoms: C18_14  and  N17_19 
ROOT
HETATM    1  O1  MIQ B 502       8.316  19.097  -4.029  1.00142.91    -0.171 OA
HETATM    2  C2  MIQ B 502       7.821  17.798  -4.160  1.00141.17     0.195 A 
HETATM    3  C3  MIQ B 502       6.643  17.174  -3.347  1.00141.71     0.035 A 
HETATM    4  C4  MIQ B 502       5.750  17.693  -2.284  1.00142.86     0.046 A 
HETATM    5  C5  MIQ B 502       4.744  16.866  -1.725  1.00139.53     0.031 A 
HETATM    6  C12 MIQ B 502       4.586  15.499  -2.200  1.00139.38     0.030 A 
HETATM    7  C13 MIQ B 502       5.441  15.000  -3.220  1.00141.18     0.019 A 
HETATM    8  C14 MIQ B 502       6.494  15.874  -3.805  1.00138.77     0.033 A 
HETATM    9  C15 MIQ B 502       7.587  15.691  -4.908  1.00142.10     0.195 A 
HETATM   10  N17 MIQ B 502       8.229  16.846  -4.981  1.00139.42    -0.288 N 
HETATM   11  O16 MIQ B 502       7.832  14.540  -5.658  1.00148.93    -0.171 OA
ENDROOT
BRANCH  10  12
HETATM   12  C18 MIQ B 502       9.334  17.040  -5.902  1.00139.82     0.187 C 
HETATM   13  C19 MIQ B 502      10.594  17.305  -5.069  1.00140.06     0.247 C 
HETATM   14  O25 MIQ B 502      10.874  16.563  -4.196  1.00143.95    -0.271 OA
HETATM   15  N20 MIQ B 502      11.457  18.439  -5.329  1.00140.02    -0.296 N 
HETATM   16  H13 MIQ B 502      12.274  18.604  -4.774  1.00142.77     0.171 HD
HETATM   17  C21 MIQ B 502      11.089  19.337  -6.393  1.00142.22     0.224 C 
HETATM   18  C22 MIQ B 502       9.605  19.541  -6.629  1.00139.52     0.106 C 
HETATM   19  O24 MIQ B 502      11.905  19.882  -7.052  1.00146.13    -0.273 OA
HETATM   20  C23 MIQ B 502       9.015  18.166  -6.884  1.00139.15     0.045 C 
ENDBRANCH  10  12
BRANCH   5  21
HETATM   21  N6  MIQ B 502       3.887  17.383  -0.674  1.00140.95    -0.377 N 
HETATM   22  C7  MIQ B 502       2.520  17.745  -1.007  1.00142.12     0.149 C 
HETATM   23  C8  MIQ B 502       1.971  18.815  -0.072  1.00144.10     0.187 C 
HETATM   24  O9  MIQ B 502       2.201  18.530   1.275  1.00148.65    -0.388 OA
HETATM   25  C10 MIQ B 502       3.053  17.485   1.642  1.00147.44     0.187 C 
HETATM   26  C11 MIQ B 502       4.215  17.133   0.719  1.00144.08     0.149 C 
ENDBRANCH   5  21
TORSDOF 2
ENDMDL
MODEL 5
REMARK VINA RESULT:      -7.3      2.151      8.616
REMARK  2 active torsions:
REMARK  status: ('A' for Active; 'I' for Inactive)
REMARK    1  A    between atoms: C5_5  and  N6_21 
REMARK    2  A    between atoms: C18_14  and  N17_19 
ROOT
HETATM    1  O1  MIQ B 502       3.072  16.938  -1.187  1.00142.91    -0.171 OA
HETATM    2  C2  MIQ B 502       4.190  17.756  -1.009  1.00141.17     0.195 A 
HETATM    3  C3  MIQ B 502       5.448  17.811  -1.933  1.00141.71     0.035 A 
HETATM    4  C4  MIQ B 502       5.834  17.097  -3.173  1.00142.86     0.046 A 
HETATM    5  C5  MIQ B 502       7.075  17.370  -3.802  1.00139.53     0.031 A 
HETATM    6  C12 MIQ B 502       7.975  18.359  -3.225  1.00139.38     0.030 A 
HETATM    7  C13 MIQ B 502       7.605  19.045  -2.036  1.00141.18     0.019 A 
HETATM    8  C14 MIQ B 502       6.299  18.755  -1.382  1.00138.77     0.033 A 
HETATM    9  C15 MIQ B 502       5.565  19.289  -0.109  1.00142.10     0.195 A 
HETATM   10  N17 MIQ B 502       4.416  18.637  -0.050  1.00139.42    -0.288 N 
HETATM   11  O16 MIQ B 502       6.034  20.256   0.782  1.00148.93    -0.171 OA
ENDROOT
BRANCH  10  12
HETATM   12  C18 MIQ B 502       3.469  18.868   1.025  1.00139.82     0.187 C 
HETATM   13  C19 MIQ B 502       3.021  17.500   1.555  1.00140.06     0.247 C 
HETATM   14  O25 MIQ B 502       3.837  16.701   1.851  1.00143.95    -0.271 OA
HETATM   15  N20 MIQ B 502       1.620  17.162   1.708  1.00140.02    -0.296 N 
HETATM   16  H13 MIQ B 502       1.341  16.264   2.049  1.00142.77     0.171 HD
HETATM   17  C21 MIQ B 502       0.643  18.150   1.331  1.00142.22     0.224 C 
HETATM   18  C22 MIQ B 502       1.002  19.054   0.167  1.00139.52     0.106 C 
HETATM   19  O24 MIQ B 502      -0.385  18.253   1.904  1.00146.13    -0.273 OA
HETATM   20  C23 MIQ B 502       2.309  19.733   0.535  1.00139.15     0.045 C 
ENDBRANCH  10  12
BRANCH   5  21
HETATM   21  N6  MIQ B 502       7.446  16.652  -5.007  1.00140.95    -0.377 N 
HETATM   22  C7  MIQ B 502       6.991  15.282  -5.168  1.00142.12     0.149 C 
HETATM   23  C8  MIQ B 502       7.921  14.476  -6.066  1.00144.10     0.187 C 
HETATM   24  O9  MIQ B 502       8.243  15.141  -7.251  1.00148.65    -0.388 OA
HETATM   25  C10 MIQ B 502       7.908  16.486  -7.421  1.00147.44     0.187 C 
HETATM   26  C11 MIQ B 502       7.858  17.387  -6.191  1.00144.08     0.149 C 
ENDBRANCH   5  21
TORSDOF 2
ENDMDL
MODEL 6
REMARK VINA RESULT:      -6.7      1.914      2.971
REMARK  2 active torsions:
REMARK  status: ('A' for Active; 'I' for Inactive)
REMARK    1  A    between atoms: C5_5  and  N6_21 
REMARK    2  A    between atoms: C18_14  and  N17_19 
ROOT
HETATM    1  O1  MIQ B 502       5.155  16.274  -4.250  1.00142.91    -0.171 OA
HETATM    2  C2  MIQ B 502       5.665  17.140  -3.281  1.00141.17     0.195 A 
HETATM    3  C3  MIQ B 502       4.943  17.583  -1.968  1.00141.71     0.035 A 
HETATM    4  C4  MIQ B 502       3.623  17.266  -1.375  1.00142.86     0.046 A 
HETATM    5  C5  MIQ B 502       3.238  17.836  -0.135  1.00139.53     0.031 A 
HETATM    6  C12 MIQ B 502       4.146  18.738   0.558  1.00139.38     0.030 A 
HETATM    7  C13 MIQ B 502       5.413  19.042  -0.010  1.00141.18     0.019 A 
HETATM    8  C14 MIQ B 502       5.813  18.438  -1.311  1.00138.77     0.033 A 
HETATM    9  C15 MIQ B 502       7.082  18.526  -2.219  1.00142.10     0.195 A 
HETATM   10  N17 MIQ B 502       6.838  17.750  -3.263  1.00139.42    -0.288 N 
HETATM   11  O16 MIQ B 502       8.234  19.275  -1.976  1.00148.93    -0.171 OA
ENDROOT
BRANCH  10  12
HETATM   12  C18 MIQ B 502       7.803  17.599  -4.336  1.00139.82     0.187 C 
HETATM   13  C19 MIQ B 502       7.086  17.905  -5.657  1.00140.06     0.247 C 
HETATM   14  O25 MIQ B 502       6.467  18.904  -5.758  1.00143.95    -0.271 OA
HETATM   15  N20 MIQ B 502       7.150  17.003  -6.788  1.00140.02    -0.296 N 
HETATM   16  H13 MIQ B 502       6.672  17.211  -7.642  1.00142.77     0.171 HD
HETATM   17  C21 MIQ B 502       7.903  15.784  -6.636  1.00142.22     0.224 C 
HETATM   18  C22 MIQ B 502       7.903  15.150  -5.259  1.00139.52     0.106 C 
HETATM   19  O24 MIQ B 502       8.495  15.307  -7.541  1.00146.13    -0.273 OA
HETATM   20  C23 MIQ B 502       8.426  16.204  -4.299  1.00139.15     0.045 C 
ENDBRANCH  10  12
BRANCH   5  21
HETATM   21  N6  MIQ B 502       1.935  17.528   0.427  1.00140.95    -0.377 N 
HETATM   22  C7  MIQ B 502       1.264  16.313  -0.001  1.00142.12     0.149 C 
HETATM   23  C8  MIQ B 502      -0.250  16.427   0.122  1.00144.10     0.187 C 
HETATM   24  O9  MIQ B 502      -0.658  16.930   1.359  1.00148.65    -0.388 OA
HETATM   25  C10 MIQ B 502       0.276  17.471   2.246  1.00147.44     0.187 C 
HETATM   26  C11 MIQ B 502       1.520  18.144   1.674  1.00144.08     0.149 C 
ENDBRANCH   5  21
TORSDOF 2
ENDMDL
MODEL 7
REMARK VINA RESULT:      -6.7      6.795     10.087
REMARK  2 active torsions:
REMARK  status: ('A' for Active; 'I' for Inactive)
REMARK    1  A    between atoms: C5_5  and  N6_21 
REMARK    2  A    between atoms: C18_14  and  N17_19 
ROOT
HETATM    1  O1  MIQ B 502       0.820  19.877   1.081  1.00142.91    -0.171 OA
HETATM    2  C2  MIQ B 502      -0.106  19.470   0.118  1.00141.17     0.195 A 
HETATM    3  C3  MIQ B 502      -1.374  20.263  -0.335  1.00141.71     0.035 A 
HETATM    4  C4  MIQ B 502      -1.953  21.569   0.058  1.00142.86     0.046 A 
HETATM    5  C5  MIQ B 502      -3.147  22.035  -0.550  1.00139.53     0.031 A 
HETATM    6  C12 MIQ B 502      -3.805  21.226  -1.565  1.00139.38     0.030 A 
HETATM    7  C13 MIQ B 502      -3.249  19.974  -1.943  1.00141.18     0.019 A 
HETATM    8  C14 MIQ B 502      -1.994  19.491  -1.303  1.00138.77     0.033 A 
HETATM    9  C15 MIQ B 502      -1.107  18.212  -1.452  1.00142.10     0.195 A 
HETATM   10  N17 MIQ B 502      -0.106  18.361  -0.600  1.00139.42    -0.288 N 
HETATM   11  O16 MIQ B 502      -1.332  17.134  -2.310  1.00148.93    -0.171 OA
ENDROOT
BRANCH  10  12
HETATM   12  C18 MIQ B 502       0.920  17.346  -0.452  1.00139.82     0.187 C 
HETATM   13  C19 MIQ B 502       1.018  16.993   1.037  1.00140.06     0.247 C 
HETATM   14  O25 MIQ B 502       0.036  16.715   1.629  1.00143.95    -0.271 OA
HETATM   15  N20 MIQ B 502       2.286  16.984   1.738  1.00140.02    -0.296 N 
HETATM   16  H13 MIQ B 502       2.335  16.758   2.712  1.00142.77     0.171 HD
HETATM   17  C21 MIQ B 502       3.469  17.336   0.996  1.00142.22     0.224 C 
HETATM   18  C22 MIQ B 502       3.303  18.372  -0.099  1.00139.52     0.106 C 
HETATM   19  O24 MIQ B 502       4.515  16.838   1.229  1.00146.13    -0.273 OA
HETATM   20  C23 MIQ B 502       2.242  17.836  -1.042  1.00139.15     0.045 C 
ENDBRANCH  10  12
BRANCH   5  21
HETATM   21  N6  MIQ B 502      -3.712  23.310  -0.145  1.00140.95    -0.377 N 
HETATM   22  C7  MIQ B 502      -2.820  24.328   0.384  1.00142.12     0.149 C 
HETATM   23  C8  MIQ B 502      -3.542  25.283   1.325  1.00144.10     0.187 C 
HETATM   24  O9  MIQ B 502      -4.746  25.758   0.799  1.00148.65    -0.388 OA
HETATM   25  C10 MIQ B 502      -5.282  25.195  -0.362  1.00147.44     0.187 C 
HETATM   26  C11 MIQ B 502      -5.008  23.723  -0.652  1.00144.08     0.149 C 
ENDBRANCH   5  21
TORSDOF 2
ENDMDL
MODEL 8
REMARK VINA RESULT:      -6.7      3.513      4.484
REMARK  2 active torsions:
REMARK  status: ('A' for Active; 'I' for Inactive)
REMARK    1  A    between atoms: C5_5  and  N6_21 
REMARK    2  A    between atoms: C18_14  and  N17_19 
ROOT
HETATM    1  O1  MIQ B 502       8.259  16.288  -4.249  1.00142.91    -0.171 OA
HETATM    2  C2  MIQ B 502       8.692  17.550  -4.663  1.00141.17     0.195 A 
HETATM    3  C3  MIQ B 502       8.548  18.883  -3.862  1.00141.71     0.035 A 
HETATM    4  C4  MIQ B 502       7.972  19.219  -2.538  1.00142.86     0.046 A 
HETATM    5  C5  MIQ B 502       7.991  20.556  -2.067  1.00139.53     0.031 A 
HETATM    6  C12 MIQ B 502       8.580  21.603  -2.889  1.00139.38     0.030 A 
HETATM    7  C13 MIQ B 502       9.133  21.281  -4.157  1.00141.18     0.019 A 
HETATM    8  C14 MIQ B 502       9.113  19.875  -4.646  1.00138.77     0.033 A 
HETATM    9  C15 MIQ B 502       9.611  19.154  -5.941  1.00142.10     0.195 A 
HETATM   10  N17 MIQ B 502       9.303  17.877  -5.789  1.00139.42    -0.288 N 
HETATM   11  O16 MIQ B 502      10.247  19.745  -7.034  1.00148.93    -0.171 OA
ENDROOT
BRANCH  10  12
HETATM   12  C18 MIQ B 502       9.606  16.898  -6.816  1.00139.82     0.187 C 
HETATM   13  C19 MIQ B 502       8.301  16.175  -7.172  1.00140.06     0.247 C 
HETATM   14  O25 MIQ B 502       7.344  16.812  -7.438  1.00143.95    -0.271 OA
HETATM   15  N20 MIQ B 502       8.210  14.729  -7.196  1.00140.02    -0.296 N 
HETATM   16  H13 MIQ B 502       7.351  14.270  -7.423  1.00142.77     0.171 HD
HETATM   17  C21 MIQ B 502       9.389  13.974  -6.857  1.00142.22     0.224 C 
HETATM   18  C22 MIQ B 502      10.312  14.582  -5.818  1.00139.52     0.106 C 
HETATM   19  O24 MIQ B 502       9.625  12.935  -7.368  1.00146.13    -0.273 OA
HETATM   20  C23 MIQ B 502      10.707  15.951  -6.341  1.00139.15     0.045 C 
ENDBRANCH  10  12
BRANCH   5  21
HETATM   21  N6  MIQ B 502       7.409  20.873  -0.776  1.00140.95    -0.377 N 
HETATM   22  C7  MIQ B 502       6.879  19.789   0.033  1.00142.12     0.149 C 
HETATM   23  C8  MIQ B 502       5.781  20.266   0.975  1.00144.10     0.187 C 
HETATM   24  O9  MIQ B 502       6.134  21.419   1.680  1.00148.65    -0.388 OA
HETATM   25  C10 MIQ B 502       7.283  22.135   1.336  1.00147.44     0.187 C 
HETATM   26  C11 MIQ B 502       7.740  22.126  -0.119  1.00144.08     0.149 C 
ENDBRANCH   5  21
TORSDOF 2
ENDMDL
MODEL 9
REMARK VINA RESULT:      -6.7      4.839      6.868
REMARK  2 active torsions:
REMARK  status: ('A' for Active; 'I' for Inactive)
REMARK    1  A    between atoms: C5_5  and  N6_21 
REMARK    2  A    between atoms: C18_14  and  N17_19 
ROOT
HETATM    1  O1  MIQ B 502      11.337  19.320  -7.469  1.00142.91    -0.171 OA
HETATM    2  C2  MIQ B 502      10.334  19.040  -6.538  1.00141.17     0.195 A 
HETATM    3  C3  MIQ B 502       9.763  20.028  -5.472  1.00141.71     0.035 A 
HETATM    4  C4  MIQ B 502      10.058  21.440  -5.129  1.00142.86     0.046 A 
HETATM    5  C5  MIQ B 502       9.353  22.085  -4.082  1.00139.53     0.031 A 
HETATM    6  C12 MIQ B 502       8.334  21.357  -3.341  1.00139.38     0.030 A 
HETATM    7  C13 MIQ B 502       8.050  20.004  -3.669  1.00141.18     0.019 A 
HETATM    8  C14 MIQ B 502       8.792  19.332  -4.771  1.00138.77     0.033 A 
HETATM    9  C15 MIQ B 502       8.759  17.903  -5.406  1.00142.10     0.195 A 
HETATM   10  N17 MIQ B 502       9.668  17.911  -6.367  1.00139.42    -0.288 N 
HETATM   11  O16 MIQ B 502       7.938  16.839  -5.029  1.00148.93    -0.171 OA
ENDROOT
BRANCH  10  12
HETATM   12  C18 MIQ B 502       9.929  16.732  -7.172  1.00139.82     0.187 C 
HETATM   13  C19 MIQ B 502       8.576  16.130  -7.573  1.00140.06     0.247 C 
HETATM   14  O25 MIQ B 502       7.759  16.826  -8.062  1.00143.95    -0.271 OA
HETATM   15  N20 MIQ B 502       8.274  14.728  -7.372  1.00140.02    -0.296 N 
HETATM   16  H13 MIQ B 502       7.384  14.349  -7.631  1.00142.77     0.171 HD
HETATM   17  C21 MIQ B 502       9.284  13.901  -6.762  1.00142.22     0.224 C 
HETATM   18  C22 MIQ B 502      10.171  14.562  -5.726  1.00139.52     0.106 C 
HETATM   19  O24 MIQ B 502       9.415  12.765  -7.061  1.00146.13    -0.273 OA
HETATM   20  C23 MIQ B 502      10.819  15.753  -6.409  1.00139.15     0.045 C 
ENDBRANCH  10  12
BRANCH   5  21
HETATM   21  N6  MIQ B 502       9.662  23.464  -3.748  1.00140.95    -0.377 N 
HETATM   22  C7  MIQ B 502      10.494  24.230  -4.660  1.00142.12     0.149 C 
HETATM   23  C8  MIQ B 502      11.248  25.343  -3.944  1.00144.10     0.187 C 
HETATM   24  O9  MIQ B 502      10.429  26.100  -3.104  1.00148.65    -0.388 OA
HETATM   25  C10 MIQ B 502       9.127  25.681  -2.818  1.00147.44     0.187 C 
HETATM   26  C11 MIQ B 502       8.829  24.185  -2.802  1.00144.08     0.149 C 
ENDBRANCH   5  21
TORSDOF 2
ENDMDL
