MODEL 1
REMARK VINA RESULT:      -7.8      0.000      0.000
REMARK  2 active torsions:
REMARK  status: ('A' for Active; 'I' for Inactive)
REMARK    1  A    between atoms: C5_5  and  N6_21 
REMARK    2  A    between atoms: C18_14  and  N17_19 
ROOT
HETATM    1  O1  MIQ B 502     -19.843   0.977  15.922  1.00142.91    -0.171 OA
HETATM    2  C2  MIQ B 502     -20.342   2.032  15.155  1.00141.17     0.195 A 
HETATM    3  C3  MIQ B 502     -19.513   2.956  14.207  1.00141.71     0.035 A 
HETATM    4  C4  MIQ B 502     -18.078   3.014  13.841  1.00142.86     0.046 A 
HETATM    5  C5  MIQ B 502     -17.611   3.992  12.926  1.00139.53     0.031 A 
HETATM    6  C12 MIQ B 502     -18.548   4.943  12.344  1.00139.38     0.030 A 
HETATM    7  C13 MIQ B 502     -19.924   4.886  12.695  1.00141.18     0.019 A 
HETATM    8  C14 MIQ B 502     -20.409   3.856  13.654  1.00138.77     0.033 A 
HETATM    9  C15 MIQ B 502     -21.802   3.488  14.261  1.00142.10     0.195 A 
HETATM   10  N17 MIQ B 502     -21.590   2.460  15.066  1.00139.42    -0.288 N 
HETATM   11  O16 MIQ B 502     -23.019   4.122  14.004  1.00148.93    -0.171 OA
ENDROOT
BRANCH  10  12
HETATM   12  C18 MIQ B 502     -22.670   1.855  15.822  1.00139.82     0.187 C 
HETATM   13  C19 MIQ B 502     -23.806   1.538  14.843  1.00140.06     0.247 C 
HETATM   14  O25 MIQ B 502     -23.566   0.934  13.859  1.00143.95    -0.271 OA
HETATM   15  N20 MIQ B 502     -25.171   1.954  15.095  1.00140.02    -0.296 N 
HETATM   16  H13 MIQ B 502     -25.903   1.746  14.444  1.00142.77     0.171 HD
HETATM   17  C21 MIQ B 502     -25.437   2.699  16.298  1.00142.22     0.224 C 
HETATM   18  C22 MIQ B 502     -24.341   3.630  16.780  1.00139.52     0.106 C 
HETATM   19  O24 MIQ B 502     -26.458   2.585  16.883  1.00146.13    -0.273 OA
HETATM   20  C23 MIQ B 502     -23.100   2.776  16.964  1.00139.15     0.045 C 
ENDBRANCH  10  12
BRANCH   5  21
HETATM   21  N6  MIQ B 502     -16.201   4.048  12.587  1.00140.95    -0.377 N 
HETATM   22  C7  MIQ B 502     -15.281   3.179  13.301  1.00142.12     0.149 C 
HETATM   23  C8  MIQ B 502     -13.871   3.755  13.341  1.00144.10     0.187 C 
HETATM   24  O9  MIQ B 502     -13.428   4.196  12.093  1.00148.65    -0.388 OA
HETATM   25  C10 MIQ B 502     -14.317   4.288  11.019  1.00147.44     0.187 C 
HETATM   26  C11 MIQ B 502     -15.783   4.595  11.309  1.00144.08     0.149 C 
ENDBRANCH   5  21
TORSDOF 2
ENDMDL
MODEL 2
REMARK VINA RESULT:      -7.3      1.525      1.969
REMARK  2 active torsions:
REMARK  status: ('A' for Active; 'I' for Inactive)
REMARK    1  A    between atoms: C5_5  and  N6_21 
REMARK    2  A    between atoms: C18_14  and  N17_19 
ROOT
HETATM    1  O1  MIQ B 502     -20.383   1.273  15.059  1.00142.91    -0.171 OA
HETATM    2  C2  MIQ B 502     -20.687   2.419  14.321  1.00141.17     0.195 A 
HETATM    3  C3  MIQ B 502     -19.667   3.320  13.555  1.00141.71     0.035 A 
HETATM    4  C4  MIQ B 502     -18.197   3.266  13.371  1.00142.86     0.046 A 
HETATM    5  C5  MIQ B 502     -17.535   4.253  12.597  1.00139.53     0.031 A 
HETATM    6  C12 MIQ B 502     -18.304   5.325  11.981  1.00139.38     0.030 A 
HETATM    7  C13 MIQ B 502     -19.714   5.376  12.157  1.00141.18     0.019 A 
HETATM    8  C14 MIQ B 502     -20.404   4.336  12.967  1.00138.77     0.033 A 
HETATM    9  C15 MIQ B 502     -21.890   4.064  13.371  1.00142.10     0.195 A 
HETATM   10  N17 MIQ B 502     -21.871   2.969  14.114  1.00139.42    -0.288 N 
HETATM   11  O16 MIQ B 502     -23.005   4.826  13.018  1.00148.93    -0.171 OA
ENDROOT
BRANCH  10  12
HETATM   12  C18 MIQ B 502     -23.088   2.422  14.685  1.00139.82     0.187 C 
HETATM   13  C19 MIQ B 502     -22.868   2.269  16.195  1.00140.06     0.247 C 
HETATM   14  O25 MIQ B 502     -22.466   3.189  16.814  1.00143.95    -0.271 OA
HETATM   15  N20 MIQ B 502     -23.145   1.026  16.886  1.00140.02    -0.296 N 
HETATM   16  H13 MIQ B 502     -22.992   0.938  17.871  1.00142.77     0.171 HD
HETATM   17  C21 MIQ B 502     -23.625  -0.086  16.106  1.00142.22     0.224 C 
HETATM   18  C22 MIQ B 502     -23.105  -0.197  14.686  1.00139.52     0.106 C 
HETATM   19  O24 MIQ B 502     -24.390  -0.868  16.552  1.00146.13    -0.273 OA
HETATM   20  C23 MIQ B 502     -23.454   1.108  13.995  1.00139.15     0.045 C 
ENDBRANCH  10  12
BRANCH   5  21
HETATM   21  N6  MIQ B 502     -16.094   4.197  12.438  1.00140.95    -0.377 N 
HETATM   22  C7  MIQ B 502     -15.349   3.205  13.196  1.00142.12     0.149 C 
HETATM   23  C8  MIQ B 502     -13.912   3.643  13.447  1.00144.10     0.187 C 
HETATM   24  O9  MIQ B 502     -13.278   4.114  12.296  1.00148.65    -0.388 OA
HETATM   25  C10 MIQ B 502     -14.012   4.352  11.131  1.00147.44     0.187 C 
HETATM   26  C11 MIQ B 502     -15.470   4.777  11.261  1.00144.08     0.149 C 
ENDBRANCH   5  21
TORSDOF 2
ENDMDL
MODEL 3
REMARK VINA RESULT:      -7.0      2.622      8.096
REMARK  2 active torsions:
REMARK  status: ('A' for Active; 'I' for Inactive)
REMARK    1  A    between atoms: C5_5  and  N6_21 
REMARK    2  A    between atoms: C18_14  and  N17_19 
ROOT
HETATM    1  O1  MIQ B 502     -22.773   4.836  13.128  1.00142.91    -0.171 OA
HETATM    2  C2  MIQ B 502     -21.701   4.024  13.504  1.00141.17     0.195 A 
HETATM    3  C3  MIQ B 502     -21.652   3.076  14.745  1.00141.71     0.035 A 
HETATM    4  C4  MIQ B 502     -22.621   2.755  15.820  1.00142.86     0.046 A 
HETATM    5  C5  MIQ B 502     -22.281   1.828  16.837  1.00139.53     0.031 A 
HETATM    6  C12 MIQ B 502     -20.973   1.188  16.825  1.00139.38     0.030 A 
HETATM    7  C13 MIQ B 502     -20.044   1.496  15.794  1.00141.18     0.019 A 
HETATM    8  C14 MIQ B 502     -20.408   2.468  14.727  1.00138.77     0.033 A 
HETATM    9  C15 MIQ B 502     -19.680   3.041  13.467  1.00142.10     0.195 A 
HETATM   10  N17 MIQ B 502     -20.531   3.881  12.904  1.00139.42    -0.288 N 
HETATM   11  O16 MIQ B 502     -18.391   2.726  13.032  1.00148.93    -0.171 OA
ENDROOT
BRANCH  10  12
HETATM   12  C18 MIQ B 502     -20.185   4.620  11.704  1.00139.82     0.187 C 
HETATM   13  C19 MIQ B 502     -19.855   3.601  10.606  1.00140.06     0.247 C 
HETATM   14  O25 MIQ B 502     -20.618   2.730  10.382  1.00143.95    -0.271 OA
HETATM   15  N20 MIQ B 502     -18.634   3.682   9.831  1.00140.02    -0.296 N 
HETATM   16  H13 MIQ B 502     -18.427   3.007   9.122  1.00142.77     0.171 HD
HETATM   17  C21 MIQ B 502     -17.714   4.749  10.131  1.00142.22     0.224 C 
HETATM   18  C22 MIQ B 502     -17.632   5.191  11.579  1.00139.52     0.106 C 
HETATM   19  O24 MIQ B 502     -17.060   5.256   9.287  1.00146.13    -0.273 OA
HETATM   20  C23 MIQ B 502     -19.038   5.589  11.989  1.00139.15     0.045 C 
ENDBRANCH  10  12
BRANCH   5  21
HETATM   21  N6  MIQ B 502     -23.234   1.533  17.892  1.00140.95    -0.377 N 
HETATM   22  C7  MIQ B 502     -24.644   1.781  17.643  1.00142.12     0.149 C 
HETATM   23  C8  MIQ B 502     -25.408   2.056  18.932  1.00144.10     0.187 C 
HETATM   24  O9  MIQ B 502     -25.134   1.125  19.936  1.00148.65    -0.388 OA
HETATM   25  C10 MIQ B 502     -24.087   0.211  19.787  1.00147.44     0.187 C 
HETATM   26  C11 MIQ B 502     -22.871   0.623  18.964  1.00144.08     0.149 C 
ENDBRANCH   5  21
TORSDOF 2
ENDMDL
MODEL 4
REMARK VINA RESULT:      -7.0      1.483      2.093
REMARK  2 active torsions:
REMARK  status: ('A' for Active; 'I' for Inactive)
REMARK    1  A    between atoms: C5_5  and  N6_21 
REMARK    2  A    between atoms: C18_14  and  N17_19 
ROOT
HETATM    1  O1  MIQ B 502     -21.090   2.267  16.684  1.00142.91    -0.171 OA
HETATM    2  C2  MIQ B 502     -21.762   2.905  15.639  1.00141.17     0.195 A 
HETATM    3  C3  MIQ B 502     -21.108   3.507  14.354  1.00141.71     0.035 A 
HETATM    4  C4  MIQ B 502     -19.712   3.590  13.864  1.00142.86     0.046 A 
HETATM    5  C5  MIQ B 502     -19.423   4.212  12.623  1.00139.53     0.031 A 
HETATM    6  C12 MIQ B 502     -20.505   4.771  11.827  1.00139.38     0.030 A 
HETATM    7  C13 MIQ B 502     -21.845   4.691  12.295  1.00141.18     0.019 A 
HETATM    8  C14 MIQ B 502     -22.142   4.034  13.598  1.00138.77     0.033 A 
HETATM    9  C15 MIQ B 502     -23.444   3.759  14.417  1.00142.10     0.195 A 
HETATM   10  N17 MIQ B 502     -23.059   3.127  15.514  1.00139.42    -0.288 N 
HETATM   11  O16 MIQ B 502     -24.747   4.112  14.061  1.00148.93    -0.171 OA
ENDROOT
BRANCH  10  12
HETATM   12  C18 MIQ B 502     -24.013   2.722  16.530  1.00139.82     0.187 C 
HETATM   13  C19 MIQ B 502     -25.123   1.923  15.837  1.00140.06     0.247 C 
HETATM   14  O25 MIQ B 502     -24.831   1.028  15.125  1.00143.95    -0.271 OA
HETATM   15  N20 MIQ B 502     -26.524   2.232  16.035  1.00140.02    -0.296 N 
HETATM   16  H13 MIQ B 502     -27.240   1.707  15.571  1.00142.77     0.171 HD
HETATM   17  C21 MIQ B 502     -26.856   3.336  16.900  1.00142.22     0.224 C 
HETATM   18  C22 MIQ B 502     -25.892   4.506  16.910  1.00139.52     0.106 C 
HETATM   19  O24 MIQ B 502     -27.829   3.324  17.570  1.00146.13    -0.273 OA
HETATM   20  C23 MIQ B 502     -24.533   3.943  17.287  1.00139.15     0.045 C 
ENDBRANCH  10  12
BRANCH   5  21
HETATM   21  N6  MIQ B 502     -18.049   4.299  12.163  1.00140.95    -0.377 N 
HETATM   22  C7  MIQ B 502     -17.689   5.370  11.250  1.00142.12     0.149 C 
HETATM   23  C8  MIQ B 502     -16.497   4.998  10.378  1.00144.10     0.187 C 
HETATM   24  O9  MIQ B 502     -15.438   4.455  11.108  1.00148.65    -0.388 OA
HETATM   25  C10 MIQ B 502     -15.611   4.102  12.449  1.00147.44     0.187 C 
HETATM   26  C11 MIQ B 502     -16.990   3.644  12.911  1.00144.08     0.149 C 
ENDBRANCH   5  21
TORSDOF 2
ENDMDL
MODEL 5
REMARK VINA RESULT:      -7.0      1.976      8.434
REMARK  2 active torsions:
REMARK  status: ('A' for Active; 'I' for Inactive)
REMARK    1  A    between atoms: C5_5  and  N6_21 
REMARK    2  A    between atoms: C18_14  and  N17_19 
ROOT
HETATM    1  O1  MIQ B 502     -16.177   3.423  13.794  1.00142.91    -0.171 OA
HETATM    2  C2  MIQ B 502     -16.984   4.023  12.824  1.00141.17     0.195 A 
HETATM    3  C3  MIQ B 502     -18.537   4.179  12.885  1.00141.71     0.035 A 
HETATM    4  C4  MIQ B 502     -19.562   3.790  13.883  1.00142.86     0.046 A 
HETATM    5  C5  MIQ B 502     -20.931   4.076  13.652  1.00139.53     0.031 A 
HETATM    6  C12 MIQ B 502     -21.331   4.756  12.429  1.00139.38     0.030 A 
HETATM    7  C13 MIQ B 502     -20.348   5.131  11.473  1.00141.18     0.019 A 
HETATM    8  C14 MIQ B 502     -18.912   4.830  11.721  1.00138.77     0.033 A 
HETATM    9  C15 MIQ B 502     -17.585   5.079  10.934  1.00142.10     0.195 A 
HETATM   10  N17 MIQ B 502     -16.616   4.576  11.681  1.00139.42    -0.288 N 
HETATM   11  O16 MIQ B 502     -17.454   5.704   9.692  1.00148.93    -0.171 OA
ENDROOT
BRANCH  10  12
HETATM   12  C18 MIQ B 502     -15.231   4.615  11.253  1.00139.82     0.187 C 
HETATM   13  C19 MIQ B 502     -14.638   3.215  11.458  1.00140.06     0.247 C 
HETATM   14  O25 MIQ B 502     -15.208   2.279  11.021  1.00143.95    -0.271 OA
HETATM   15  N20 MIQ B 502     -13.393   3.009  12.169  1.00140.02    -0.296 N 
HETATM   16  H13 MIQ B 502     -13.020   2.090  12.301  1.00142.77     0.171 HD
HETATM   17  C21 MIQ B 502     -12.721   4.166  12.701  1.00142.22     0.224 C 
HETATM   18  C22 MIQ B 502     -13.601   5.303  13.184  1.00139.52     0.106 C 
HETATM   19  O24 MIQ B 502     -11.542   4.227  12.753  1.00146.13    -0.273 OA
HETATM   20  C23 MIQ B 502     -14.471   5.705  12.006  1.00139.15     0.045 C 
ENDBRANCH  10  12
BRANCH   5  21
HETATM   21  N6  MIQ B 502     -21.926   3.676  14.630  1.00140.95    -0.377 N 
HETATM   22  C7  MIQ B 502     -23.243   3.282  14.161  1.00142.12     0.149 C 
HETATM   23  C8  MIQ B 502     -24.317   3.516  15.216  1.00144.10     0.187 C 
HETATM   24  O9  MIQ B 502     -23.959   3.024  16.473  1.00148.65    -0.388 OA
HETATM   25  C10 MIQ B 502     -22.654   2.591  16.719  1.00147.44     0.187 C 
HETATM   26  C11 MIQ B 502     -21.510   3.253  15.956  1.00144.08     0.149 C 
ENDBRANCH   5  21
TORSDOF 2
ENDMDL
MODEL 6
REMARK VINA RESULT:      -6.9      4.229      8.243
REMARK  2 active torsions:
REMARK  status: ('A' for Active; 'I' for Inactive)
REMARK    1  A    between atoms: C5_5  and  N6_21 
REMARK    2  A    between atoms: C18_14  and  N17_19 
ROOT
HETATM    1  O1  MIQ B 502     -18.134   3.181  10.102  1.00142.91    -0.171 OA
HETATM    2  C2  MIQ B 502     -19.055   3.095  11.149  1.00141.17     0.195 A 
HETATM    3  C3  MIQ B 502     -20.428   2.353  11.112  1.00141.71     0.035 A 
HETATM    4  C4  MIQ B 502     -21.137   1.573  10.069  1.00142.86     0.046 A 
HETATM    5  C5  MIQ B 502     -22.407   1.003  10.339  1.00139.53     0.031 A 
HETATM    6  C12 MIQ B 502     -23.016   1.185  11.649  1.00139.38     0.030 A 
HETATM    7  C13 MIQ B 502     -22.337   1.931  12.649  1.00141.18     0.019 A 
HETATM    8  C14 MIQ B 502     -21.003   2.525  12.360  1.00138.77     0.033 A 
HETATM    9  C15 MIQ B 502     -19.980   3.379  13.178  1.00142.10     0.195 A 
HETATM   10  N17 MIQ B 502     -18.961   3.606  12.365  1.00139.42    -0.288 N 
HETATM   11  O16 MIQ B 502     -20.120   3.814  14.497  1.00148.93    -0.171 OA
ENDROOT
BRANCH  10  12
HETATM   12  C18 MIQ B 502     -17.816   4.391  12.787  1.00139.82     0.187 C 
HETATM   13  C19 MIQ B 502     -17.532   5.428  11.694  1.00140.06     0.247 C 
HETATM   14  O25 MIQ B 502     -18.413   6.109  11.303  1.00143.95    -0.271 OA
HETATM   15  N20 MIQ B 502     -16.209   5.601  11.130  1.00140.02    -0.296 N 
HETATM   16  H13 MIQ B 502     -16.039   6.278  10.412  1.00142.77     0.171 HD
HETATM   17  C21 MIQ B 502     -15.153   4.752  11.615  1.00142.22     0.224 C 
HETATM   18  C22 MIQ B 502     -15.542   3.343  12.018  1.00139.52     0.106 C 
HETATM   19  O24 MIQ B 502     -14.039   5.138  11.699  1.00146.13    -0.273 OA
HETATM   20  C23 MIQ B 502     -16.623   3.480  13.075  1.00139.15     0.045 C 
ENDBRANCH  10  12
BRANCH   5  21
HETATM   21  N6  MIQ B 502     -23.096   0.255   9.304  1.00140.95    -0.377 N 
HETATM   22  C7  MIQ B 502     -24.075   0.946   8.482  1.00142.12     0.149 C 
HETATM   23  C8  MIQ B 502     -25.131  -0.005   7.935  1.00144.10     0.187 C 
HETATM   24  O9  MIQ B 502     -24.583  -1.158   7.369  1.00148.65    -0.388 OA
HETATM   25  C10 MIQ B 502     -23.227  -1.451   7.532  1.00147.44     0.187 C 
HETATM   26  C11 MIQ B 502     -22.529  -0.986   8.806  1.00144.08     0.149 C 
ENDBRANCH   5  21
TORSDOF 2
ENDMDL
MODEL 7
REMARK VINA RESULT:      -6.9      3.877      5.073
REMARK  2 active torsions:
REMARK  status: ('A' for Active; 'I' for Inactive)
REMARK    1  A    between atoms: C5_5  and  N6_21 
REMARK    2  A    between atoms: C18_14  and  N17_19 
ROOT
HETATM    1  O1  MIQ B 502     -21.038   4.224   8.756  1.00142.91    -0.171 OA
HETATM    2  C2  MIQ B 502     -21.212   4.241  10.142  1.00141.17     0.195 A 
HETATM    3  C3  MIQ B 502     -20.077   4.211  11.215  1.00141.71     0.035 A 
HETATM    4  C4  MIQ B 502     -18.598   4.161  11.132  1.00142.86     0.046 A 
HETATM    5  C5  MIQ B 502     -17.814   4.144  12.313  1.00139.53     0.031 A 
HETATM    6  C12 MIQ B 502     -18.467   4.177  13.614  1.00139.38     0.030 A 
HETATM    7  C13 MIQ B 502     -19.885   4.225  13.694  1.00141.18     0.019 A 
HETATM    8  C14 MIQ B 502     -20.703   4.245  12.450  1.00138.77     0.033 A 
HETATM    9  C15 MIQ B 502     -22.235   4.298  12.143  1.00142.10     0.195 A 
HETATM   10  N17 MIQ B 502     -22.343   4.292  10.824  1.00139.42    -0.288 N 
HETATM   11  O16 MIQ B 502     -23.273   4.340  13.075  1.00148.93    -0.171 OA
ENDROOT
BRANCH  10  12
HETATM   12  C18 MIQ B 502     -23.638   4.318  10.171  1.00139.82     0.187 C 
HETATM   13  C19 MIQ B 502     -23.684   3.152   9.176  1.00140.06     0.247 C 
HETATM   14  O25 MIQ B 502     -23.399   2.068   9.546  1.00143.95    -0.271 OA
HETATM   15  N20 MIQ B 502     -24.074   3.341   7.794  1.00140.02    -0.296 N 
HETATM   16  H13 MIQ B 502     -24.093   2.572   7.153  1.00142.77     0.171 HD
HETATM   17  C21 MIQ B 502     -24.407   4.675   7.364  1.00142.22     0.224 C 
HETATM   18  C22 MIQ B 502     -23.648   5.812   8.020  1.00139.52     0.106 C 
HETATM   19  O24 MIQ B 502     -25.236   4.871   6.544  1.00146.13    -0.273 OA
HETATM   20  C23 MIQ B 502     -23.876   5.677   9.514  1.00139.15     0.045 C 
ENDBRANCH  10  12
BRANCH   5  21
HETATM   21  N6  MIQ B 502     -16.367   4.081  12.218  1.00140.95    -0.377 N 
HETATM   22  C7  MIQ B 502     -15.653   3.161  13.087  1.00142.12     0.149 C 
HETATM   23  C8  MIQ B 502     -14.228   3.626  13.358  1.00144.10     0.187 C 
HETATM   24  O9  MIQ B 502     -13.548   4.000  12.197  1.00148.65    -0.388 OA
HETATM   25  C10 MIQ B 502     -14.234   4.134  10.988  1.00147.44     0.187 C 
HETATM   26  C11 MIQ B 502     -15.697   4.562  11.022  1.00144.08     0.149 C 
ENDBRANCH   5  21
TORSDOF 2
ENDMDL
MODEL 8
REMARK VINA RESULT:      -6.9      2.280      2.646
REMARK  2 active torsions:
REMARK  status: ('A' for Active; 'I' for Inactive)
REMARK    1  A    between atoms: C5_5  and  N6_21 
REMARK    2  A    between atoms: C18_14  and  N17_19 
ROOT
HETATM    1  O1  MIQ B 502     -20.992   4.031  15.278  1.00142.91    -0.171 OA
HETATM    2  C2  MIQ B 502     -21.046   4.041  13.883  1.00141.17     0.195 A 
HETATM    3  C3  MIQ B 502     -19.822   4.061  12.913  1.00141.71     0.035 A 
HETATM    4  C4  MIQ B 502     -18.355   4.070  13.123  1.00142.86     0.046 A 
HETATM    5  C5  MIQ B 502     -17.472   4.087  12.014  1.00139.53     0.031 A 
HETATM    6  C12 MIQ B 502     -18.011   4.094  10.661  1.00139.38     0.030 A 
HETATM    7  C13 MIQ B 502     -19.417   4.083  10.459  1.00141.18     0.019 A 
HETATM    8  C14 MIQ B 502     -20.340   4.064  11.627  1.00138.77     0.033 A 
HETATM    9  C15 MIQ B 502     -21.893   4.045  11.801  1.00142.10     0.195 A 
HETATM   10  N17 MIQ B 502     -22.115   4.032  13.105  1.00139.42    -0.288 N 
HETATM   11  O16 MIQ B 502     -22.848   4.046  10.783  1.00148.93    -0.171 OA
ENDROOT
BRANCH  10  12
HETATM   12  C18 MIQ B 502     -23.462   4.028  13.644  1.00139.82     0.187 C 
HETATM   13  C19 MIQ B 502     -24.206   2.832  13.038  1.00140.06     0.247 C 
HETATM   14  O25 MIQ B 502     -23.711   1.762  13.084  1.00143.95    -0.271 OA
HETATM   15  N20 MIQ B 502     -25.505   2.977  12.413  1.00140.02    -0.296 N 
HETATM   16  H13 MIQ B 502     -25.977   2.189  12.015  1.00142.77     0.171 HD
HETATM   17  C21 MIQ B 502     -26.084   4.294  12.360  1.00142.22     0.224 C 
HETATM   18  C22 MIQ B 502     -25.122   5.456  12.207  1.00139.52     0.106 C 
HETATM   19  O24 MIQ B 502     -27.252   4.459  12.437  1.00146.13    -0.273 OA
HETATM   20  C23 MIQ B 502     -24.149   5.365  13.369  1.00139.15     0.045 C 
ENDBRANCH  10  12
BRANCH   5  21
HETATM   21  N6  MIQ B 502     -16.038   4.111  12.235  1.00140.95    -0.377 N 
HETATM   22  C7  MIQ B 502     -15.443   3.069  13.054  1.00142.12     0.149 C 
HETATM   23  C8  MIQ B 502     -14.155   3.534  13.720  1.00144.10     0.187 C 
HETATM   24  O9  MIQ B 502     -13.282   4.166  12.832  1.00148.65    -0.388 OA
HETATM   25  C10 MIQ B 502     -13.707   4.510  11.546  1.00147.44     0.187 C 
HETATM   26  C11 MIQ B 502     -15.177   4.855  11.332  1.00144.08     0.149 C 
ENDBRANCH   5  21
TORSDOF 2
ENDMDL
MODEL 9
REMARK VINA RESULT:      -6.8      2.568      8.072
REMARK  2 active torsions:
REMARK  status: ('A' for Active; 'I' for Inactive)
REMARK    1  A    between atoms: C5_5  and  N6_21 
REMARK    2  A    between atoms: C18_14  and  N17_19 
ROOT
HETATM    1  O1  MIQ B 502     -22.801   4.675  13.062  1.00142.91    -0.171 OA
HETATM    2  C2  MIQ B 502     -21.718   3.897  13.477  1.00141.17     0.195 A 
HETATM    3  C3  MIQ B 502     -21.685   2.949  14.718  1.00141.71     0.035 A 
HETATM    4  C4  MIQ B 502     -22.682   2.593  15.755  1.00142.86     0.046 A 
HETATM    5  C5  MIQ B 502     -22.351   1.676  16.783  1.00139.53     0.031 A 
HETATM    6  C12 MIQ B 502     -21.023   1.079  16.819  1.00139.38     0.030 A 
HETATM    7  C13 MIQ B 502     -20.067   1.418  15.824  1.00141.18     0.019 A 
HETATM    8  C14 MIQ B 502     -20.422   2.381  14.745  1.00138.77     0.033 A 
HETATM    9  C15 MIQ B 502     -19.666   2.979  13.514  1.00142.10     0.195 A 
HETATM   10  N17 MIQ B 502     -20.523   3.794  12.920  1.00139.42    -0.288 N 
HETATM   11  O16 MIQ B 502     -18.353   2.708  13.127  1.00148.93    -0.171 OA
ENDROOT
BRANCH  10  12
HETATM   12  C18 MIQ B 502     -20.156   4.546  11.735  1.00139.82     0.187 C 
HETATM   13  C19 MIQ B 502     -19.788   3.540  10.638  1.00140.06     0.247 C 
HETATM   14  O25 MIQ B 502     -20.534   2.661  10.388  1.00143.95    -0.271 OA
HETATM   15  N20 MIQ B 502     -18.549   3.641   9.893  1.00140.02    -0.296 N 
HETATM   16  H13 MIQ B 502     -18.318   2.973   9.184  1.00142.77     0.171 HD
HETATM   17  C21 MIQ B 502     -17.650   4.716  10.224  1.00142.22     0.224 C 
HETATM   18  C22 MIQ B 502     -17.608   5.147  11.677  1.00139.52     0.106 C 
HETATM   19  O24 MIQ B 502     -16.982   5.237   9.400  1.00146.13    -0.273 OA
HETATM   20  C23 MIQ B 502     -19.028   5.526  12.055  1.00139.15     0.045 C 
ENDBRANCH  10  12
BRANCH   5  21
HETATM   21  N6  MIQ B 502     -23.332   1.348  17.802  1.00140.95    -0.377 N 
HETATM   22  C7  MIQ B 502     -22.899   0.599  18.969  1.00142.12     0.149 C 
HETATM   23  C8  MIQ B 502     -24.037  -0.205  19.584  1.00144.10     0.187 C 
HETATM   24  O9  MIQ B 502     -25.202   0.546  19.755  1.00148.65    -0.388 OA
HETATM   25  C10 MIQ B 502     -25.315   1.818  19.186  1.00147.44     0.187 C 
HETATM   26  C11 MIQ B 502     -24.570   2.104  17.886  1.00144.08     0.149 C 
ENDBRANCH   5  21
TORSDOF 2
ENDMDL
