MODEL 1
REMARK VINA RESULT:      -6.7      0.000      0.000
REMARK  2 active torsions:
REMARK  status: ('A' for Active; 'I' for Inactive)
REMARK    1  A    between atoms: C5_5  and  N6_21 
REMARK    2  A    between atoms: C18_14  and  N17_19 
ROOT
HETATM    1  O1  MIQ B 502      -5.701  24.209   4.774  1.00142.91    -0.171 OA
HETATM    2  C2  MIQ B 502      -4.843  23.429   3.997  1.00141.17     0.195 A 
HETATM    3  C3  MIQ B 502      -3.288  23.560   3.926  1.00141.71     0.035 A 
HETATM    4  C4  MIQ B 502      -2.310  24.455   4.588  1.00142.86     0.046 A 
HETATM    5  C5  MIQ B 502      -0.924  24.329   4.316  1.00139.53     0.031 A 
HETATM    6  C12 MIQ B 502      -0.461  23.314   3.381  1.00139.38     0.030 A 
HETATM    7  C13 MIQ B 502      -1.398  22.455   2.746  1.00141.18     0.019 A 
HETATM    8  C14 MIQ B 502      -2.851  22.591   3.038  1.00138.77     0.033 A 
HETATM    9  C15 MIQ B 502      -4.143  21.853   2.555  1.00142.10     0.195 A 
HETATM   10  N17 MIQ B 502      -5.152  22.435   3.181  1.00139.42    -0.288 N 
HETATM   11  O16 MIQ B 502      -4.211  20.796   1.646  1.00148.93    -0.171 OA
ENDROOT
BRANCH  10  12
HETATM   12  C18 MIQ B 502      -6.523  22.015   2.962  1.00139.82     0.187 C 
HETATM   13  C19 MIQ B 502      -7.322  23.243   2.506  1.00140.06     0.247 C 
HETATM   14  O25 MIQ B 502      -6.913  23.897   1.613  1.00143.95    -0.271 OA
HETATM   15  N20 MIQ B 502      -8.569  23.621   3.139  1.00140.02    -0.296 N 
HETATM   16  H13 MIQ B 502      -9.077  24.428   2.837  1.00142.77     0.171 HD
HETATM   17  C21 MIQ B 502      -9.041  22.813   4.234  1.00142.22     0.224 C 
HETATM   18  C22 MIQ B 502      -7.985  22.191   5.127  1.00139.52     0.106 C 
HETATM   19  O24 MIQ B 502     -10.195  22.641   4.421  1.00146.13    -0.273 OA
HETATM   20  C23 MIQ B 502      -7.088  21.365   4.224  1.00139.15     0.045 C 
ENDBRANCH  10  12
BRANCH   5  21
HETATM   21  N6  MIQ B 502       0.022  25.222   4.961  1.00140.95    -0.377 N 
HETATM   22  C7  MIQ B 502       0.384  26.456   4.284  1.00142.12     0.149 C 
HETATM   23  C8  MIQ B 502       1.768  26.943   4.692  1.00144.10     0.187 C 
HETATM   24  O9  MIQ B 502       1.959  26.943   6.075  1.00148.65    -0.388 OA
HETATM   25  C10 MIQ B 502       1.029  26.328   6.917  1.00147.44     0.187 C 
HETATM   26  C11 MIQ B 502       0.251  25.127   6.392  1.00144.08     0.149 C 
ENDBRANCH   5  21
TORSDOF 2
ENDMDL
MODEL 2
REMARK VINA RESULT:      -6.2      3.662      7.604
REMARK  2 active torsions:
REMARK  status: ('A' for Active; 'I' for Inactive)
REMARK    1  A    between atoms: C5_5  and  N6_21 
REMARK    2  A    between atoms: C18_14  and  N17_19 
ROOT
HETATM    1  O1  MIQ B 502      -4.095  23.182   1.316  1.00142.91    -0.171 OA
HETATM    2  C2  MIQ B 502      -4.538  22.171   2.172  1.00141.17     0.195 A 
HETATM    3  C3  MIQ B 502      -5.831  22.204   3.047  1.00141.71     0.035 A 
HETATM    4  C4  MIQ B 502      -6.906  23.206   3.238  1.00142.86     0.046 A 
HETATM    5  C5  MIQ B 502      -7.982  22.943   4.123  1.00139.53     0.031 A 
HETATM    6  C12 MIQ B 502      -8.031  21.680   4.846  1.00139.38     0.030 A 
HETATM    7  C13 MIQ B 502      -7.001  20.719   4.662  1.00141.18     0.019 A 
HETATM    8  C14 MIQ B 502      -5.875  21.000   3.730  1.00138.77     0.033 A 
HETATM    9  C15 MIQ B 502      -4.601  20.214   3.276  1.00142.10     0.195 A 
HETATM   10  N17 MIQ B 502      -3.975  20.999   2.415  1.00139.42    -0.288 N 
HETATM   11  O16 MIQ B 502      -4.208  18.944   3.700  1.00148.93    -0.171 OA
ENDROOT
BRANCH  10  12
HETATM   12  C18 MIQ B 502      -2.728  20.598   1.792  1.00139.82     0.187 C 
HETATM   13  C19 MIQ B 502      -1.717  21.733   1.994  1.00140.06     0.247 C 
HETATM   14  O25 MIQ B 502      -1.548  22.168   3.077  1.00143.95    -0.271 OA
HETATM   15  N20 MIQ B 502      -0.958  22.285   0.890  1.00140.02    -0.296 N 
HETATM   16  H13 MIQ B 502      -0.306  23.031   1.034  1.00142.77     0.171 HD
HETATM   17  C21 MIQ B 502      -1.190  21.745  -0.425  1.00142.22     0.224 C 
HETATM   18  C22 MIQ B 502      -2.601  21.282  -0.732  1.00139.52     0.106 C 
HETATM   19  O24 MIQ B 502      -0.320  21.662  -1.221  1.00146.13    -0.273 OA
HETATM   20  C23 MIQ B 502      -2.956  20.250   0.322  1.00139.15     0.045 C 
ENDBRANCH  10  12
BRANCH   5  21
HETATM   21  N6  MIQ B 502      -9.021  23.940   4.312  1.00140.95    -0.377 N 
HETATM   22  C7  MIQ B 502      -9.003  25.128   3.477  1.00142.12     0.149 C 
HETATM   23  C8  MIQ B 502      -9.674  26.313   4.159  1.00144.10     0.187 C 
HETATM   24  O9  MIQ B 502     -10.914  25.991   4.713  1.00148.65    -0.388 OA
HETATM   25  C10 MIQ B 502     -11.325  24.658   4.802  1.00147.44     0.187 C 
HETATM   26  C11 MIQ B 502     -10.263  23.577   4.972  1.00144.08     0.149 C 
ENDBRANCH   5  21
TORSDOF 2
ENDMDL
MODEL 3
REMARK VINA RESULT:      -6.1      3.351      8.129
REMARK  2 active torsions:
REMARK  status: ('A' for Active; 'I' for Inactive)
REMARK    1  A    between atoms: C5_5  and  N6_21 
REMARK    2  A    between atoms: C18_14  and  N17_19 
ROOT
HETATM    1  O1  MIQ B 502       0.350  24.684   4.899  1.00142.91    -0.171 OA
HETATM    2  C2  MIQ B 502      -0.775  25.245   4.290  1.00141.17     0.195 A 
HETATM    3  C3  MIQ B 502      -1.874  24.472   3.494  1.00141.71     0.035 A 
HETATM    4  C4  MIQ B 502      -2.072  23.042   3.156  1.00142.86     0.046 A 
HETATM    5  C5  MIQ B 502      -3.199  22.634   2.399  1.00139.53     0.031 A 
HETATM    6  C12 MIQ B 502      -4.167  23.625   1.952  1.00139.38     0.030 A 
HETATM    7  C13 MIQ B 502      -3.978  24.996   2.277  1.00141.18     0.019 A 
HETATM    8  C14 MIQ B 502      -2.794  25.418   3.074  1.00138.77     0.033 A 
HETATM    9  C15 MIQ B 502      -2.264  26.787   3.613  1.00142.10     0.195 A 
HETATM   10  N17 MIQ B 502      -1.144  26.514   4.263  1.00139.42    -0.288 N 
HETATM   11  O16 MIQ B 502      -2.854  28.039   3.438  1.00148.93    -0.171 OA
ENDROOT
BRANCH  10  12
HETATM   12  C18 MIQ B 502      -0.359  27.560   4.892  1.00139.82     0.187 C 
HETATM   13  C19 MIQ B 502       1.039  27.538   4.262  1.00140.06     0.247 C 
HETATM   14  O25 MIQ B 502       1.141  27.556   3.087  1.00143.95    -0.271 OA
HETATM   15  N20 MIQ B 502       2.240  27.501   5.070  1.00140.02    -0.296 N 
HETATM   16  H13 MIQ B 502       3.147  27.480   4.646  1.00142.77     0.171 HD
HETATM   17  C21 MIQ B 502       2.089  27.469   6.502  1.00142.22     0.224 C 
HETATM   18  C22 MIQ B 502       0.881  26.729   7.043  1.00139.52     0.106 C 
HETATM   19  O24 MIQ B 502       2.867  27.999   7.217  1.00146.13    -0.273 OA
HETATM   20  C23 MIQ B 502      -0.338  27.371   6.408  1.00139.15     0.045 C 
ENDBRANCH  10  12
BRANCH   5  21
HETATM   21  N6  MIQ B 502      -3.372  21.232   2.063  1.00140.95    -0.377 N 
HETATM   22  C7  MIQ B 502      -4.418  20.481   2.736  1.00142.12     0.149 C 
HETATM   23  C8  MIQ B 502      -4.097  18.993   2.802  1.00144.10     0.187 C 
HETATM   24  O9  MIQ B 502      -3.682  18.472   1.575  1.00148.65    -0.388 OA
HETATM   25  C10 MIQ B 502      -3.390  19.323   0.507  1.00147.44     0.187 C 
HETATM   26  C11 MIQ B 502      -2.848  20.716   0.811  1.00144.08     0.149 C 
ENDBRANCH   5  21
TORSDOF 2
ENDMDL
MODEL 4
REMARK VINA RESULT:      -6.0     22.352     23.282
REMARK  2 active torsions:
REMARK  status: ('A' for Active; 'I' for Inactive)
REMARK    1  A    between atoms: C5_5  and  N6_21 
REMARK    2  A    between atoms: C18_14  and  N17_19 
ROOT
HETATM    1  O1  MIQ B 502      -3.797   9.732  23.098  1.00142.91    -0.171 OA
HETATM    2  C2  MIQ B 502      -3.616   8.773  22.098  1.00141.17     0.195 A 
HETATM    3  C3  MIQ B 502      -2.336   8.581  21.225  1.00141.71     0.035 A 
HETATM    4  C4  MIQ B 502      -1.025   9.272  21.172  1.00142.86     0.046 A 
HETATM    5  C5  MIQ B 502      -0.034   8.858  20.248  1.00139.53     0.031 A 
HETATM    6  C12 MIQ B 502      -0.305   7.747  19.346  1.00139.38     0.030 A 
HETATM    7  C13 MIQ B 502      -1.560   7.084  19.397  1.00141.18     0.019 A 
HETATM    8  C14 MIQ B 502      -2.597   7.521  20.372  1.00138.77     0.033 A 
HETATM    9  C15 MIQ B 502      -4.048   7.053  20.717  1.00142.10     0.195 A 
HETATM   10  N17 MIQ B 502      -4.465   7.845  21.691  1.00139.42    -0.288 N 
HETATM   11  O16 MIQ B 502      -4.756   6.011  20.115  1.00148.93    -0.171 OA
ENDROOT
BRANCH  10  12
HETATM   12  C18 MIQ B 502      -5.793   7.710  22.261  1.00139.82     0.187 C 
HETATM   13  C19 MIQ B 502      -5.959   6.257  22.721  1.00140.06     0.247 C 
HETATM   14  O25 MIQ B 502      -5.133   5.773  23.410  1.00143.95    -0.271 OA
HETATM   15  N20 MIQ B 502      -7.107   5.460  22.337  1.00140.02    -0.296 N 
HETATM   16  H13 MIQ B 502      -7.200   4.511  22.639  1.00142.77     0.171 HD
HETATM   17  C21 MIQ B 502      -8.097   6.070  21.487  1.00142.22     0.224 C 
HETATM   18  C22 MIQ B 502      -7.594   7.075  20.469  1.00139.52     0.106 C 
HETATM   19  O24 MIQ B 502      -9.244   5.802  21.583  1.00146.13    -0.273 OA
HETATM   20  C23 MIQ B 502      -6.852   8.145  21.249  1.00139.15     0.045 C 
ENDBRANCH  10  12
BRANCH   5  21
HETATM   21  N6  MIQ B 502       1.240   9.553  20.197  1.00140.95    -0.377 N 
HETATM   22  C7  MIQ B 502       2.354   9.019  20.961  1.00142.12     0.149 C 
HETATM   23  C8  MIQ B 502       3.353  10.104  21.343  1.00144.10     0.187 C 
HETATM   24  O9  MIQ B 502       3.705  10.922  20.268  1.00148.65    -0.388 OA
HETATM   25  C10 MIQ B 502       3.002  10.847  19.062  1.00147.44     0.187 C 
HETATM   26  C11 MIQ B 502       1.527  10.462  19.100  1.00144.08     0.149 C 
ENDBRANCH   5  21
TORSDOF 2
ENDMDL
MODEL 5
REMARK VINA RESULT:      -5.9      3.799      7.764
REMARK  2 active torsions:
REMARK  status: ('A' for Active; 'I' for Inactive)
REMARK    1  A    between atoms: C5_5  and  N6_21 
REMARK    2  A    between atoms: C18_14  and  N17_19 
ROOT
HETATM    1  O1  MIQ B 502      -4.855  23.067   1.184  1.00142.91    -0.171 OA
HETATM    2  C2  MIQ B 502      -5.239  22.220   2.227  1.00141.17     0.195 A 
HETATM    3  C3  MIQ B 502      -6.485  22.402   3.151  1.00141.71     0.035 A 
HETATM    4  C4  MIQ B 502      -7.562  23.419   3.222  1.00142.86     0.046 A 
HETATM    5  C5  MIQ B 502      -8.586  23.311   4.196  1.00139.53     0.031 A 
HETATM    6  C12 MIQ B 502      -8.580  22.194   5.131  1.00139.38     0.030 A 
HETATM    7  C13 MIQ B 502      -7.549  21.219   5.062  1.00141.18     0.019 A 
HETATM    8  C14 MIQ B 502      -6.477  21.336   4.035  1.00138.77     0.033 A 
HETATM    9  C15 MIQ B 502      -5.220  20.487   3.658  1.00142.10     0.195 A 
HETATM   10  N17 MIQ B 502      -4.650  21.111   2.640  1.00139.42    -0.288 N 
HETATM   11  O16 MIQ B 502      -4.788  19.312   4.275  1.00148.93    -0.171 OA
ENDROOT
BRANCH  10  12
HETATM   12  C18 MIQ B 502      -3.432  20.610   2.030  1.00139.82     0.187 C 
HETATM   13  C19 MIQ B 502      -2.416  21.759   2.003  1.00140.06     0.247 C 
HETATM   14  O25 MIQ B 502      -2.198  22.358   2.996  1.00143.95    -0.271 OA
HETATM   15  N20 MIQ B 502      -1.711  22.127   0.792  1.00140.02    -0.296 N 
HETATM   16  H13 MIQ B 502      -1.055  22.883   0.786  1.00142.77     0.171 HD
HETATM   17  C21 MIQ B 502      -2.003  21.387  -0.409  1.00142.22     0.224 C 
HETATM   18  C22 MIQ B 502      -3.426  20.889  -0.573  1.00139.52     0.106 C 
HETATM   19  O24 MIQ B 502      -1.172  21.176  -1.222  1.00146.13    -0.273 OA
HETATM   20  C23 MIQ B 502      -3.728  20.037   0.645  1.00139.15     0.045 C 
ENDBRANCH  10  12
BRANCH   5  21
HETATM   21  N6  MIQ B 502      -9.625  24.322   4.264  1.00140.95    -0.377 N 
HETATM   22  C7  MIQ B 502     -10.836  24.024   5.011  1.00142.12     0.149 C 
HETATM   23  C8  MIQ B 502     -12.031  24.815   4.494  1.00144.10     0.187 C 
HETATM   24  O9  MIQ B 502     -11.752  26.173   4.326  1.00148.65    -0.388 OA
HETATM   25  C10 MIQ B 502     -10.439  26.642   4.412  1.00147.44     0.187 C 
HETATM   26  C11 MIQ B 502      -9.303  25.712   3.996  1.00144.08     0.149 C 
ENDBRANCH   5  21
TORSDOF 2
ENDMDL
MODEL 6
REMARK VINA RESULT:      -5.9      2.826      4.207
REMARK  2 active torsions:
REMARK  status: ('A' for Active; 'I' for Inactive)
REMARK    1  A    between atoms: C5_5  and  N6_21 
REMARK    2  A    between atoms: C18_14  and  N17_19 
ROOT
HETATM    1  O1  MIQ B 502      -1.262  22.071   2.817  1.00142.91    -0.171 OA
HETATM    2  C2  MIQ B 502      -1.963  23.278   2.784  1.00141.17     0.195 A 
HETATM    3  C3  MIQ B 502      -1.466  24.649   3.344  1.00141.71     0.035 A 
HETATM    4  C4  MIQ B 502      -0.221  25.081   4.022  1.00142.86     0.046 A 
HETATM    5  C5  MIQ B 502      -0.056  26.431   4.423  1.00139.53     0.031 A 
HETATM    6  C12 MIQ B 502      -1.115  27.396   4.168  1.00139.38     0.030 A 
HETATM    7  C13 MIQ B 502      -2.309  26.982   3.517  1.00141.18     0.019 A 
HETATM    8  C14 MIQ B 502      -2.476  25.564   3.096  1.00138.77     0.033 A 
HETATM    9  C15 MIQ B 502      -3.605  24.757   2.376  1.00142.10     0.195 A 
HETATM   10  N17 MIQ B 502      -3.162  23.515   2.280  1.00139.42    -0.288 N 
HETATM   11  O16 MIQ B 502      -4.832  25.252   1.931  1.00148.93    -0.171 OA
ENDROOT
BRANCH  10  12
HETATM   12  C18 MIQ B 502      -3.964  22.469   1.672  1.00139.82     0.187 C 
HETATM   13  C19 MIQ B 502      -4.138  21.351   2.707  1.00140.06     0.247 C 
HETATM   14  O25 MIQ B 502      -4.517  21.623   3.791  1.00143.95    -0.271 OA
HETATM   15  N20 MIQ B 502      -3.854  19.966   2.391  1.00140.02    -0.296 N 
HETATM   16  H13 MIQ B 502      -3.965  19.247   3.077  1.00142.77     0.171 HD
HETATM   17  C21 MIQ B 502      -3.383  19.661   1.064  1.00142.22     0.224 C 
HETATM   18  C22 MIQ B 502      -2.511  20.705   0.394  1.00139.52     0.106 C 
HETATM   19  O24 MIQ B 502      -3.667  18.648   0.526  1.00146.13    -0.273 OA
HETATM   20  C23 MIQ B 502      -3.318  21.991   0.373  1.00139.15     0.045 C 
ENDBRANCH  10  12
BRANCH   5  21
HETATM   21  N6  MIQ B 502       1.163  26.838   5.099  1.00140.95    -0.377 N 
HETATM   22  C7  MIQ B 502       2.058  27.760   4.422  1.00142.12     0.149 C 
HETATM   23  C8  MIQ B 502       3.499  27.600   4.889  1.00144.10     0.187 C 
HETATM   24  O9  MIQ B 502       3.619  27.565   6.280  1.00148.65    -0.388 OA
HETATM   25  C10 MIQ B 502       2.483  27.455   7.085  1.00147.44     0.187 C 
HETATM   26  C11 MIQ B 502       1.273  26.703   6.541  1.00144.08     0.149 C 
ENDBRANCH   5  21
TORSDOF 2
ENDMDL
MODEL 7
REMARK VINA RESULT:      -5.8      1.698      2.138
REMARK  2 active torsions:
REMARK  status: ('A' for Active; 'I' for Inactive)
REMARK    1  A    between atoms: C5_5  and  N6_21 
REMARK    2  A    between atoms: C18_14  and  N17_19 
ROOT
HETATM    1  O1  MIQ B 502      -4.062  23.159   4.648  1.00142.91    -0.171 OA
HETATM    2  C2  MIQ B 502      -3.126  23.020   3.621  1.00141.17     0.195 A 
HETATM    3  C3  MIQ B 502      -1.738  23.732   3.535  1.00141.71     0.035 A 
HETATM    4  C4  MIQ B 502      -1.026  24.685   4.418  1.00142.86     0.046 A 
HETATM    5  C5  MIQ B 502       0.259  25.168   4.063  1.00139.53     0.031 A 
HETATM    6  C12 MIQ B 502       0.882  24.722   2.825  1.00139.38     0.030 A 
HETATM    7  C13 MIQ B 502       0.199  23.807   1.979  1.00141.18     0.019 A 
HETATM    8  C14 MIQ B 502      -1.149  23.302   2.358  1.00138.77     0.033 A 
HETATM    9  C15 MIQ B 502      -2.176  22.318   1.709  1.00142.10     0.195 A 
HETATM   10  N17 MIQ B 502      -3.209  22.272   2.534  1.00139.42    -0.288 N 
HETATM   11  O16 MIQ B 502      -2.028  21.631   0.503  1.00148.93    -0.171 OA
ENDROOT
BRANCH  10  12
HETATM   12  C18 MIQ B 502      -4.376  21.460   2.243  1.00139.82     0.187 C 
HETATM   13  C19 MIQ B 502      -5.614  22.353   2.383  1.00140.06     0.247 C 
HETATM   14  O25 MIQ B 502      -5.646  23.387   1.817  1.00143.95    -0.271 OA
HETATM   15  N20 MIQ B 502      -6.752  21.959   3.189  1.00140.02    -0.296 N 
HETATM   16  H13 MIQ B 502      -7.552  22.554   3.278  1.00142.77     0.171 HD
HETATM   17  C21 MIQ B 502      -6.686  20.696   3.878  1.00142.22     0.224 C 
HETATM   18  C22 MIQ B 502      -5.320  20.260   4.370  1.00139.52     0.106 C 
HETATM   19  O24 MIQ B 502      -7.649  20.033   4.046  1.00146.13    -0.273 OA
HETATM   20  C23 MIQ B 502      -4.411  20.234   3.155  1.00139.15     0.045 C 
ENDBRANCH  10  12
BRANCH   5  21
HETATM   21  N6  MIQ B 502       0.939  26.113   4.930  1.00140.95    -0.377 N 
HETATM   22  C7  MIQ B 502       1.776  27.134   4.323  1.00142.12     0.149 C 
HETATM   23  C8  MIQ B 502       2.878  27.600   5.266  1.00144.10     0.187 C 
HETATM   24  O9  MIQ B 502       2.408  27.897   6.547  1.00148.65    -0.388 OA
HETATM   25  C10 MIQ B 502       1.106  27.555   6.920  1.00147.44     0.187 C 
HETATM   26  C11 MIQ B 502       0.464  26.325   6.286  1.00144.08     0.149 C 
ENDBRANCH   5  21
TORSDOF 2
ENDMDL
MODEL 8
REMARK VINA RESULT:      -5.7      4.034      5.757
REMARK  2 active torsions:
REMARK  status: ('A' for Active; 'I' for Inactive)
REMARK    1  A    between atoms: C5_5  and  N6_21 
REMARK    2  A    between atoms: C18_14  and  N17_19 
ROOT
HETATM    1  O1  MIQ B 502      -9.207  23.968   0.923  1.00142.91    -0.171 OA
HETATM    2  C2  MIQ B 502      -8.762  23.568   2.185  1.00141.17     0.195 A 
HETATM    3  C3  MIQ B 502      -7.368  22.947   2.518  1.00141.71     0.035 A 
HETATM    4  C4  MIQ B 502      -6.179  22.613   1.698  1.00142.86     0.046 A 
HETATM    5  C5  MIQ B 502      -5.029  22.044   2.301  1.00139.53     0.031 A 
HETATM    6  C12 MIQ B 502      -5.017  21.787   3.734  1.00139.38     0.030 A 
HETATM    7  C13 MIQ B 502      -6.156  22.108   4.520  1.00141.18     0.019 A 
HETATM    8  C14 MIQ B 502      -7.360  22.707   3.882  1.00138.77     0.033 A 
HETATM    9  C15 MIQ B 502      -8.757  23.183   4.399  1.00142.10     0.195 A 
HETATM   10  N17 MIQ B 502      -9.406  23.632   3.338  1.00139.42    -0.288 N 
HETATM   11  O16 MIQ B 502      -9.220  23.138   5.715  1.00148.93    -0.171 OA
ENDROOT
BRANCH  10  12
HETATM   12  C18 MIQ B 502     -10.759  24.146   3.439  1.00139.82     0.187 C 
HETATM   13  C19 MIQ B 502     -10.768  25.230   4.524  1.00140.06     0.247 C 
HETATM   14  O25 MIQ B 502      -9.970  26.097   4.478  1.00143.95    -0.271 OA
HETATM   15  N20 MIQ B 502     -11.734  25.222   5.603  1.00140.02    -0.296 N 
HETATM   16  H13 MIQ B 502     -11.725  25.932   6.309  1.00142.77     0.171 HD
HETATM   17  C21 MIQ B 502     -12.692  24.147   5.644  1.00142.22     0.224 C 
HETATM   18  C22 MIQ B 502     -12.220  22.796   5.142  1.00139.52     0.106 C 
HETATM   19  O24 MIQ B 502     -13.791  24.314   6.044  1.00146.13    -0.273 OA
HETATM   20  C23 MIQ B 502     -11.740  23.008   3.718  1.00139.15     0.045 C 
ENDBRANCH  10  12
BRANCH   5  21
HETATM   21  N6  MIQ B 502      -3.878  21.709   1.483  1.00140.95    -0.377 N 
HETATM   22  C7  MIQ B 502      -2.634  21.357   2.146  1.00142.12     0.149 C 
HETATM   23  C8  MIQ B 502      -1.420  21.660   1.277  1.00144.10     0.187 C 
HETATM   24  O9  MIQ B 502      -1.555  21.185  -0.029  1.00148.65    -0.388 OA
HETATM   25  C10 MIQ B 502      -2.786  20.706  -0.484  1.00147.44     0.187 C 
HETATM   26  C11 MIQ B 502      -4.063  21.302   0.101  1.00144.08     0.149 C 
ENDBRANCH   5  21
TORSDOF 2
ENDMDL
MODEL 9
REMARK VINA RESULT:      -5.7      4.227      6.286
REMARK  2 active torsions:
REMARK  status: ('A' for Active; 'I' for Inactive)
REMARK    1  A    between atoms: C5_5  and  N6_21 
REMARK    2  A    between atoms: C18_14  and  N17_19 
ROOT
HETATM    1  O1  MIQ B 502      -6.736  25.975   2.757  1.00142.91    -0.171 OA
HETATM    2  C2  MIQ B 502      -7.369  25.000   3.531  1.00141.17     0.195 A 
HETATM    3  C3  MIQ B 502      -6.914  23.514   3.694  1.00141.71     0.035 A 
HETATM    4  C4  MIQ B 502      -5.782  22.729   3.147  1.00142.86     0.046 A 
HETATM    5  C5  MIQ B 502      -5.628  21.361   3.488  1.00139.53     0.031 A 
HETATM    6  C12 MIQ B 502      -6.587  20.726   4.380  1.00139.38     0.030 A 
HETATM    7  C13 MIQ B 502      -7.672  21.479   4.906  1.00141.18     0.019 A 
HETATM    8  C14 MIQ B 502      -7.827  22.915   4.546  1.00138.77     0.033 A 
HETATM    9  C15 MIQ B 502      -8.854  24.036   4.915  1.00142.10     0.195 A 
HETATM   10  N17 MIQ B 502      -8.455  25.122   4.274  1.00139.42    -0.288 N 
HETATM   11  O16 MIQ B 502      -9.967  23.908   5.749  1.00148.93    -0.171 OA
ENDROOT
BRANCH  10  12
HETATM   12  C18 MIQ B 502      -9.189  26.370   4.370  1.00139.82     0.187 C 
HETATM   13  C19 MIQ B 502      -9.540  26.817   2.945  1.00140.06     0.247 C 
HETATM   14  O25 MIQ B 502     -10.064  26.053   2.215  1.00143.95    -0.271 OA
HETATM   15  N20 MIQ B 502      -9.251  28.155   2.471  1.00140.02    -0.296 N 
HETATM   16  H13 MIQ B 502      -9.479  28.432   1.537  1.00142.77     0.171 HD
HETATM   17  C21 MIQ B 502      -8.601  29.066   3.378  1.00142.22     0.224 C 
HETATM   18  C22 MIQ B 502      -7.614  28.463   4.359  1.00139.52     0.106 C 
HETATM   19  O24 MIQ B 502      -8.831  30.225   3.360  1.00146.13    -0.273 OA
HETATM   20  C23 MIQ B 502      -8.374  27.407   5.141  1.00139.15     0.045 C 
ENDBRANCH  10  12
BRANCH   5  21
HETATM   21  N6  MIQ B 502      -4.523  20.600   2.933  1.00140.95    -0.377 N 
HETATM   22  C7  MIQ B 502      -3.341  21.317   2.487  1.00142.12     0.149 C 
HETATM   23  C8  MIQ B 502      -2.594  20.559   1.397  1.00144.10     0.187 C 
HETATM   24  O9  MIQ B 502      -2.393  19.213   1.712  1.00148.65    -0.388 OA
HETATM   25  C10 MIQ B 502      -3.038  18.639   2.810  1.00147.44     0.187 C 
HETATM   26  C11 MIQ B 502      -4.404  19.181   3.220  1.00144.08     0.149 C 
ENDBRANCH   5  21
TORSDOF 2
ENDMDL
