MODEL 1
REMARK VINA RESULT:      -6.5      0.000      0.000
REMARK  2 active torsions:
REMARK  status: ('A' for Active; 'I' for Inactive)
REMARK    1  A    between atoms: C5_5  and  N6_21 
REMARK    2  A    between atoms: C18_14  and  N17_19 
ROOT
HETATM    1  O1  MIQ B 502      18.847   9.908  10.922  1.00142.91    -0.171 OA
HETATM    2  C2  MIQ B 502      19.200   8.631  11.366  1.00141.17     0.195 A 
HETATM    3  C3  MIQ B 502      19.832   7.496  10.499  1.00141.71     0.035 A 
HETATM    4  C4  MIQ B 502      20.231   7.403   9.075  1.00142.86     0.046 A 
HETATM    5  C5  MIQ B 502      20.796   6.207   8.565  1.00139.53     0.031 A 
HETATM    6  C12 MIQ B 502      20.986   5.065   9.447  1.00139.38     0.030 A 
HETATM    7  C13 MIQ B 502      20.606   5.154  10.813  1.00141.18     0.019 A 
HETATM    8  C14 MIQ B 502      20.015   6.413  11.344  1.00138.77     0.033 A 
HETATM    9  C15 MIQ B 502      19.493   6.878  12.742  1.00142.10     0.195 A 
HETATM   10  N17 MIQ B 502      19.081   8.125  12.581  1.00139.42    -0.288 N 
HETATM   11  O16 MIQ B 502      19.467   6.126  13.917  1.00148.93    -0.171 OA
ENDROOT
BRANCH  10  12
HETATM   12  C18 MIQ B 502      18.512   8.882  13.681  1.00139.82     0.187 C 
HETATM   13  C19 MIQ B 502      17.189   9.488  13.196  1.00140.06     0.247 C 
HETATM   14  O25 MIQ B 502      16.390   8.790  12.682  1.00143.95    -0.271 OA
HETATM   15  N20 MIQ B 502      16.890  10.897  13.356  1.00140.02    -0.296 N 
HETATM   16  H13 MIQ B 502      16.026  11.281  13.029  1.00142.77     0.171 HD
HETATM   17  C21 MIQ B 502      17.886  11.731  13.977  1.00142.22     0.224 C 
HETATM   18  C22 MIQ B 502      19.336  11.368  13.720  1.00139.52     0.106 C 
HETATM   19  O24 MIQ B 502      17.586  12.650  14.657  1.00146.13    -0.273 OA
HETATM   20  C23 MIQ B 502      19.507   9.930  14.176  1.00139.15     0.045 C 
ENDBRANCH  10  12
BRANCH   5  21
HETATM   21  N6  MIQ B 502      21.168   6.125   7.164  1.00140.95    -0.377 N 
HETATM   22  C7  MIQ B 502      22.503   6.545   6.774  1.00142.12     0.149 C 
HETATM   23  C8  MIQ B 502      22.550   7.017   5.327  1.00144.10     0.187 C 
HETATM   24  O9  MIQ B 502      21.921   6.134   4.447  1.00148.65    -0.388 OA
HETATM   25  C10 MIQ B 502      21.149   5.077   4.935  1.00147.44     0.187 C 
HETATM   26  C11 MIQ B 502      20.427   5.256   6.267  1.00144.08     0.149 C 
ENDBRANCH   5  21
TORSDOF 2
ENDMDL
MODEL 2
REMARK VINA RESULT:      -6.3     25.732     28.830
REMARK  2 active torsions:
REMARK  status: ('A' for Active; 'I' for Inactive)
REMARK    1  A    between atoms: C5_5  and  N6_21 
REMARK    2  A    between atoms: C18_14  and  N17_19 
ROOT
HETATM    1  O1  MIQ B 502      -5.677  20.146   7.019  1.00142.91    -0.171 OA
HETATM    2  C2  MIQ B 502      -5.258  19.090   7.831  1.00141.17     0.195 A 
HETATM    3  C3  MIQ B 502      -5.910  18.648   9.180  1.00141.71     0.035 A 
HETATM    4  C4  MIQ B 502      -7.067  19.143   9.963  1.00142.86     0.046 A 
HETATM    5  C5  MIQ B 502      -7.427  18.518  11.183  1.00139.53     0.031 A 
HETATM    6  C12 MIQ B 502      -6.655  17.383  11.669  1.00139.38     0.030 A 
HETATM    7  C13 MIQ B 502      -5.546  16.908  10.918  1.00141.18     0.019 A 
HETATM    8  C14 MIQ B 502      -5.175  17.566   9.636  1.00138.77     0.033 A 
HETATM    9  C15 MIQ B 502      -4.060  17.335   8.565  1.00142.10     0.195 A 
HETATM   10  N17 MIQ B 502      -4.249  18.258   7.636  1.00139.42    -0.288 N 
HETATM   11  O16 MIQ B 502      -3.067  16.354   8.590  1.00148.93    -0.171 OA
ENDROOT
BRANCH  10  12
HETATM   12  C18 MIQ B 502      -3.379  18.357   6.479  1.00139.82     0.187 C 
HETATM   13  C19 MIQ B 502      -2.954  19.824   6.338  1.00140.06     0.247 C 
HETATM   14  O25 MIQ B 502      -2.508  20.386   7.274  1.00143.95    -0.271 OA
HETATM   15  N20 MIQ B 502      -3.079  20.539   5.085  1.00140.02    -0.296 N 
HETATM   16  H13 MIQ B 502      -2.804  21.498   5.008  1.00142.77     0.171 HD
HETATM   17  C21 MIQ B 502      -3.636  19.834   3.959  1.00142.22     0.224 C 
HETATM   18  C22 MIQ B 502      -4.702  18.800   4.263  1.00139.52     0.106 C 
HETATM   19  O24 MIQ B 502      -3.274  20.049   2.855  1.00146.13    -0.273 OA
HETATM   20  C23 MIQ B 502      -4.082  17.814   5.236  1.00139.15     0.045 C 
ENDBRANCH  10  12
BRANCH   5  21
HETATM   21  N6  MIQ B 502      -8.554  19.023  11.947  1.00140.95    -0.377 N 
HETATM   22  C7  MIQ B 502      -8.452  20.344  12.544  1.00142.12     0.149 C 
HETATM   23  C8  MIQ B 502      -9.337  20.480  13.776  1.00144.10     0.187 C 
HETATM   24  O9  MIQ B 502     -10.638  20.019  13.565  1.00148.65    -0.388 OA
HETATM   25  C10 MIQ B 502     -10.957  19.307  12.406  1.00147.44     0.187 C 
HETATM   26  C11 MIQ B 502      -9.875  18.452  11.754  1.00144.08     0.149 C 
ENDBRANCH   5  21
TORSDOF 2
ENDMDL
MODEL 3
REMARK VINA RESULT:      -6.2     25.715     27.094
REMARK  2 active torsions:
REMARK  status: ('A' for Active; 'I' for Inactive)
REMARK    1  A    between atoms: C5_5  and  N6_21 
REMARK    2  A    between atoms: C18_14  and  N17_19 
ROOT
HETATM    1  O1  MIQ B 502      -4.052  19.459  10.752  1.00142.91    -0.171 OA
HETATM    2  C2  MIQ B 502      -3.601  20.059   9.574  1.00141.17     0.195 A 
HETATM    3  C3  MIQ B 502      -2.715  21.341   9.473  1.00141.71     0.035 A 
HETATM    4  C4  MIQ B 502      -2.118  22.249  10.480  1.00142.86     0.046 A 
HETATM    5  C5  MIQ B 502      -1.338  23.360  10.071  1.00139.53     0.031 A 
HETATM    6  C12 MIQ B 502      -1.123  23.609   8.653  1.00139.38     0.030 A 
HETATM    7  C13 MIQ B 502      -1.695  22.738   7.686  1.00141.18     0.019 A 
HETATM    8  C14 MIQ B 502      -2.510  21.572   8.122  1.00138.77     0.033 A 
HETATM    9  C15 MIQ B 502      -3.273  20.426   7.381  1.00142.10     0.195 A 
HETATM   10  N17 MIQ B 502      -3.817  19.678   8.326  1.00139.42    -0.288 N 
HETATM   11  O16 MIQ B 502      -3.361  20.237   6.000  1.00148.93    -0.171 OA
ENDROOT
BRANCH  10  12
HETATM   12  C18 MIQ B 502      -4.624  18.516   8.003  1.00139.82     0.187 C 
HETATM   13  C19 MIQ B 502      -5.933  18.620   8.795  1.00140.06     0.247 C 
HETATM   14  O25 MIQ B 502      -6.559  19.618   8.745  1.00143.95    -0.271 OA
HETATM   15  N20 MIQ B 502      -6.427  17.522   9.601  1.00140.02    -0.296 N 
HETATM   16  H13 MIQ B 502      -7.279  17.605  10.119  1.00142.77     0.171 HD
HETATM   17  C21 MIQ B 502      -5.639  16.317   9.655  1.00142.22     0.224 C 
HETATM   18  C22 MIQ B 502      -4.134  16.483   9.579  1.00139.52     0.106 C 
HETATM   19  O24 MIQ B 502      -6.145  15.253   9.748  1.00146.13    -0.273 OA
HETATM   20  C23 MIQ B 502      -3.847  17.232   8.290  1.00139.15     0.045 C 
ENDBRANCH  10  12
BRANCH   5  21
HETATM   21  N6  MIQ B 502      -0.772  24.250  11.068  1.00140.95    -0.377 N 
HETATM   22  C7  MIQ B 502      -1.305  24.209  12.419  1.00142.12     0.149 C 
HETATM   23  C8  MIQ B 502      -1.124  25.536  13.144  1.00144.10     0.187 C 
HETATM   24  O9  MIQ B 502       0.172  26.045  13.029  1.00148.65    -0.388 OA
HETATM   25  C10 MIQ B 502       1.081  25.470  12.138  1.00147.44     0.187 C 
HETATM   26  C11 MIQ B 502       0.546  24.824  10.864  1.00144.08     0.149 C 
ENDBRANCH   5  21
TORSDOF 2
ENDMDL
MODEL 4
REMARK VINA RESULT:      -6.2     24.890     27.076
REMARK  2 active torsions:
REMARK  status: ('A' for Active; 'I' for Inactive)
REMARK    1  A    between atoms: C5_5  and  N6_21 
REMARK    2  A    between atoms: C18_14  and  N17_19 
ROOT
HETATM    1  O1  MIQ B 502      -3.756  21.998   5.570  1.00142.91    -0.171 OA
HETATM    2  C2  MIQ B 502      -3.088  20.853   5.130  1.00141.17     0.195 A 
HETATM    3  C3  MIQ B 502      -3.120  19.448   5.811  1.00141.71     0.035 A 
HETATM    4  C4  MIQ B 502      -3.797  18.915   7.017  1.00142.86     0.046 A 
HETATM    5  C5  MIQ B 502      -3.631  17.557   7.392  1.00139.53     0.031 A 
HETATM    6  C12 MIQ B 502      -2.791  16.683   6.586  1.00139.38     0.030 A 
HETATM    7  C13 MIQ B 502      -2.142  17.193   5.429  1.00141.18     0.019 A 
HETATM    8  C14 MIQ B 502      -2.322  18.619   5.040  1.00138.77     0.033 A 
HETATM    9  C15 MIQ B 502      -1.793  19.514   3.872  1.00142.10     0.195 A 
HETATM   10  N17 MIQ B 502      -2.311  20.715   4.070  1.00139.42    -0.288 N 
HETATM   11  O16 MIQ B 502      -0.943  19.121   2.837  1.00148.93    -0.171 OA
ENDROOT
BRANCH  10  12
HETATM   12  C18 MIQ B 502      -2.020  21.822   3.177  1.00139.82     0.187 C 
HETATM   13  C19 MIQ B 502      -1.550  23.003   4.035  1.00140.06     0.247 C 
HETATM   14  O25 MIQ B 502      -0.689  22.836   4.824  1.00143.95    -0.271 OA
HETATM   15  N20 MIQ B 502      -2.130  24.323   3.899  1.00140.02    -0.296 N 
HETATM   16  H13 MIQ B 502      -1.818  25.085   4.470  1.00142.77     0.171 HD
HETATM   17  C21 MIQ B 502      -3.186  24.501   2.937  1.00142.22     0.224 C 
HETATM   18  C22 MIQ B 502      -4.117  23.322   2.722  1.00139.52     0.106 C 
HETATM   19  O24 MIQ B 502      -3.316  25.513   2.341  1.00146.13    -0.273 OA
HETATM   20  C23 MIQ B 502      -3.241  22.149   2.320  1.00139.15     0.045 C 
ENDBRANCH  10  12
BRANCH   5  21
HETATM   21  N6  MIQ B 502      -4.288  17.053   8.583  1.00140.95    -0.377 N 
HETATM   22  C7  MIQ B 502      -4.986  17.993   9.443  1.00142.12     0.149 C 
HETATM   23  C8  MIQ B 502      -5.051  17.507  10.885  1.00144.10     0.187 C 
HETATM   24  O9  MIQ B 502      -5.467  16.178  10.992  1.00148.65    -0.388 OA
HETATM   25  C10 MIQ B 502      -5.567  15.374   9.853  1.00147.44     0.187 C 
HETATM   26  C11 MIQ B 502      -4.625  15.644   8.685  1.00144.08     0.149 C 
ENDBRANCH   5  21
TORSDOF 2
ENDMDL
MODEL 5
REMARK VINA RESULT:      -6.0     25.659     28.256
REMARK  2 active torsions:
REMARK  status: ('A' for Active; 'I' for Inactive)
REMARK    1  A    between atoms: C5_5  and  N6_21 
REMARK    2  A    between atoms: C18_14  and  N17_19 
ROOT
HETATM    1  O1  MIQ B 502      -7.737  21.049   8.049  1.00142.91    -0.171 OA
HETATM    2  C2  MIQ B 502      -7.200  20.029   8.838  1.00141.17     0.195 A 
HETATM    3  C3  MIQ B 502      -5.941  19.168   8.502  1.00141.71     0.035 A 
HETATM    4  C4  MIQ B 502      -4.994  19.150   7.361  1.00142.86     0.046 A 
HETATM    5  C5  MIQ B 502      -3.916  18.229   7.340  1.00139.53     0.031 A 
HETATM    6  C12 MIQ B 502      -3.739  17.297   8.444  1.00139.38     0.030 A 
HETATM    7  C13 MIQ B 502      -4.646  17.316   9.538  1.00141.18     0.019 A 
HETATM    8  C14 MIQ B 502      -5.774  18.286   9.557  1.00138.77     0.033 A 
HETATM    9  C15 MIQ B 502      -6.937  18.601  10.554  1.00142.10     0.195 A 
HETATM   10  N17 MIQ B 502      -7.629  19.588  10.008  1.00139.42    -0.288 N 
HETATM   11  O16 MIQ B 502      -7.191  17.965  11.770  1.00148.93    -0.171 OA
ENDROOT
BRANCH  10  12
HETATM   12  C18 MIQ B 502      -8.806  20.136  10.656  1.00139.82     0.187 C 
HETATM   13  C19 MIQ B 502      -8.391  20.616  12.052  1.00140.06     0.247 C 
HETATM   14  O25 MIQ B 502      -7.456  21.327  12.162  1.00143.95    -0.271 OA
HETATM   15  N20 MIQ B 502      -9.119  20.225  13.242  1.00140.02    -0.296 N 
HETATM   16  H13 MIQ B 502      -8.834  20.539  14.148  1.00142.77     0.171 HD
HETATM   17  C21 MIQ B 502     -10.250  19.348  13.082  1.00142.22     0.224 C 
HETATM   18  C22 MIQ B 502     -10.166  18.323  11.967  1.00139.52     0.106 C 
HETATM   19  O24 MIQ B 502     -11.198  19.428  13.784  1.00146.13    -0.273 OA
HETATM   20  C23 MIQ B 502      -9.928  19.100  10.685  1.00139.15     0.045 C 
ENDBRANCH  10  12
BRANCH   5  21
HETATM   21  N6  MIQ B 502      -3.005  18.212   6.210  1.00140.95    -0.377 N 
HETATM   22  C7  MIQ B 502      -2.348  16.963   5.866  1.00142.12     0.149 C 
HETATM   23  C8  MIQ B 502      -1.020  17.195   5.157  1.00144.10     0.187 C 
HETATM   24  O9  MIQ B 502      -1.112  18.125   4.120  1.00148.65    -0.388 OA
HETATM   25  C10 MIQ B 502      -2.268  18.894   3.960  1.00147.44     0.187 C 
HETATM   26  C11 MIQ B 502      -3.083  19.252   5.199  1.00144.08     0.149 C 
ENDBRANCH   5  21
TORSDOF 2
ENDMDL
MODEL 6
REMARK VINA RESULT:      -6.0     18.021     23.313
REMARK  2 active torsions:
REMARK  status: ('A' for Active; 'I' for Inactive)
REMARK    1  A    between atoms: C5_5  and  N6_21 
REMARK    2  A    between atoms: C18_14  and  N17_19 
ROOT
HETATM    1  O1  MIQ B 502       7.391  15.140  25.467  1.00142.91    -0.171 OA
HETATM    2  C2  MIQ B 502       6.625  14.108  26.014  1.00141.17     0.195 A 
HETATM    3  C3  MIQ B 502       5.197  14.247  26.632  1.00141.71     0.035 A 
HETATM    4  C4  MIQ B 502       4.276  15.393  26.821  1.00142.86     0.046 A 
HETATM    5  C5  MIQ B 502       3.009  15.201  27.429  1.00139.53     0.031 A 
HETATM    6  C12 MIQ B 502       2.613  13.871  27.869  1.00139.38     0.030 A 
HETATM    7  C13 MIQ B 502       3.495  12.772  27.687  1.00141.18     0.019 A 
HETATM    8  C14 MIQ B 502       4.822  12.979  27.045  1.00138.77     0.033 A 
HETATM    9  C15 MIQ B 502       6.024  12.047  26.682  1.00142.10     0.195 A 
HETATM   10  N17 MIQ B 502       6.933  12.827  26.119  1.00139.42    -0.288 N 
HETATM   11  O16 MIQ B 502       6.116  10.673  26.911  1.00148.93    -0.171 OA
ENDROOT
BRANCH  10  12
HETATM   12  C18 MIQ B 502       8.205  12.299  25.662  1.00139.82     0.187 C 
HETATM   13  C19 MIQ B 502       9.316  13.157  26.280  1.00140.06     0.247 C 
HETATM   14  O25 MIQ B 502       9.313  13.354  27.443  1.00143.95    -0.271 OA
HETATM   15  N20 MIQ B 502      10.376  13.730  25.475  1.00140.02    -0.296 N 
HETATM   16  H13 MIQ B 502      11.091  14.294  25.889  1.00142.77     0.171 HD
HETATM   17  C21 MIQ B 502      10.352  13.485  24.056  1.00142.22     0.224 C 
HETATM   18  C22 MIQ B 502       8.987  13.374  23.406  1.00139.52     0.106 C 
HETATM   19  O24 MIQ B 502      11.350  13.370  23.432  1.00146.13    -0.273 OA
HETATM   20  C23 MIQ B 502       8.250  12.265  24.136  1.00139.15     0.045 C 
ENDBRANCH  10  12
BRANCH   5  21
HETATM   21  N6  MIQ B 502       2.123  16.335  27.622  1.00140.95    -0.377 N 
HETATM   22  C7  MIQ B 502       2.421  17.575  26.927  1.00142.12     0.149 C 
HETATM   23  C8  MIQ B 502       1.868  18.787  27.664  1.00144.10     0.187 C 
HETATM   24  O9  MIQ B 502       0.536  18.626  28.053  1.00148.65    -0.388 OA
HETATM   25  C10 MIQ B 502      -0.083  17.377  27.955  1.00147.44     0.187 C 
HETATM   26  C11 MIQ B 502       0.772  16.124  28.111  1.00144.08     0.149 C 
ENDBRANCH   5  21
TORSDOF 2
ENDMDL
MODEL 7
REMARK VINA RESULT:      -6.0      1.911      8.183
REMARK  2 active torsions:
REMARK  status: ('A' for Active; 'I' for Inactive)
REMARK    1  A    between atoms: C5_5  and  N6_21 
REMARK    2  A    between atoms: C18_14  and  N17_19 
ROOT
HETATM    1  O1  MIQ B 502      20.529   7.416   6.657  1.00142.91    -0.171 OA
HETATM    2  C2  MIQ B 502      20.890   6.530   7.675  1.00141.17     0.195 A 
HETATM    3  C3  MIQ B 502      20.446   6.614   9.170  1.00141.71     0.035 A 
HETATM    4  C4  MIQ B 502      19.585   7.554   9.927  1.00142.86     0.046 A 
HETATM    5  C5  MIQ B 502      19.361   7.363  11.314  1.00139.53     0.031 A 
HETATM    6  C12 MIQ B 502      19.980   6.237  11.997  1.00139.38     0.030 A 
HETATM    7  C13 MIQ B 502      20.804   5.334  11.272  1.00141.18     0.019 A 
HETATM    8  C14 MIQ B 502      21.034   5.538   9.816  1.00138.77     0.033 A 
HETATM    9  C15 MIQ B 502      21.847   4.782   8.715  1.00142.10     0.195 A 
HETATM   10  N17 MIQ B 502      21.659   5.458   7.593  1.00139.42    -0.288 N 
HETATM   11  O16 MIQ B 502      22.616   3.630   8.887  1.00148.93    -0.171 OA
ENDROOT
BRANCH  10  12
HETATM   12  C18 MIQ B 502      22.284   5.050   6.349  1.00139.82     0.187 C 
HETATM   13  C19 MIQ B 502      23.012   6.269   5.770  1.00140.06     0.247 C 
HETATM   14  O25 MIQ B 502      23.754   6.877   6.456  1.00143.95    -0.271 OA
HETATM   15  N20 MIQ B 502      22.820   6.693   4.398  1.00140.02    -0.296 N 
HETATM   16  H13 MIQ B 502      23.296   7.495   4.034  1.00142.77     0.171 HD
HETATM   17  C21 MIQ B 502      21.901   5.941   3.582  1.00142.22     0.224 C 
HETATM   18  C22 MIQ B 502      20.699   5.342   4.286  1.00139.52     0.106 C 
HETATM   19  O24 MIQ B 502      22.081   5.795   2.424  1.00146.13    -0.273 OA
HETATM   20  C23 MIQ B 502      21.243   4.464   5.398  1.00139.15     0.045 C 
ENDBRANCH  10  12
BRANCH   5  21
HETATM   21  N6  MIQ B 502      18.528   8.300  12.045  1.00140.95    -0.377 N 
HETATM   22  C7  MIQ B 502      17.712   9.238  11.293  1.00142.12     0.149 C 
HETATM   23  C8  MIQ B 502      17.427  10.507  12.086  1.00144.10     0.187 C 
HETATM   24  O9  MIQ B 502      16.993  10.249  13.387  1.00148.65    -0.388 OA
HETATM   25  C10 MIQ B 502      17.063   8.956  13.913  1.00147.44     0.187 C 
HETATM   26  C11 MIQ B 502      18.173   8.030  13.427  1.00144.08     0.149 C 
ENDBRANCH   5  21
TORSDOF 2
ENDMDL
MODEL 8
REMARK VINA RESULT:      -5.9      2.262      8.295
REMARK  2 active torsions:
REMARK  status: ('A' for Active; 'I' for Inactive)
REMARK    1  A    between atoms: C5_5  and  N6_21 
REMARK    2  A    between atoms: C18_14  and  N17_19 
ROOT
HETATM    1  O1  MIQ B 502      22.300   9.579  10.952  1.00142.91    -0.171 OA
HETATM    2  C2  MIQ B 502      20.982   9.139  10.808  1.00141.17     0.195 A 
HETATM    3  C3  MIQ B 502      19.778   9.516  11.729  1.00141.71     0.035 A 
HETATM    4  C4  MIQ B 502      19.643  10.374  12.930  1.00142.86     0.046 A 
HETATM    5  C5  MIQ B 502      18.384  10.525  13.564  1.00139.53     0.031 A 
HETATM    6  C12 MIQ B 502      17.218   9.834  13.032  1.00139.38     0.030 A 
HETATM    7  C13 MIQ B 502      17.347   9.013  11.879  1.00141.18     0.019 A 
HETATM    8  C14 MIQ B 502      18.671   8.859  11.216  1.00138.77     0.033 A 
HETATM    9  C15 MIQ B 502      19.191   8.071   9.969  1.00142.10     0.195 A 
HETATM   10  N17 MIQ B 502      20.484   8.336   9.883  1.00139.42    -0.288 N 
HETATM   11  O16 MIQ B 502      18.439   7.253   9.124  1.00148.93    -0.171 OA
ENDROOT
BRANCH  10  12
HETATM   12  C18 MIQ B 502      21.308   7.756   8.840  1.00139.82     0.187 C 
HETATM   13  C19 MIQ B 502      20.589   7.970   7.502  1.00140.06     0.247 C 
HETATM   14  O25 MIQ B 502      20.214   9.051   7.216  1.00143.95    -0.271 OA
HETATM   15  N20 MIQ B 502      20.361   6.881   6.575  1.00140.02    -0.296 N 
HETATM   16  H13 MIQ B 502      19.884   7.032   5.707  1.00142.77     0.171 HD
HETATM   17  C21 MIQ B 502      20.819   5.568   6.950  1.00142.22     0.224 C 
HETATM   18  C22 MIQ B 502      20.770   5.226   8.427  1.00139.52     0.106 C 
HETATM   19  O24 MIQ B 502      21.217   4.799   6.146  1.00146.13    -0.273 OA
HETATM   20  C23 MIQ B 502      21.590   6.285   9.142  1.00139.15     0.045 C 
ENDBRANCH  10  12
BRANCH   5  21
HETATM   21  N6  MIQ B 502      18.269  11.357  14.749  1.00140.95    -0.377 N 
HETATM   22  C7  MIQ B 502      18.771  10.841  16.010  1.00142.12     0.149 C 
HETATM   23  C8  MIQ B 502      18.051  11.456  17.203  1.00144.10     0.187 C 
HETATM   24  O9  MIQ B 502      17.955  12.847  17.123  1.00148.65    -0.388 OA
HETATM   25  C10 MIQ B 502      18.292  13.512  15.941  1.00147.44     0.187 C 
HETATM   26  C11 MIQ B 502      18.084  12.791  14.613  1.00144.08     0.149 C 
ENDBRANCH   5  21
TORSDOF 2
ENDMDL
MODEL 9
REMARK VINA RESULT:      -5.9     25.773     27.483
REMARK  2 active torsions:
REMARK  status: ('A' for Active; 'I' for Inactive)
REMARK    1  A    between atoms: C5_5  and  N6_21 
REMARK    2  A    between atoms: C18_14  and  N17_19 
ROOT
HETATM    1  O1  MIQ B 502      -1.677  22.228  10.517  1.00142.91    -0.171 OA
HETATM    2  C2  MIQ B 502      -3.045  22.394  10.742  1.00141.17     0.195 A 
HETATM    3  C3  MIQ B 502      -4.146  21.298  10.579  1.00141.71     0.035 A 
HETATM    4  C4  MIQ B 502      -4.112  19.871  10.179  1.00142.86     0.046 A 
HETATM    5  C5  MIQ B 502      -5.309  19.113  10.125  1.00139.53     0.031 A 
HETATM    6  C12 MIQ B 502      -6.578  19.741  10.464  1.00139.38     0.030 A 
HETATM    7  C13 MIQ B 502      -6.611  21.109  10.849  1.00141.18     0.019 A 
HETATM    8  C14 MIQ B 502      -5.351  21.899  10.906  1.00138.77     0.033 A 
HETATM    9  C15 MIQ B 502      -4.996  23.376  11.275  1.00142.10     0.195 A 
HETATM   10  N17 MIQ B 502      -3.684  23.483  11.135  1.00139.42    -0.288 N 
HETATM   11  O16 MIQ B 502      -5.886  24.377  11.668  1.00148.93    -0.171 OA
ENDROOT
BRANCH  10  12
HETATM   12  C18 MIQ B 502      -2.996  24.736  11.380  1.00139.82     0.187 C 
HETATM   13  C19 MIQ B 502      -2.178  25.074  10.127  1.00140.06     0.247 C 
HETATM   14  O25 MIQ B 502      -2.708  25.062   9.074  1.00143.95    -0.271 OA
HETATM   15  N20 MIQ B 502      -0.772  25.414  10.202  1.00140.02    -0.296 N 
HETATM   16  H13 MIQ B 502      -0.248  25.626   9.376  1.00142.77     0.171 HD
HETATM   17  C21 MIQ B 502      -0.145  25.412  11.498  1.00142.22     0.224 C 
HETATM   18  C22 MIQ B 502      -0.653  24.391  12.499  1.00139.52     0.106 C 
HETATM   19  O24 MIQ B 502       0.718  26.172  11.768  1.00146.13    -0.273 OA
HETATM   20  C23 MIQ B 502      -2.144  24.636  12.645  1.00139.15     0.045 C 
ENDBRANCH  10  12
BRANCH   5  21
HETATM   21  N6  MIQ B 502      -5.263  17.721   9.717  1.00140.95    -0.377 N 
HETATM   22  C7  MIQ B 502      -4.003  17.179   9.237  1.00142.12     0.149 C 
HETATM   23  C8  MIQ B 502      -4.214  16.010   8.283  1.00144.10     0.187 C 
HETATM   24  O9  MIQ B 502      -5.122  15.068   8.771  1.00148.65    -0.388 OA
HETATM   25  C10 MIQ B 502      -5.892  15.347   9.903  1.00147.44     0.187 C 
HETATM   26  C11 MIQ B 502      -6.281  16.795  10.182  1.00144.08     0.149 C 
ENDBRANCH   5  21
TORSDOF 2
ENDMDL
