MODEL 1
REMARK VINA RESULT:      -6.3      0.000      0.000
REMARK  2 active torsions:
REMARK  status: ('A' for Active; 'I' for Inactive)
REMARK    1  A    between atoms: C5_5  and  N6_21 
REMARK    2  A    between atoms: C18_14  and  N17_19 
ROOT
HETATM    1  O1  MIQ B 502     -11.535  -8.410  17.344  1.00142.91    -0.171 OA
HETATM    2  C2  MIQ B 502     -10.774  -7.685  16.425  1.00141.17     0.195 A 
HETATM    3  C3  MIQ B 502     -11.173  -6.327  15.764  1.00141.71     0.035 A 
HETATM    4  C4  MIQ B 502     -12.360  -5.447  15.881  1.00142.86     0.046 A 
HETATM    5  C5  MIQ B 502     -12.435  -4.243  15.136  1.00139.53     0.031 A 
HETATM    6  C12 MIQ B 502     -11.340  -3.870  14.252  1.00139.38     0.030 A 
HETATM    7  C13 MIQ B 502     -10.202  -4.713  14.141  1.00141.18     0.019 A 
HETATM    8  C14 MIQ B 502     -10.126  -5.974  14.927  1.00138.77     0.033 A 
HETATM    9  C15 MIQ B 502      -9.072  -7.120  15.069  1.00142.10     0.195 A 
HETATM   10  N17 MIQ B 502      -9.583  -7.982  15.933  1.00139.42    -0.288 N 
HETATM   11  O16 MIQ B 502      -7.844  -7.212  14.412  1.00148.93    -0.171 OA
ENDROOT
BRANCH  10  12
HETATM   12  C18 MIQ B 502      -8.876  -9.195  16.301  1.00139.82     0.187 C 
HETATM   13  C19 MIQ B 502      -7.435  -8.808  16.653  1.00140.06     0.247 C 
HETATM   14  O25 MIQ B 502      -7.244  -7.937  17.425  1.00143.95    -0.271 OA
HETATM   15  N20 MIQ B 502      -6.297  -9.488  16.068  1.00140.02    -0.296 N 
HETATM   16  H13 MIQ B 502      -5.361  -9.221  16.301  1.00142.77     0.171 HD
HETATM   17  C21 MIQ B 502      -6.555 -10.541  15.120  1.00142.22     0.224 C 
HETATM   18  C22 MIQ B 502      -7.779 -10.380  14.240  1.00139.52     0.106 C 
HETATM   19  O24 MIQ B 502      -5.849 -11.485  15.038  1.00146.13    -0.273 OA
HETATM   20  C23 MIQ B 502      -8.965 -10.223  15.174  1.00139.15     0.045 C 
ENDBRANCH  10  12
BRANCH   5  21
HETATM   21  N6  MIQ B 502     -13.610  -3.398  15.249  1.00140.95    -0.377 N 
HETATM   22  C7  MIQ B 502     -13.519  -2.018  14.805  1.00142.12     0.149 C 
HETATM   23  C8  MIQ B 502     -14.511  -1.120  15.532  1.00144.10     0.187 C 
HETATM   24  O9  MIQ B 502     -15.801  -1.651  15.566  1.00148.65    -0.388 OA
HETATM   25  C10 MIQ B 502     -16.035  -2.970  15.167  1.00147.44     0.187 C 
HETATM   26  C11 MIQ B 502     -14.927  -3.999  15.368  1.00144.08     0.149 C 
ENDBRANCH   5  21
TORSDOF 2
ENDMDL
MODEL 2
REMARK VINA RESULT:      -5.8      1.987      8.617
REMARK  2 active torsions:
REMARK  status: ('A' for Active; 'I' for Inactive)
REMARK    1  A    between atoms: C5_5  and  N6_21 
REMARK    2  A    between atoms: C18_14  and  N17_19 
ROOT
HETATM    1  O1  MIQ B 502     -11.508  -3.342  13.354  1.00142.91    -0.171 OA
HETATM    2  C2  MIQ B 502     -11.890  -3.823  14.608  1.00141.17     0.195 A 
HETATM    3  C3  MIQ B 502     -11.350  -5.112  15.305  1.00141.71     0.035 A 
HETATM    4  C4  MIQ B 502     -10.358  -6.142  14.915  1.00142.86     0.046 A 
HETATM    5  C5  MIQ B 502     -10.069  -7.225  15.783  1.00139.53     0.031 A 
HETATM    6  C12 MIQ B 502     -10.752  -7.324  17.065  1.00139.38     0.030 A 
HETATM    7  C13 MIQ B 502     -11.702  -6.337  17.440  1.00141.18     0.019 A 
HETATM    8  C14 MIQ B 502     -11.999  -5.201  16.525  1.00138.77     0.033 A 
HETATM    9  C15 MIQ B 502     -12.947  -3.959  16.587  1.00142.10     0.195 A 
HETATM   10  N17 MIQ B 502     -12.763  -3.303  15.453  1.00139.42    -0.288 N 
HETATM   11  O16 MIQ B 502     -13.813  -3.619  17.628  1.00148.93    -0.171 OA
ENDROOT
BRANCH  10  12
HETATM   12  C18 MIQ B 502     -13.500  -2.089  15.153  1.00139.82     0.187 C 
HETATM   13  C19 MIQ B 502     -13.350  -1.142  16.350  1.00140.06     0.247 C 
HETATM   14  O25 MIQ B 502     -12.272  -0.911  16.770  1.00143.95    -0.271 OA
HETATM   15  N20 MIQ B 502     -14.496  -0.518  16.978  1.00140.02    -0.296 N 
HETATM   16  H13 MIQ B 502     -14.385   0.093  17.763  1.00142.77     0.171 HD
HETATM   17  C21 MIQ B 502     -15.802  -0.825  16.454  1.00142.22     0.224 C 
HETATM   18  C22 MIQ B 502     -16.005  -2.223  15.904  1.00139.52     0.106 C 
HETATM   19  O24 MIQ B 502     -16.670  -0.022  16.450  1.00146.13    -0.273 OA
HETATM   20  C23 MIQ B 502     -14.955  -2.418  14.825  1.00139.15     0.045 C 
ENDBRANCH  10  12
BRANCH   5  21
HETATM   21  N6  MIQ B 502      -9.106  -8.234  15.382  1.00140.95    -0.377 N 
HETATM   22  C7  MIQ B 502      -7.724  -7.834  15.180  1.00142.12     0.149 C 
HETATM   23  C8  MIQ B 502      -7.007  -8.746  14.192  1.00144.10     0.187 C 
HETATM   24  O9  MIQ B 502      -7.203 -10.101  14.463  1.00148.65    -0.388 OA
HETATM   25  C10 MIQ B 502      -8.153 -10.505  15.404  1.00147.44     0.187 C 
HETATM   26  C11 MIQ B 502      -9.393  -9.640  15.607  1.00144.08     0.149 C 
ENDBRANCH   5  21
TORSDOF 2
ENDMDL
MODEL 3
REMARK VINA RESULT:      -5.8     24.636     25.836
REMARK  2 active torsions:
REMARK  status: ('A' for Active; 'I' for Inactive)
REMARK    1  A    between atoms: C5_5  and  N6_21 
REMARK    2  A    between atoms: C18_14  and  N17_19 
ROOT
HETATM    1  O1  MIQ B 502     -18.248 -12.687  -7.395  1.00142.91    -0.171 OA
HETATM    2  C2  MIQ B 502     -18.622 -11.373  -7.685  1.00141.17     0.195 A 
HETATM    3  C3  MIQ B 502     -17.711 -10.274  -8.320  1.00141.71     0.035 A 
HETATM    4  C4  MIQ B 502     -16.302 -10.259  -8.780  1.00142.86     0.046 A 
HETATM    5  C5  MIQ B 502     -15.740  -9.079  -9.329  1.00139.53     0.031 A 
HETATM    6  C12 MIQ B 502     -16.552  -7.876  -9.442  1.00139.38     0.030 A 
HETATM    7  C13 MIQ B 502     -17.904  -7.891  -9.003  1.00141.18     0.019 A 
HETATM    8  C14 MIQ B 502     -18.489  -9.133  -8.429  1.00138.77     0.033 A 
HETATM    9  C15 MIQ B 502     -19.891  -9.526  -7.859  1.00142.10     0.195 A 
HETATM   10  N17 MIQ B 502     -19.795 -10.794  -7.495  1.00139.42    -0.288 N 
HETATM   11  O16 MIQ B 502     -21.012  -8.700  -7.755  1.00148.93    -0.171 OA
ENDROOT
BRANCH  10  12
HETATM   12  C18 MIQ B 502     -20.916 -11.498  -6.901  1.00139.82     0.187 C 
HETATM   13  C19 MIQ B 502     -20.444 -12.086  -5.565  1.00140.06     0.247 C 
HETATM   14  O25 MIQ B 502     -19.902 -11.384  -4.787  1.00143.95    -0.271 OA
HETATM   15  N20 MIQ B 502     -20.650 -13.480  -5.228  1.00140.02    -0.296 N 
HETATM   16  H13 MIQ B 502     -20.331 -13.852  -4.356  1.00142.77     0.171 HD
HETATM   17  C21 MIQ B 502     -21.305 -14.318  -6.199  1.00142.22     0.224 C 
HETATM   18  C22 MIQ B 502     -21.044 -14.002  -7.659  1.00139.52     0.106 C 
HETATM   19  O24 MIQ B 502     -22.013 -15.205  -5.871  1.00146.13    -0.273 OA
HETATM   20  C23 MIQ B 502     -21.452 -12.554  -7.866  1.00139.15     0.045 C 
ENDBRANCH  10  12
BRANCH   5  21
HETATM   21  N6  MIQ B 502     -14.354  -9.074  -9.762  1.00140.95    -0.377 N 
HETATM   22  C7  MIQ B 502     -13.526  -7.929  -9.427  1.00142.12     0.149 C 
HETATM   23  C8  MIQ B 502     -12.389  -7.738 -10.423  1.00144.10     0.187 C 
HETATM   24  O9  MIQ B 502     -11.694  -8.920 -10.688  1.00148.65    -0.388 OA
HETATM   25  C10 MIQ B 502     -12.189 -10.147 -10.238  1.00147.44     0.187 C 
HETATM   26  C11 MIQ B 502     -13.698 -10.323 -10.110  1.00144.08     0.149 C 
ENDBRANCH   5  21
TORSDOF 2
ENDMDL
MODEL 4
REMARK VINA RESULT:      -5.7      1.989      8.409
REMARK  2 active torsions:
REMARK  status: ('A' for Active; 'I' for Inactive)
REMARK    1  A    between atoms: C5_5  and  N6_21 
REMARK    2  A    between atoms: C18_14  and  N17_19 
ROOT
HETATM    1  O1  MIQ B 502     -11.869  -3.751  14.520  1.00142.91    -0.171 OA
HETATM    2  C2  MIQ B 502     -12.138  -4.486  15.677  1.00141.17     0.195 A 
HETATM    3  C3  MIQ B 502     -11.472  -5.839  16.085  1.00141.71     0.035 A 
HETATM    4  C4  MIQ B 502     -10.445  -6.700  15.453  1.00142.86     0.046 A 
HETATM    5  C5  MIQ B 502     -10.032  -7.902  16.082  1.00139.53     0.031 A 
HETATM    6  C12 MIQ B 502     -10.621  -8.291  17.355  1.00139.38     0.030 A 
HETATM    7  C13 MIQ B 502     -11.606  -7.465  17.961  1.00141.18     0.019 A 
HETATM    8  C14 MIQ B 502     -12.034  -6.203  17.298  1.00138.77     0.033 A 
HETATM    9  C15 MIQ B 502     -13.053  -5.069  17.645  1.00142.10     0.195 A 
HETATM   10  N17 MIQ B 502     -12.985  -4.199  16.651  1.00139.42    -0.288 N 
HETATM   11  O16 MIQ B 502     -13.868  -4.995  18.776  1.00148.93    -0.171 OA
ENDROOT
BRANCH  10  12
HETATM   12  C18 MIQ B 502     -13.815  -3.009  16.627  1.00139.82     0.187 C 
HETATM   13  C19 MIQ B 502     -14.571  -2.993  15.293  1.00140.06     0.247 C 
HETATM   14  O25 MIQ B 502     -15.168  -3.953  14.957  1.00143.95    -0.271 OA
HETATM   15  N20 MIQ B 502     -14.577  -1.827  14.433  1.00140.02    -0.296 N 
HETATM   16  H13 MIQ B 502     -15.069  -1.832  13.561  1.00142.77     0.171 HD
HETATM   17  C21 MIQ B 502     -13.832  -0.671  14.859  1.00142.22     0.224 C 
HETATM   18  C22 MIQ B 502     -12.561  -0.931  15.644  1.00139.52     0.106 C 
HETATM   19  O24 MIQ B 502     -14.198   0.425  14.611  1.00146.13    -0.273 OA
HETATM   20  C23 MIQ B 502     -12.962  -1.762  16.850  1.00139.15     0.045 C 
ENDBRANCH  10  12
BRANCH   5  21
HETATM   21  N6  MIQ B 502      -9.035  -8.743  15.445  1.00140.95    -0.377 N 
HETATM   22  C7  MIQ B 502      -7.692  -8.218  15.269  1.00142.12     0.149 C 
HETATM   23  C8  MIQ B 502      -6.979  -8.864  14.089  1.00144.10     0.187 C 
HETATM   24  O9  MIQ B 502      -7.080 -10.257  14.089  1.00148.65    -0.388 OA
HETATM   25  C10 MIQ B 502      -7.951 -10.903  14.969  1.00147.44     0.187 C 
HETATM   26  C11 MIQ B 502      -9.226 -10.182  15.394  1.00144.08     0.149 C 
ENDBRANCH   5  21
TORSDOF 2
ENDMDL
MODEL 5
REMARK VINA RESULT:      -5.7      6.590     10.355
REMARK  2 active torsions:
REMARK  status: ('A' for Active; 'I' for Inactive)
REMARK    1  A    between atoms: C5_5  and  N6_21 
REMARK    2  A    between atoms: C18_14  and  N17_19 
ROOT
HETATM    1  O1  MIQ B 502     -17.552 -10.399  14.089  1.00142.91    -0.171 OA
HETATM    2  C2  MIQ B 502     -16.158 -10.305  14.088  1.00141.17     0.195 A 
HETATM    3  C3  MIQ B 502     -15.164 -11.343  14.701  1.00141.71     0.035 A 
HETATM    4  C4  MIQ B 502     -15.344 -12.633  15.407  1.00142.86     0.046 A 
HETATM    5  C5  MIQ B 502     -14.218 -13.368  15.855  1.00139.53     0.031 A 
HETATM    6  C12 MIQ B 502     -12.878 -12.852  15.620  1.00139.38     0.030 A 
HETATM    7  C13 MIQ B 502     -12.704 -11.615  14.942  1.00141.18     0.019 A 
HETATM    8  C14 MIQ B 502     -13.890 -10.849  14.471  1.00138.77     0.033 A 
HETATM    9  C15 MIQ B 502     -14.095  -9.498  13.711  1.00142.10     0.195 A 
HETATM   10  N17 MIQ B 502     -15.402  -9.348  13.579  1.00139.42    -0.288 N 
HETATM   11  O16 MIQ B 502     -13.096  -8.628  13.268  1.00148.93    -0.171 OA
ENDROOT
BRANCH  10  12
HETATM   12  C18 MIQ B 502     -15.969  -8.182  12.927  1.00139.82     0.187 C 
HETATM   13  C19 MIQ B 502     -16.969  -7.543  13.898  1.00140.06     0.247 C 
HETATM   14  O25 MIQ B 502     -16.630  -7.308  15.003  1.00143.95    -0.271 OA
HETATM   15  N20 MIQ B 502     -18.321  -7.213  13.494  1.00140.02    -0.296 N 
HETATM   16  H13 MIQ B 502     -18.966  -6.802  14.139  1.00142.77     0.171 HD
HETATM   17  C21 MIQ B 502     -18.715  -7.519  12.143  1.00142.22     0.224 C 
HETATM   18  C22 MIQ B 502     -18.100  -8.756  11.517  1.00139.52     0.106 C 
HETATM   19  O24 MIQ B 502     -19.476  -6.835  11.552  1.00146.13    -0.273 OA
HETATM   20  C23 MIQ B 502     -16.595  -8.572  11.589  1.00139.15     0.045 C 
ENDBRANCH  10  12
BRANCH   5  21
HETATM   21  N6  MIQ B 502     -14.410 -14.624  16.559  1.00140.95    -0.377 N 
HETATM   22  C7  MIQ B 502     -15.569 -15.435  16.227  1.00142.12     0.149 C 
HETATM   23  C8  MIQ B 502     -16.000 -16.314  17.394  1.00144.10     0.187 C 
HETATM   24  O9  MIQ B 502     -14.935 -17.004  17.978  1.00148.65    -0.388 OA
HETATM   25  C10 MIQ B 502     -13.617 -16.693  17.633  1.00147.44     0.187 C 
HETATM   26  C11 MIQ B 502     -13.288 -15.261  17.225  1.00144.08     0.149 C 
ENDBRANCH   5  21
TORSDOF 2
ENDMDL
MODEL 6
REMARK VINA RESULT:      -5.7      1.417      2.619
REMARK  2 active torsions:
REMARK  status: ('A' for Active; 'I' for Inactive)
REMARK    1  A    between atoms: C5_5  and  N6_21 
REMARK    2  A    between atoms: C18_14  and  N17_19 
ROOT
HETATM    1  O1  MIQ B 502      -7.673  -6.214  14.037  1.00142.91    -0.171 OA
HETATM    2  C2  MIQ B 502      -8.581  -6.899  14.847  1.00141.17     0.195 A 
HETATM    3  C3  MIQ B 502     -10.012  -6.414  15.244  1.00141.71     0.035 A 
HETATM    4  C4  MIQ B 502     -10.800  -5.199  14.927  1.00142.86     0.046 A 
HETATM    5  C5  MIQ B 502     -12.109  -5.038  15.449  1.00139.53     0.031 A 
HETATM    6  C12 MIQ B 502     -12.680  -6.072  16.299  1.00139.38     0.030 A 
HETATM    7  C13 MIQ B 502     -11.925  -7.237  16.602  1.00141.18     0.019 A 
HETATM    8  C14 MIQ B 502     -10.553  -7.402  16.050  1.00138.77     0.033 A 
HETATM    9  C15 MIQ B 502      -9.452  -8.508  16.153  1.00142.10     0.195 A 
HETATM   10  N17 MIQ B 502      -8.432  -8.076  15.431  1.00139.42    -0.288 N 
HETATM   11  O16 MIQ B 502      -9.535  -9.705  16.866  1.00148.93    -0.171 OA
ENDROOT
BRANCH  10  12
HETATM   12  C18 MIQ B 502      -7.209  -8.848  15.309  1.00139.82     0.187 C 
HETATM   13  C19 MIQ B 502      -7.594 -10.269  14.881  1.00140.06     0.247 C 
HETATM   14  O25 MIQ B 502      -8.304 -10.418  13.950  1.00143.95    -0.271 OA
HETATM   15  N20 MIQ B 502      -7.107 -11.438  15.585  1.00140.02    -0.296 N 
HETATM   16  H13 MIQ B 502      -7.371 -12.360  15.300  1.00142.77     0.171 HD
HETATM   17  C21 MIQ B 502      -6.251 -11.230  16.725  1.00142.22     0.224 C 
HETATM   18  C22 MIQ B 502      -6.517  -9.993  17.560  1.00139.52     0.106 C 
HETATM   19  O24 MIQ B 502      -5.381 -11.985  16.990  1.00146.13    -0.273 OA
HETATM   20  C23 MIQ B 502      -6.422  -8.807  16.618  1.00139.15     0.045 C 
ENDBRANCH  10  12
BRANCH   5  21
HETATM   21  N6  MIQ B 502     -12.864  -3.836  15.143  1.00140.95    -0.377 N 
HETATM   22  C7  MIQ B 502     -12.358  -2.941  14.116  1.00142.12     0.149 C 
HETATM   23  C8  MIQ B 502     -12.822  -1.507  14.334  1.00144.10     0.187 C 
HETATM   24  O9  MIQ B 502     -14.191  -1.411  14.588  1.00148.65    -0.388 OA
HETATM   25  C10 MIQ B 502     -14.947  -2.559  14.836  1.00147.44     0.187 C 
HETATM   26  C11 MIQ B 502     -14.267  -3.750  15.505  1.00144.08     0.149 C 
ENDBRANCH   5  21
TORSDOF 2
ENDMDL
MODEL 7
REMARK VINA RESULT:      -5.6      1.338      2.484
REMARK  2 active torsions:
REMARK  status: ('A' for Active; 'I' for Inactive)
REMARK    1  A    between atoms: C5_5  and  N6_21 
REMARK    2  A    between atoms: C18_14  and  N17_19 
ROOT
HETATM    1  O1  MIQ B 502      -8.720  -7.896  14.737  1.00142.91    -0.171 OA
HETATM    2  C2  MIQ B 502      -9.435  -7.851  15.936  1.00141.17     0.195 A 
HETATM    3  C3  MIQ B 502     -10.549  -6.822  16.308  1.00141.71     0.035 A 
HETATM    4  C4  MIQ B 502     -11.158  -5.676  15.592  1.00142.86     0.046 A 
HETATM    5  C5  MIQ B 502     -12.179  -4.908  16.206  1.00139.53     0.031 A 
HETATM    6  C12 MIQ B 502     -12.632  -5.249  17.547  1.00139.38     0.030 A 
HETATM    7  C13 MIQ B 502     -12.050  -6.348  18.234  1.00141.18     0.019 A 
HETATM    8  C14 MIQ B 502     -10.979  -7.152  17.583  1.00138.77     0.033 A 
HETATM    9  C15 MIQ B 502     -10.127  -8.394  18.005  1.00142.10     0.195 A 
HETATM   10  N17 MIQ B 502      -9.328  -8.652  16.983  1.00139.42    -0.288 N 
HETATM   11  O16 MIQ B 502     -10.199  -9.084  19.216  1.00148.93    -0.171 OA
ENDROOT
BRANCH  10  12
HETATM   12  C18 MIQ B 502      -8.372  -9.743  17.026  1.00139.82     0.187 C 
HETATM   13  C19 MIQ B 502      -7.014  -9.194  16.571  1.00140.06     0.247 C 
HETATM   14  O25 MIQ B 502      -6.589  -8.217  17.076  1.00143.95    -0.271 OA
HETATM   15  N20 MIQ B 502      -6.234  -9.846  15.539  1.00140.02    -0.296 N 
HETATM   16  H13 MIQ B 502      -5.352  -9.474  15.246  1.00142.77     0.171 HD
HETATM   17  C21 MIQ B 502      -6.779 -11.032  14.929  1.00142.22     0.224 C 
HETATM   18  C22 MIQ B 502      -8.287 -11.091  14.782  1.00139.52     0.106 C 
HETATM   19  O24 MIQ B 502      -6.083 -11.916  14.567  1.00146.13    -0.273 OA
HETATM   20  C23 MIQ B 502      -8.863 -10.913  16.175  1.00139.15     0.045 C 
ENDBRANCH  10  12
BRANCH   5  21
HETATM   21  N6  MIQ B 502     -12.756  -3.779  15.499  1.00140.95    -0.377 N 
HETATM   22  C7  MIQ B 502     -13.905  -3.108  16.083  1.00142.12     0.149 C 
HETATM   23  C8  MIQ B 502     -14.769  -2.435  15.024  1.00144.10     0.187 C 
HETATM   24  O9  MIQ B 502     -14.026  -1.672  14.121  1.00148.65    -0.388 OA
HETATM   25  C10 MIQ B 502     -12.631  -1.752  14.106  1.00147.44     0.187 C 
HETATM   26  C11 MIQ B 502     -11.972  -3.069  14.504  1.00144.08     0.149 C 
ENDBRANCH   5  21
TORSDOF 2
ENDMDL
MODEL 8
REMARK VINA RESULT:      -5.5      1.879      8.763
REMARK  2 active torsions:
REMARK  status: ('A' for Active; 'I' for Inactive)
REMARK    1  A    between atoms: C5_5  and  N6_21 
REMARK    2  A    between atoms: C18_14  and  N17_19 
ROOT
HETATM    1  O1  MIQ B 502     -14.210  -5.320  18.030  1.00142.91    -0.171 OA
HETATM    2  C2  MIQ B 502     -13.651  -4.613  16.963  1.00141.17     0.195 A 
HETATM    3  C3  MIQ B 502     -12.385  -5.025  16.147  1.00141.71     0.035 A 
HETATM    4  C4  MIQ B 502     -11.457  -6.178  16.219  1.00142.86     0.046 A 
HETATM    5  C5  MIQ B 502     -10.369  -6.280  15.316  1.00139.53     0.031 A 
HETATM    6  C12 MIQ B 502     -10.164  -5.246  14.312  1.00139.38     0.030 A 
HETATM    7  C13 MIQ B 502     -11.054  -4.141  14.241  1.00141.18     0.019 A 
HETATM    8  C14 MIQ B 502     -12.196  -4.041  15.191  1.00138.77     0.033 A 
HETATM    9  C15 MIQ B 502     -13.352  -3.012  15.415  1.00142.10     0.195 A 
HETATM   10  N17 MIQ B 502     -14.065  -3.478  16.427  1.00139.42    -0.288 N 
HETATM   11  O16 MIQ B 502     -13.580  -1.840  14.692  1.00148.93    -0.171 OA
ENDROOT
BRANCH  10  12
HETATM   12  C18 MIQ B 502     -15.224  -2.764  16.929  1.00139.82     0.187 C 
HETATM   13  C19 MIQ B 502     -16.139  -2.460  15.736  1.00140.06     0.247 C 
HETATM   14  O25 MIQ B 502     -16.443  -3.335  15.006  1.00143.95    -0.271 OA
HETATM   15  N20 MIQ B 502     -16.646  -1.127  15.484  1.00140.02    -0.296 N 
HETATM   16  H13 MIQ B 502     -17.237  -0.940  14.698  1.00142.77     0.171 HD
HETATM   17  C21 MIQ B 502     -16.253  -0.074  16.384  1.00142.22     0.224 C 
HETATM   18  C22 MIQ B 502     -14.862  -0.171  16.980  1.00139.52     0.106 C 
HETATM   19  O24 MIQ B 502     -16.982   0.819  16.647  1.00146.13    -0.273 OA
HETATM   20  C23 MIQ B 502     -14.790  -1.512  17.689  1.00139.15     0.045 C 
ENDBRANCH  10  12
BRANCH   5  21
HETATM   21  N6  MIQ B 502      -9.458  -7.407  15.408  1.00140.95    -0.377 N 
HETATM   22  C7  MIQ B 502      -8.066  -7.207  15.046  1.00142.12     0.149 C 
HETATM   23  C8  MIQ B 502      -7.410  -8.497  14.570  1.00144.10     0.187 C 
HETATM   24  O9  MIQ B 502      -7.656  -9.577  15.419  1.00148.65    -0.388 OA
HETATM   25  C10 MIQ B 502      -8.601  -9.471  16.444  1.00147.44     0.187 C 
HETATM   26  C11 MIQ B 502      -9.798  -8.549  16.239  1.00144.08     0.149 C 
ENDBRANCH   5  21
TORSDOF 2
ENDMDL
MODEL 9
REMARK VINA RESULT:      -5.5      1.967      8.438
REMARK  2 active torsions:
REMARK  status: ('A' for Active; 'I' for Inactive)
REMARK    1  A    between atoms: C5_5  and  N6_21 
REMARK    2  A    between atoms: C18_14  and  N17_19 
ROOT
HETATM    1  O1  MIQ B 502     -14.546  -4.945  16.943  1.00142.91    -0.171 OA
HETATM    2  C2  MIQ B 502     -13.723  -4.256  16.049  1.00141.17     0.195 A 
HETATM    3  C3  MIQ B 502     -12.347  -4.748  15.497  1.00141.71     0.035 A 
HETATM    4  C4  MIQ B 502     -11.543  -5.975  15.710  1.00142.86     0.046 A 
HETATM    5  C5  MIQ B 502     -10.299  -6.140  15.050  1.00139.53     0.031 A 
HETATM    6  C12 MIQ B 502      -9.810  -5.098  14.158  1.00139.38     0.030 A 
HETATM    7  C13 MIQ B 502     -10.581  -3.922  13.953  1.00141.18     0.019 A 
HETATM    8  C14 MIQ B 502     -11.887  -3.755  14.646  1.00138.77     0.033 A 
HETATM    9  C15 MIQ B 502     -12.985  -2.642  14.670  1.00142.10     0.195 A 
HETATM   10  N17 MIQ B 502     -13.928  -3.076  15.489  1.00139.42    -0.288 N 
HETATM   11  O16 MIQ B 502     -12.966  -1.435  13.969  1.00148.93    -0.171 OA
ENDROOT
BRANCH  10  12
HETATM   12  C18 MIQ B 502     -15.111  -2.285  15.770  1.00139.82     0.187 C 
HETATM   13  C19 MIQ B 502     -15.244  -2.165  17.293  1.00140.06     0.247 C 
HETATM   14  O25 MIQ B 502     -14.315  -1.807  17.925  1.00143.95    -0.271 OA
HETATM   15  N20 MIQ B 502     -16.482  -2.473  17.978  1.00140.02    -0.296 N 
HETATM   16  H13 MIQ B 502     -16.554  -2.398  18.974  1.00142.77     0.171 HD
HETATM   17  C21 MIQ B 502     -17.599  -2.918  17.185  1.00142.22     0.224 C 
HETATM   18  C22 MIQ B 502     -17.276  -3.746  15.957  1.00139.52     0.106 C 
HETATM   19  O24 MIQ B 502     -18.712  -2.645  17.477  1.00146.13    -0.273 OA
HETATM   20  C23 MIQ B 502     -16.338  -2.909  15.107  1.00139.15     0.045 C 
ENDBRANCH  10  12
BRANCH   5  21
HETATM   21  N6  MIQ B 502      -9.515  -7.340  15.279  1.00140.95    -0.377 N 
HETATM   22  C7  MIQ B 502      -8.066  -7.233  15.281  1.00142.12     0.149 C 
HETATM   23  C8  MIQ B 502      -7.399  -8.545  14.888  1.00144.10     0.187 C 
HETATM   24  O9  MIQ B 502      -7.917  -9.645  15.573  1.00148.65    -0.388 OA
HETATM   25  C10 MIQ B 502      -9.076  -9.518  16.343  1.00147.44     0.187 C 
HETATM   26  C11 MIQ B 502     -10.123  -8.493  15.920  1.00144.08     0.149 C 
ENDBRANCH   5  21
TORSDOF 2
ENDMDL
