MODEL 1
REMARK VINA RESULT:      -6.8      0.000      0.000
REMARK  2 active torsions:
REMARK  status: ('A' for Active; 'I' for Inactive)
REMARK    1  A    between atoms: C5_5  and  N6_21 
REMARK    2  A    between atoms: C18_14  and  N17_19 
ROOT
HETATM    1  O1  MIQ B 502     -16.308  12.414   2.930  1.00142.91    -0.171 OA
HETATM    2  C2  MIQ B 502     -16.657  13.002   4.148  1.00141.17     0.195 A 
HETATM    3  C3  MIQ B 502     -18.028  12.858   4.882  1.00141.71     0.035 A 
HETATM    4  C4  MIQ B 502     -19.280  12.127   4.570  1.00142.86     0.046 A 
HETATM    5  C5  MIQ B 502     -20.385  12.188   5.456  1.00139.53     0.031 A 
HETATM    6  C12 MIQ B 502     -20.289  12.972   6.679  1.00139.38     0.030 A 
HETATM    7  C13 MIQ B 502     -19.089  13.672   6.979  1.00141.18     0.019 A 
HETATM    8  C14 MIQ B 502     -17.931  13.603   6.046  1.00138.77     0.033 A 
HETATM    9  C15 MIQ B 502     -16.491  14.212   6.035  1.00142.10     0.195 A 
HETATM   10  N17 MIQ B 502     -15.921  13.780   4.922  1.00139.42    -0.288 N 
HETATM   11  O16 MIQ B 502     -15.928  15.044   7.004  1.00148.93    -0.171 OA
ENDROOT
BRANCH  10  12
HETATM   12  C18 MIQ B 502     -14.567  14.164   4.566  1.00139.82     0.187 C 
HETATM   13  C19 MIQ B 502     -14.623  14.873   3.207  1.00140.06     0.247 C 
HETATM   14  O25 MIQ B 502     -15.387  15.758   3.051  1.00143.95    -0.271 OA
HETATM   15  N20 MIQ B 502     -13.759  14.490   2.110  1.00140.02    -0.296 N 
HETATM   16  H13 MIQ B 502     -13.810  14.956   1.225  1.00142.77     0.171 HD
HETATM   17  C21 MIQ B 502     -12.842  13.399   2.322  1.00142.22     0.224 C 
HETATM   18  C22 MIQ B 502     -13.307  12.288   3.243  1.00139.52     0.106 C 
HETATM   19  O24 MIQ B 502     -11.779  13.377   1.807  1.00146.13    -0.273 OA
HETATM   20  C23 MIQ B 502     -13.650  12.942   4.569  1.00139.15     0.045 C 
ENDBRANCH  10  12
BRANCH   5  21
HETATM   21  N6  MIQ B 502     -21.609  11.480   5.131  1.00140.95    -0.377 N 
HETATM   22  C7  MIQ B 502     -22.808  12.254   4.856  1.00142.12     0.149 C 
HETATM   23  C8  MIQ B 502     -24.076  11.469   5.168  1.00144.10     0.187 C 
HETATM   24  O9  MIQ B 502     -24.062  10.180   4.633  1.00148.65    -0.388 OA
HETATM   25  C10 MIQ B 502     -22.889   9.652   4.087  1.00147.44     0.187 C 
HETATM   26  C11 MIQ B 502     -21.550  10.108   4.658  1.00144.08     0.149 C 
ENDBRANCH   5  21
TORSDOF 2
ENDMDL
MODEL 2
REMARK VINA RESULT:      -6.3      1.908      7.917
REMARK  2 active torsions:
REMARK  status: ('A' for Active; 'I' for Inactive)
REMARK    1  A    between atoms: C5_5  and  N6_21 
REMARK    2  A    between atoms: C18_14  and  N17_19 
ROOT
HETATM    1  O1  MIQ B 502     -19.684  10.937   4.040  1.00142.91    -0.171 OA
HETATM    2  C2  MIQ B 502     -19.532  12.201   4.615  1.00141.17     0.195 A 
HETATM    3  C3  MIQ B 502     -18.256  13.099   4.544  1.00141.71     0.035 A 
HETATM    4  C4  MIQ B 502     -16.927  12.932   3.911  1.00142.86     0.046 A 
HETATM    5  C5  MIQ B 502     -15.947  13.951   4.022  1.00139.53     0.031 A 
HETATM    6  C12 MIQ B 502     -16.251  15.168   4.761  1.00139.38     0.030 A 
HETATM    7  C13 MIQ B 502     -17.526  15.329   5.367  1.00141.18     0.019 A 
HETATM    8  C14 MIQ B 502     -18.551  14.257   5.246  1.00138.77     0.033 A 
HETATM    9  C15 MIQ B 502     -20.019  14.076   5.755  1.00142.10     0.195 A 
HETATM   10  N17 MIQ B 502     -20.413  12.892   5.318  1.00139.42    -0.288 N 
HETATM   11  O16 MIQ B 502     -20.756  14.984   6.517  1.00148.93    -0.171 OA
ENDROOT
BRANCH  10  12
HETATM   12  C18 MIQ B 502     -21.737  12.377   5.618  1.00139.82     0.187 C 
HETATM   13  C19 MIQ B 502     -21.573  10.948   6.150  1.00140.06     0.247 C 
HETATM   14  O25 MIQ B 502     -20.812  10.744   7.028  1.00143.95    -0.271 OA
HETATM   15  N20 MIQ B 502     -22.332   9.839   5.609  1.00140.02    -0.296 N 
HETATM   16  H13 MIQ B 502     -22.211   8.910   5.961  1.00142.77     0.171 HD
HETATM   17  C21 MIQ B 502     -23.247  10.111   4.531  1.00142.22     0.224 C 
HETATM   18  C22 MIQ B 502     -22.847  11.203   3.557  1.00139.52     0.106 C 
HETATM   19  O24 MIQ B 502     -24.261   9.515   4.415  1.00146.13    -0.273 OA
HETATM   20  C23 MIQ B 502     -22.631  12.459   4.382  1.00139.15     0.045 C 
ENDBRANCH  10  12
BRANCH   5  21
HETATM   21  N6  MIQ B 502     -14.644  13.768   3.409  1.00140.95    -0.377 N 
HETATM   22  C7  MIQ B 502     -14.112  12.421   3.297  1.00142.12     0.149 C 
HETATM   23  C8  MIQ B 502     -12.590  12.411   3.264  1.00144.10     0.187 C 
HETATM   24  O9  MIQ B 502     -12.060  13.338   2.365  1.00148.65    -0.388 OA
HETATM   25  C10 MIQ B 502     -12.883  14.298   1.771  1.00147.44     0.187 C 
HETATM   26  C11 MIQ B 502     -14.096  14.801   2.548  1.00144.08     0.149 C 
ENDBRANCH   5  21
TORSDOF 2
ENDMDL
MODEL 3
REMARK VINA RESULT:      -5.8      2.198      7.982
REMARK  2 active torsions:
REMARK  status: ('A' for Active; 'I' for Inactive)
REMARK    1  A    between atoms: C5_5  and  N6_21 
REMARK    2  A    between atoms: C18_14  and  N17_19 
ROOT
HETATM    1  O1  MIQ B 502     -20.386  11.128   4.356  1.00142.91    -0.171 OA
HETATM    2  C2  MIQ B 502     -20.147  12.476   4.633  1.00141.17     0.195 A 
HETATM    3  C3  MIQ B 502     -18.759  13.192   4.599  1.00141.71     0.035 A 
HETATM    4  C4  MIQ B 502     -17.384  12.735   4.290  1.00142.86     0.046 A 
HETATM    5  C5  MIQ B 502     -16.297  13.644   4.343  1.00139.53     0.031 A 
HETATM    6  C12 MIQ B 502     -16.536  15.035   4.702  1.00139.38     0.030 A 
HETATM    7  C13 MIQ B 502     -17.854  15.474   4.996  1.00141.18     0.019 A 
HETATM    8  C14 MIQ B 502     -18.992  14.515   4.937  1.00138.77     0.033 A 
HETATM    9  C15 MIQ B 502     -20.532  14.621   5.182  1.00142.10     0.195 A 
HETATM   10  N17 MIQ B 502     -21.020  13.409   4.971  1.00139.42    -0.288 N 
HETATM   11  O16 MIQ B 502     -21.243  15.764   5.553  1.00148.93    -0.171 OA
ENDROOT
BRANCH  10  12
HETATM   12  C18 MIQ B 502     -22.434  13.125   5.124  1.00139.82     0.187 C 
HETATM   13  C19 MIQ B 502     -22.567  11.868   5.993  1.00140.06     0.247 C 
HETATM   14  O25 MIQ B 502     -21.994  11.816   7.022  1.00143.95    -0.271 OA
HETATM   15  N20 MIQ B 502     -23.383  10.742   5.587  1.00140.02    -0.296 N 
HETATM   16  H13 MIQ B 502     -23.456   9.925   6.160  1.00142.77     0.171 HD
HETATM   17  C21 MIQ B 502     -24.065  10.825   4.321  1.00142.22     0.224 C 
HETATM   18  C22 MIQ B 502     -23.361  11.588   3.217  1.00139.52     0.106 C 
HETATM   19  O24 MIQ B 502     -25.124  10.325   4.156  1.00146.13    -0.273 OA
HETATM   20  C23 MIQ B 502     -23.099  12.983   3.756  1.00139.15     0.045 C 
ENDBRANCH  10  12
BRANCH   5  21
HETATM   21  N6  MIQ B 502     -14.953  13.179   4.053  1.00140.95    -0.377 N 
HETATM   22  C7  MIQ B 502     -14.186  13.866   3.028  1.00142.12     0.149 C 
HETATM   23  C8  MIQ B 502     -13.147  12.954   2.389  1.00144.10     0.187 C 
HETATM   24  O9  MIQ B 502     -12.391  12.250   3.328  1.00148.65    -0.388 OA
HETATM   25  C10 MIQ B 502     -12.759  12.249   4.676  1.00147.44     0.187 C 
HETATM   26  C11 MIQ B 502     -14.237  12.375   5.028  1.00144.08     0.149 C 
ENDBRANCH   5  21
TORSDOF 2
ENDMDL
MODEL 4
REMARK VINA RESULT:      -5.7     11.458     14.295
REMARK  2 active torsions:
REMARK  status: ('A' for Active; 'I' for Inactive)
REMARK    1  A    between atoms: C5_5  and  N6_21 
REMARK    2  A    between atoms: C18_14  and  N17_19 
ROOT
HETATM    1  O1  MIQ B 502     -21.385  22.315  -2.422  1.00142.91    -0.171 OA
HETATM    2  C2  MIQ B 502     -20.243  22.372  -3.224  1.00141.17     0.195 A 
HETATM    3  C3  MIQ B 502     -18.763  22.346  -2.725  1.00141.71     0.035 A 
HETATM    4  C4  MIQ B 502     -18.143  22.257  -1.382  1.00142.86     0.046 A 
HETATM    5  C5  MIQ B 502     -16.732  22.253  -1.243  1.00139.53     0.031 A 
HETATM    6  C12 MIQ B 502     -15.889  22.336  -2.428  1.00139.38     0.030 A 
HETATM    7  C13 MIQ B 502     -16.484  22.420  -3.715  1.00141.18     0.019 A 
HETATM    8  C14 MIQ B 502     -17.966  22.421  -3.855  1.00138.77     0.033 A 
HETATM    9  C15 MIQ B 502     -18.956  22.495  -5.063  1.00142.10     0.195 A 
HETATM   10  N17 MIQ B 502     -20.171  22.454  -4.542  1.00139.42    -0.288 N 
HETATM   11  O16 MIQ B 502     -18.620  22.587  -6.414  1.00148.93    -0.171 OA
ENDROOT
BRANCH  10  12
HETATM   12  C18 MIQ B 502     -21.356  22.518  -5.377  1.00139.82     0.187 C 
HETATM   13  C19 MIQ B 502     -21.225  21.438  -6.458  1.00140.06     0.247 C 
HETATM   14  O25 MIQ B 502     -20.971  20.331  -6.138  1.00143.95    -0.271 OA
HETATM   15  N20 MIQ B 502     -21.411  21.737  -7.863  1.00140.02    -0.296 N 
HETATM   16  H13 MIQ B 502     -21.316  21.024  -8.559  1.00142.77     0.171 HD
HETATM   17  C21 MIQ B 502     -21.710  23.097  -8.229  1.00142.22     0.224 C 
HETATM   18  C22 MIQ B 502     -21.085  24.185  -7.378  1.00139.52     0.106 C 
HETATM   19  O24 MIQ B 502     -22.413  23.350  -9.145  1.00146.13    -0.273 OA
HETATM   20  C23 MIQ B 502     -21.528  23.924  -5.950  1.00139.15     0.045 C 
ENDBRANCH  10  12
BRANCH   5  21
HETATM   21  N6  MIQ B 502     -16.137  22.181   0.079  1.00140.95    -0.377 N 
HETATM   22  C7  MIQ B 502     -14.750  22.580   0.240  1.00142.12     0.149 C 
HETATM   23  C8  MIQ B 502     -14.091  21.882   1.423  1.00144.10     0.187 C 
HETATM   24  O9  MIQ B 502     -14.865  21.934   2.584  1.00148.65    -0.388 OA
HETATM   25  C10 MIQ B 502     -16.187  22.381   2.533  1.00147.44     0.187 C 
HETATM   26  C11 MIQ B 502     -16.988  22.150   1.256  1.00144.08     0.149 C 
ENDBRANCH   5  21
TORSDOF 2
ENDMDL
MODEL 5
REMARK VINA RESULT:      -5.7     10.763     12.135
REMARK  2 active torsions:
REMARK  status: ('A' for Active; 'I' for Inactive)
REMARK    1  A    between atoms: C5_5  and  N6_21 
REMARK    2  A    between atoms: C18_14  and  N17_19 
ROOT
HETATM    1  O1  MIQ B 502     -18.371  22.423  -1.213  1.00142.91    -0.171 OA
HETATM    2  C2  MIQ B 502     -18.805  22.306  -2.536  1.00141.17     0.195 A 
HETATM    3  C3  MIQ B 502     -20.192  21.763  -3.007  1.00141.71     0.035 A 
HETATM    4  C4  MIQ B 502     -21.382  21.249  -2.289  1.00142.86     0.046 A 
HETATM    5  C5  MIQ B 502     -22.523  20.818  -3.010  1.00139.53     0.031 A 
HETATM    6  C12 MIQ B 502     -22.525  20.881  -4.465  1.00139.38     0.030 A 
HETATM    7  C13 MIQ B 502     -21.385  21.374  -5.154  1.00141.18     0.019 A 
HETATM    8  C14 MIQ B 502     -20.190  21.828  -4.391  1.00138.77     0.033 A 
HETATM    9  C15 MIQ B 502     -18.795  22.416  -4.781  1.00142.10     0.195 A 
HETATM   10  N17 MIQ B 502     -18.155  22.626  -3.642  1.00139.42    -0.288 N 
HETATM   11  O16 MIQ B 502     -18.323  22.664  -6.071  1.00148.93    -0.171 OA
ENDROOT
BRANCH  10  12
HETATM   12  C18 MIQ B 502     -16.806  23.160  -3.618  1.00139.82     0.187 C 
HETATM   13  C19 MIQ B 502     -15.952  22.233  -2.745  1.00140.06     0.247 C 
HETATM   14  O25 MIQ B 502     -15.963  21.072  -2.955  1.00143.95    -0.271 OA
HETATM   15  N20 MIQ B 502     -15.126  22.743  -1.670  1.00140.02    -0.296 N 
HETATM   16  H13 MIQ B 502     -14.578  22.126  -1.103  1.00142.77     0.171 HD
HETATM   17  C21 MIQ B 502     -15.137  24.162  -1.426  1.00142.22     0.224 C 
HETATM   18  C22 MIQ B 502     -16.444  24.887  -1.683  1.00139.52     0.106 C 
HETATM   19  O24 MIQ B 502     -14.173  24.732  -1.049  1.00146.13    -0.273 OA
HETATM   20  C23 MIQ B 502     -16.815  24.607  -3.128  1.00139.15     0.045 C 
ENDBRANCH  10  12
BRANCH   5  21
HETATM   21  N6  MIQ B 502     -23.677  20.303  -2.295  1.00140.95    -0.377 N 
HETATM   22  C7  MIQ B 502     -24.438  19.219  -2.892  1.00142.12     0.149 C 
HETATM   23  C8  MIQ B 502     -25.888  19.218  -2.425  1.00144.10     0.187 C 
HETATM   24  O9  MIQ B 502     -26.013  19.342  -1.040  1.00148.65    -0.388 OA
HETATM   25  C10 MIQ B 502     -24.903  19.667  -0.256  1.00147.44     0.187 C 
HETATM   26  C11 MIQ B 502     -23.806  20.532  -0.866  1.00144.08     0.149 C 
ENDBRANCH   5  21
TORSDOF 2
ENDMDL
MODEL 6
REMARK VINA RESULT:      -5.5      4.601      6.857
REMARK  2 active torsions:
REMARK  status: ('A' for Active; 'I' for Inactive)
REMARK    1  A    between atoms: C5_5  and  N6_21 
REMARK    2  A    between atoms: C18_14  and  N17_19 
ROOT
HETATM    1  O1  MIQ B 502     -14.760  15.901   3.681  1.00142.91    -0.171 OA
HETATM    2  C2  MIQ B 502     -16.097  15.786   4.067  1.00141.17     0.195 A 
HETATM    3  C3  MIQ B 502     -17.206  16.870   3.883  1.00141.71     0.035 A 
HETATM    4  C4  MIQ B 502     -17.213  18.232   3.299  1.00142.86     0.046 A 
HETATM    5  C5  MIQ B 502     -18.408  18.995   3.273  1.00139.53     0.031 A 
HETATM    6  C12 MIQ B 502     -19.635  18.435   3.823  1.00139.38     0.030 A 
HETATM    7  C13 MIQ B 502     -19.629  17.129   4.381  1.00141.18     0.019 A 
HETATM    8  C14 MIQ B 502     -18.372  16.332   4.403  1.00138.77     0.033 A 
HETATM    9  C15 MIQ B 502     -17.984  14.905   4.913  1.00142.10     0.195 A 
HETATM   10  N17 MIQ B 502     -16.696  14.761   4.649  1.00139.42    -0.288 N 
HETATM   11  O16 MIQ B 502     -18.829  13.977   5.524  1.00148.93    -0.171 OA
ENDROOT
BRANCH  10  12
HETATM   12  C18 MIQ B 502     -15.981  13.549   5.002  1.00139.82     0.187 C 
HETATM   13  C19 MIQ B 502     -14.774  13.950   5.858  1.00140.06     0.247 C 
HETATM   14  O25 MIQ B 502     -14.937  14.652   6.792  1.00143.95    -0.271 OA
HETATM   15  N20 MIQ B 502     -13.435  13.485   5.557  1.00140.02    -0.296 N 
HETATM   16  H13 MIQ B 502     -12.654  13.760   6.119  1.00142.77     0.171 HD
HETATM   17  C21 MIQ B 502     -13.259  12.637   4.406  1.00142.22     0.224 C 
HETATM   18  C22 MIQ B 502     -14.174  12.894   3.224  1.00139.52     0.106 C 
HETATM   19  O24 MIQ B 502     -12.445  11.781   4.388  1.00146.13    -0.273 OA
HETATM   20  C23 MIQ B 502     -15.595  12.773   3.744  1.00139.15     0.045 C 
ENDBRANCH  10  12
BRANCH   5  21
HETATM   21  N6  MIQ B 502     -18.397  20.334   2.712  1.00140.95    -0.377 N 
HETATM   22  C7  MIQ B 502     -17.124  21.022   2.583  1.00142.12     0.149 C 
HETATM   23  C8  MIQ B 502     -17.290  22.536   2.615  1.00144.10     0.187 C 
HETATM   24  O9  MIQ B 502     -18.302  22.990   1.768  1.00148.65    -0.388 OA
HETATM   25  C10 MIQ B 502     -19.182  22.084   1.168  1.00147.44     0.187 C 
HETATM   26  C11 MIQ B 502     -19.515  20.792   1.906  1.00144.08     0.149 C 
ENDBRANCH   5  21
TORSDOF 2
ENDMDL
MODEL 7
REMARK VINA RESULT:      -5.5     11.253     14.468
REMARK  2 active torsions:
REMARK  status: ('A' for Active; 'I' for Inactive)
REMARK    1  A    between atoms: C5_5  and  N6_21 
REMARK    2  A    between atoms: C18_14  and  N17_19 
ROOT
HETATM    1  O1  MIQ B 502     -18.756  21.355  -3.082  1.00142.91    -0.171 OA
HETATM    2  C2  MIQ B 502     -18.330  22.661  -3.330  1.00141.17     0.195 A 
HETATM    3  C3  MIQ B 502     -17.133  23.388  -2.638  1.00141.71     0.035 A 
HETATM    4  C4  MIQ B 502     -16.153  22.979  -1.603  1.00142.86     0.046 A 
HETATM    5  C5  MIQ B 502     -15.153  23.884  -1.166  1.00139.53     0.031 A 
HETATM    6  C12 MIQ B 502     -15.088  25.221  -1.739  1.00139.38     0.030 A 
HETATM    7  C13 MIQ B 502     -16.026  25.613  -2.732  1.00141.18     0.019 A 
HETATM    8  C14 MIQ B 502     -17.072  24.658  -3.188  1.00138.77     0.033 A 
HETATM    9  C15 MIQ B 502     -18.238  24.720  -4.228  1.00142.10     0.195 A 
HETATM   10  N17 MIQ B 502     -18.831  23.538  -4.184  1.00139.42    -0.288 N 
HETATM   11  O16 MIQ B 502     -18.582  25.806  -5.035  1.00148.93    -0.171 OA
ENDROOT
BRANCH  10  12
HETATM   12  C18 MIQ B 502     -19.980  23.235  -5.015  1.00139.82     0.187 C 
HETATM   13  C19 MIQ B 502     -21.090  22.698  -4.103  1.00140.06     0.247 C 
HETATM   14  O25 MIQ B 502     -21.391  23.311  -3.141  1.00143.95    -0.271 OA
HETATM   15  N20 MIQ B 502     -21.784  21.460  -4.391  1.00140.02    -0.296 N 
HETATM   16  H13 MIQ B 502     -22.501  21.117  -3.783  1.00142.77     0.171 HD
HETATM   17  C21 MIQ B 502     -21.391  20.724  -5.565  1.00142.22     0.224 C 
HETATM   18  C22 MIQ B 502     -19.926  20.790  -5.952  1.00139.52     0.106 C 
HETATM   19  O24 MIQ B 502     -22.174  20.105  -6.197  1.00146.13    -0.273 OA
HETATM   20  C23 MIQ B 502     -19.592  22.260  -6.126  1.00139.15     0.045 C 
ENDBRANCH  10  12
BRANCH   5  21
HETATM   21  N6  MIQ B 502     -14.209  23.475  -0.142  1.00140.95    -0.377 N 
HETATM   22  C7  MIQ B 502     -14.412  22.198   0.519  1.00142.12     0.149 C 
HETATM   23  C8  MIQ B 502     -13.814  22.181   1.920  1.00144.10     0.187 C 
HETATM   24  O9  MIQ B 502     -12.508  22.673   1.960  1.00148.65    -0.388 OA
HETATM   25  C10 MIQ B 502     -11.959  23.312   0.845  1.00147.44     0.187 C 
HETATM   26  C11 MIQ B 502     -12.889  24.079  -0.088  1.00144.08     0.149 C 
ENDBRANCH   5  21
TORSDOF 2
ENDMDL
MODEL 8
REMARK VINA RESULT:      -5.4     10.371     12.358
REMARK  2 active torsions:
REMARK  status: ('A' for Active; 'I' for Inactive)
REMARK    1  A    between atoms: C5_5  and  N6_21 
REMARK    2  A    between atoms: C18_14  and  N17_19 
ROOT
HETATM    1  O1  MIQ B 502     -19.099  21.698   0.488  1.00142.91    -0.171 OA
HETATM    2  C2  MIQ B 502     -18.036  22.147  -0.300  1.00141.17     0.195 A 
HETATM    3  C3  MIQ B 502     -18.031  22.273  -1.857  1.00141.71     0.035 A 
HETATM    4  C4  MIQ B 502     -19.042  21.995  -2.905  1.00142.86     0.046 A 
HETATM    5  C5  MIQ B 502     -18.737  22.216  -4.271  1.00139.53     0.031 A 
HETATM    6  C12 MIQ B 502     -17.423  22.720  -4.646  1.00139.38     0.030 A 
HETATM    7  C13 MIQ B 502     -16.455  22.988  -3.641  1.00141.18     0.019 A 
HETATM    8  C14 MIQ B 502     -16.782  22.756  -2.208  1.00138.77     0.033 A 
HETATM    9  C15 MIQ B 502     -16.006  22.931  -0.861  1.00142.10     0.195 A 
HETATM   10  N17 MIQ B 502     -16.841  22.553   0.093  1.00139.42    -0.288 N 
HETATM   11  O16 MIQ B 502     -14.697  23.390  -0.704  1.00148.93    -0.171 OA
ENDROOT
BRANCH  10  12
HETATM   12  C18 MIQ B 502     -16.451  22.568   1.490  1.00139.82     0.187 C 
HETATM   13  C19 MIQ B 502     -15.891  23.960   1.805  1.00140.06     0.247 C 
HETATM   14  O25 MIQ B 502     -16.522  24.914   1.514  1.00143.95    -0.271 OA
HETATM   15  N20 MIQ B 502     -14.609  24.139   2.456  1.00140.02    -0.296 N 
HETATM   16  H13 MIQ B 502     -14.252  25.054   2.651  1.00142.77     0.171 HD
HETATM   17  C21 MIQ B 502     -13.853  22.960   2.792  1.00142.22     0.224 C 
HETATM   18  C22 MIQ B 502     -13.980  21.779   1.850  1.00139.52     0.106 C 
HETATM   19  O24 MIQ B 502     -13.173  22.917   3.757  1.00146.13    -0.273 OA
HETATM   20  C23 MIQ B 502     -15.458  21.442   1.776  1.00139.15     0.045 C 
ENDBRANCH  10  12
BRANCH   5  21
HETATM   21  N6  MIQ B 502     -19.731  21.925  -5.288  1.00140.95    -0.377 N 
HETATM   22  C7  MIQ B 502     -20.851  21.068  -4.939  1.00142.12     0.149 C 
HETATM   23  C8  MIQ B 502     -21.413  20.343  -6.156  1.00144.10     0.187 C 
HETATM   24  O9  MIQ B 502     -21.627  21.193  -7.243  1.00148.65    -0.388 OA
HETATM   25  C10 MIQ B 502     -21.137  22.501  -7.227  1.00147.44     0.187 C 
HETATM   26  C11 MIQ B 502     -19.858  22.791  -6.447  1.00144.08     0.149 C 
ENDBRANCH   5  21
TORSDOF 2
ENDMDL
MODEL 9
REMARK VINA RESULT:      -5.3      3.099      8.349
REMARK  2 active torsions:
REMARK  status: ('A' for Active; 'I' for Inactive)
REMARK    1  A    between atoms: C5_5  and  N6_21 
REMARK    2  A    between atoms: C18_14  and  N17_19 
ROOT
HETATM    1  O1  MIQ B 502     -22.251  15.095   4.064  1.00142.91    -0.171 OA
HETATM    2  C2  MIQ B 502     -21.326  14.149   4.513  1.00141.17     0.195 A 
HETATM    3  C3  MIQ B 502     -19.804  14.392   4.761  1.00141.71     0.035 A 
HETATM    4  C4  MIQ B 502     -18.926  15.578   4.621  1.00142.86     0.046 A 
HETATM    5  C5  MIQ B 502     -17.545  15.489   4.931  1.00139.53     0.031 A 
HETATM    6  C12 MIQ B 502     -16.988  14.224   5.390  1.00139.38     0.030 A 
HETATM    7  C13 MIQ B 502     -17.830  13.087   5.525  1.00141.18     0.019 A 
HETATM    8  C14 MIQ B 502     -19.279  13.188   5.200  1.00138.77     0.033 A 
HETATM    9  C15 MIQ B 502     -20.483  12.191   5.226  1.00142.10     0.195 A 
HETATM   10  N17 MIQ B 502     -21.537  12.881   4.822  1.00139.42    -0.288 N 
HETATM   11  O16 MIQ B 502     -20.447  10.846   5.599  1.00148.93    -0.171 OA
ENDROOT
BRANCH  10  12
HETATM   12  C18 MIQ B 502     -22.846  12.265   4.705  1.00139.82     0.187 C 
HETATM   13  C19 MIQ B 502     -23.225  11.707   6.083  1.00140.06     0.247 C 
HETATM   14  O25 MIQ B 502     -23.151  12.408   7.028  1.00143.95    -0.271 OA
HETATM   15  N20 MIQ B 502     -23.677  10.342   6.256  1.00140.02    -0.296 N 
HETATM   16  H13 MIQ B 502     -23.915   9.988   7.161  1.00142.77     0.171 HD
HETATM   17  C21 MIQ B 502     -23.750   9.502   5.088  1.00142.22     0.224 C 
HETATM   18  C22 MIQ B 502     -22.711   9.744   4.010  1.00139.52     0.106 C 
HETATM   19  O24 MIQ B 502     -24.581   8.670   4.975  1.00146.13    -0.273 OA
HETATM   20  C23 MIQ B 502     -22.838  11.202   3.608  1.00139.15     0.045 C 
ENDBRANCH  10  12
BRANCH   5  21
HETATM   21  N6  MIQ B 502     -16.694  16.654   4.776  1.00140.95    -0.377 N 
HETATM   22  C7  MIQ B 502     -15.471  16.730   5.556  1.00142.12     0.149 C 
HETATM   23  C8  MIQ B 502     -15.041  18.171   5.801  1.00144.10     0.187 C 
HETATM   24  O9  MIQ B 502     -15.058  18.948   4.641  1.00148.65    -0.388 OA
HETATM   25  C10 MIQ B 502     -15.642  18.458   3.470  1.00147.44     0.187 C 
HETATM   26  C11 MIQ B 502     -16.808  17.483   3.589  1.00144.08     0.149 C 
ENDBRANCH   5  21
TORSDOF 2
ENDMDL
