MODEL 1
REMARK VINA RESULT:      -6.9      0.000      0.000
REMARK  2 active torsions:
REMARK  status: ('A' for Active; 'I' for Inactive)
REMARK    1  A    between atoms: C5_5  and  N6_21 
REMARK    2  A    between atoms: C18_14  and  N17_19 
ROOT
HETATM    1  O1  MIQ B 502       8.993 -14.130  -9.442  1.00142.91    -0.171 OA
HETATM    2  C2  MIQ B 502      10.247 -13.524  -9.544  1.00141.17     0.195 A 
HETATM    3  C3  MIQ B 502      11.605 -14.129  -9.063  1.00141.71     0.035 A 
HETATM    4  C4  MIQ B 502      11.977 -15.408  -8.413  1.00142.86     0.046 A 
HETATM    5  C5  MIQ B 502      13.331 -15.680  -8.090  1.00139.53     0.031 A 
HETATM    6  C12 MIQ B 502      14.359 -14.697  -8.400  1.00139.38     0.030 A 
HETATM    7  C13 MIQ B 502      14.003 -13.471  -9.024  1.00141.18     0.019 A 
HETATM    8  C14 MIQ B 502      12.580 -13.192  -9.363  1.00138.77     0.033 A 
HETATM    9  C15 MIQ B 502      11.824 -12.000 -10.035  1.00142.10     0.195 A 
HETATM   10  N17 MIQ B 502      10.547 -12.345 -10.060  1.00139.42    -0.288 N 
HETATM   11  O16 MIQ B 502      12.387 -10.813 -10.507  1.00148.93    -0.171 OA
ENDROOT
BRANCH  10  12
HETATM   12  C18 MIQ B 502       9.535 -11.461 -10.606  1.00139.82     0.187 C 
HETATM   13  C19 MIQ B 502      10.017 -10.991 -11.983  1.00140.06     0.247 C 
HETATM   14  O25 MIQ B 502      10.374 -11.792 -12.772  1.00143.95    -0.271 OA
HETATM   15  N20 MIQ B 502      10.042  -9.589 -12.347  1.00140.02    -0.296 N 
HETATM   16  H13 MIQ B 502      10.365  -9.295 -13.248  1.00142.77     0.171 HD
HETATM   17  C21 MIQ B 502       9.611  -8.629 -11.363  1.00142.22     0.224 C 
HETATM   18  C22 MIQ B 502       9.904  -8.962  -9.913  1.00139.52     0.106 C 
HETATM   19  O24 MIQ B 502       9.053  -7.635 -11.673  1.00146.13    -0.273 OA
HETATM   20  C23 MIQ B 502       9.258 -10.309  -9.641  1.00139.15     0.045 C 
ENDBRANCH  10  12
BRANCH   5  21
HETATM   21  N6  MIQ B 502      13.680 -16.930  -7.440  1.00140.95    -0.377 N 
HETATM   22  C7  MIQ B 502      15.041 -17.422  -7.565  1.00142.12     0.149 C 
HETATM   23  C8  MIQ B 502      15.112 -18.938  -7.431  1.00144.10     0.187 C 
HETATM   24  O9  MIQ B 502      14.402 -19.420  -6.330  1.00148.65    -0.388 OA
HETATM   25  C10 MIQ B 502      13.550 -18.576  -5.612  1.00147.44     0.187 C 
HETATM   26  C11 MIQ B 502      12.860 -17.436  -6.353  1.00144.08     0.149 C 
ENDBRANCH   5  21
TORSDOF 2
ENDMDL
MODEL 2
REMARK VINA RESULT:      -6.4      1.932      3.124
REMARK  2 active torsions:
REMARK  status: ('A' for Active; 'I' for Inactive)
REMARK    1  A    between atoms: C5_5  and  N6_21 
REMARK    2  A    between atoms: C18_14  and  N17_19 
ROOT
HETATM    1  O1  MIQ B 502      12.401 -10.880 -10.598  1.00142.91    -0.171 OA
HETATM    2  C2  MIQ B 502      11.893 -12.048 -10.025  1.00141.17     0.195 A 
HETATM    3  C3  MIQ B 502      12.729 -13.199  -9.379  1.00141.71     0.035 A 
HETATM    4  C4  MIQ B 502      14.182 -13.412  -9.177  1.00142.86     0.046 A 
HETATM    5  C5  MIQ B 502      14.651 -14.589  -8.539  1.00139.53     0.031 A 
HETATM    6  C12 MIQ B 502      13.700 -15.591  -8.081  1.00139.38     0.030 A 
HETATM    7  C13 MIQ B 502      12.307 -15.385  -8.273  1.00141.18     0.019 A 
HETATM    8  C14 MIQ B 502      11.820 -14.147  -8.941  1.00138.77     0.033 A 
HETATM    9  C15 MIQ B 502      10.411 -13.583  -9.317  1.00142.10     0.195 A 
HETATM   10  N17 MIQ B 502      10.629 -12.418  -9.904  1.00139.42    -0.288 N 
HETATM   11  O16 MIQ B 502       9.177 -14.190  -9.080  1.00148.93    -0.171 OA
ENDROOT
BRANCH  10  12
HETATM   12  C18 MIQ B 502       9.536 -11.606 -10.406  1.00139.82     0.187 C 
HETATM   13  C19 MIQ B 502       9.868 -11.217 -11.852  1.00140.06     0.247 C 
HETATM   14  O25 MIQ B 502      10.179 -12.059 -12.618  1.00143.95    -0.271 OA
HETATM   15  N20 MIQ B 502       9.804  -9.843 -12.307  1.00140.02    -0.296 N 
HETATM   16  H13 MIQ B 502      10.030  -9.602 -13.252  1.00142.77     0.171 HD
HETATM   17  C21 MIQ B 502       9.432  -8.833 -11.351  1.00142.22     0.224 C 
HETATM   18  C22 MIQ B 502       9.874  -9.056  -9.917  1.00139.52     0.106 C 
HETATM   19  O24 MIQ B 502       8.809  -7.880 -11.669  1.00146.13    -0.273 OA
HETATM   20  C23 MIQ B 502       9.308 -10.400  -9.496  1.00139.15     0.045 C 
ENDBRANCH  10  12
BRANCH   5  21
HETATM   21  N6  MIQ B 502      16.077 -14.792  -8.361  1.00140.95    -0.377 N 
HETATM   22  C7  MIQ B 502      16.525 -15.947  -7.602  1.00142.12     0.149 C 
HETATM   23  C8  MIQ B 502      17.885 -15.713  -6.958  1.00144.10     0.187 C 
HETATM   24  O9  MIQ B 502      18.823 -15.182  -7.846  1.00148.65    -0.388 OA
HETATM   25  C10 MIQ B 502      18.425 -14.721  -9.103  1.00147.44     0.187 C 
HETATM   26  C11 MIQ B 502      17.020 -14.149  -9.259  1.00144.08     0.149 C 
ENDBRANCH   5  21
TORSDOF 2
ENDMDL
MODEL 3
REMARK VINA RESULT:      -6.4      4.295      7.744
REMARK  2 active torsions:
REMARK  status: ('A' for Active; 'I' for Inactive)
REMARK    1  A    between atoms: C5_5  and  N6_21 
REMARK    2  A    between atoms: C18_14  and  N17_19 
ROOT
HETATM    1  O1  MIQ B 502      12.587 -11.739 -10.503  1.00142.91    -0.171 OA
HETATM    2  C2  MIQ B 502      12.065 -10.514 -10.925  1.00141.17     0.195 A 
HETATM    3  C3  MIQ B 502      12.830  -9.153 -10.971  1.00141.71     0.035 A 
HETATM    4  C4  MIQ B 502      14.213  -8.749 -10.625  1.00142.86     0.046 A 
HETATM    5  C5  MIQ B 502      14.626  -7.401 -10.779  1.00139.53     0.031 A 
HETATM    6  C12 MIQ B 502      13.685  -6.410 -11.282  1.00139.38     0.030 A 
HETATM    7  C13 MIQ B 502      12.359  -6.797 -11.615  1.00141.18     0.019 A 
HETATM    8  C14 MIQ B 502      11.932  -8.214 -11.453  1.00138.77     0.033 A 
HETATM    9  C15 MIQ B 502      10.603  -8.997 -11.708  1.00142.10     0.195 A 
HETATM   10  N17 MIQ B 502      10.847 -10.252 -11.368  1.00139.42    -0.288 N 
HETATM   11  O16 MIQ B 502       9.403  -8.472 -12.192  1.00148.93    -0.171 OA
ENDROOT
BRANCH  10  12
HETATM   12  C18 MIQ B 502       9.822 -11.274 -11.460  1.00139.82     0.187 C 
HETATM   13  C19 MIQ B 502       9.736 -11.974 -10.098  1.00140.06     0.247 C 
HETATM   14  O25 MIQ B 502       9.621 -11.322  -9.122  1.00143.95    -0.271 OA
HETATM   15  N20 MIQ B 502       9.787 -13.417  -9.977  1.00140.02    -0.296 N 
HETATM   16  H13 MIQ B 502       9.736 -13.861  -9.081  1.00142.77     0.171 HD
HETATM   17  C21 MIQ B 502       9.938 -14.191 -11.182  1.00142.22     0.224 C 
HETATM   18  C22 MIQ B 502      10.768 -13.571 -12.289  1.00139.52     0.106 C 
HETATM   19  O24 MIQ B 502       9.434 -15.253 -11.301  1.00146.13    -0.273 OA
HETATM   20  C23 MIQ B 502      10.129 -12.233 -12.610  1.00139.15     0.045 C 
ENDBRANCH  10  12
BRANCH   5  21
HETATM   21  N6  MIQ B 502      15.980  -7.017 -10.422  1.00140.95    -0.377 N 
HETATM   22  C7  MIQ B 502      16.606  -7.661  -9.281  1.00142.12     0.149 C 
HETATM   23  C8  MIQ B 502      17.669  -6.777  -8.641  1.00144.10     0.187 C 
HETATM   24  O9  MIQ B 502      18.550  -6.225  -9.574  1.00148.65    -0.388 OA
HETATM   25  C10 MIQ B 502      18.285  -6.323 -10.942  1.00147.44     0.187 C 
HETATM   26  C11 MIQ B 502      16.832  -6.367 -11.402  1.00144.08     0.149 C 
ENDBRANCH   5  21
TORSDOF 2
ENDMDL
MODEL 4
REMARK VINA RESULT:      -6.2     14.160     17.628
REMARK  2 active torsions:
REMARK  status: ('A' for Active; 'I' for Inactive)
REMARK    1  A    between atoms: C5_5  and  N6_21 
REMARK    2  A    between atoms: C18_14  and  N17_19 
ROOT
HETATM    1  O1  MIQ B 502      20.786  -0.749  -6.024  1.00142.91    -0.171 OA
HETATM    2  C2  MIQ B 502      19.595  -0.251  -6.557  1.00141.17     0.195 A 
HETATM    3  C3  MIQ B 502      19.455   0.979  -7.509  1.00141.71     0.035 A 
HETATM    4  C4  MIQ B 502      20.430   1.924  -8.104  1.00142.86     0.046 A 
HETATM    5  C5  MIQ B 502      19.988   2.968  -8.955  1.00139.53     0.031 A 
HETATM    6  C12 MIQ B 502      18.569   3.112  -9.246  1.00139.38     0.030 A 
HETATM    7  C13 MIQ B 502      17.634   2.206  -8.677  1.00141.18     0.019 A 
HETATM    8  C14 MIQ B 502      18.104   1.110  -7.786  1.00138.77     0.033 A 
HETATM    9  C15 MIQ B 502      17.401  -0.046  -7.002  1.00142.10     0.195 A 
HETATM   10  N17 MIQ B 502      18.366  -0.704  -6.379  1.00139.42    -0.288 N 
HETATM   11  O16 MIQ B 502      16.033  -0.322  -6.967  1.00148.93    -0.171 OA
ENDROOT
BRANCH  10  12
HETATM   12  C18 MIQ B 502      18.079  -1.846  -5.531  1.00139.82     0.187 C 
HETATM   13  C19 MIQ B 502      17.281  -2.857  -6.363  1.00140.06     0.247 C 
HETATM   14  O25 MIQ B 502      17.691  -3.185  -7.419  1.00143.95    -0.271 OA
HETATM   15  N20 MIQ B 502      16.038  -3.428  -5.886  1.00140.02    -0.296 N 
HETATM   16  H13 MIQ B 502      15.523  -4.082  -6.442  1.00142.77     0.171 HD
HETATM   17  C21 MIQ B 502      15.552  -3.004  -4.598  1.00142.22     0.224 C 
HETATM   18  C22 MIQ B 502      15.841  -1.569  -4.199  1.00139.52     0.106 C 
HETATM   19  O24 MIQ B 502      14.962  -3.741  -3.887  1.00146.13    -0.273 OA
HETATM   20  C23 MIQ B 502      17.348  -1.398  -4.266  1.00139.15     0.045 C 
ENDBRANCH  10  12
BRANCH   5  21
HETATM   21  N6  MIQ B 502      20.953   3.895  -9.519  1.00140.95    -0.377 N 
HETATM   22  C7  MIQ B 502      21.917   4.520  -8.630  1.00142.12     0.149 C 
HETATM   23  C8  MIQ B 502      22.393   5.865  -9.164  1.00144.10     0.187 C 
HETATM   24  O9  MIQ B 502      22.766   5.815 -10.508  1.00148.65    -0.388 OA
HETATM   25  C10 MIQ B 502      22.484   4.685 -11.279  1.00147.44     0.187 C 
HETATM   26  C11 MIQ B 502      21.245   3.862 -10.941  1.00144.08     0.149 C 
ENDBRANCH   5  21
TORSDOF 2
ENDMDL
MODEL 5
REMARK VINA RESULT:      -6.2     22.966     24.008
REMARK  2 active torsions:
REMARK  status: ('A' for Active; 'I' for Inactive)
REMARK    1  A    between atoms: C5_5  and  N6_21 
REMARK    2  A    between atoms: C18_14  and  N17_19 
ROOT
HETATM    1  O1  MIQ B 502      18.108  -0.609   7.158  1.00142.91    -0.171 OA
HETATM    2  C2  MIQ B 502      19.279  -0.014   7.631  1.00141.17     0.195 A 
HETATM    3  C3  MIQ B 502      20.733  -0.339   7.162  1.00141.71     0.035 A 
HETATM    4  C4  MIQ B 502      21.296  -1.280   6.166  1.00142.86     0.046 A 
HETATM    5  C5  MIQ B 502      22.697  -1.349   5.956  1.00139.53     0.031 A 
HETATM    6  C12 MIQ B 502      23.585  -0.488   6.723  1.00139.38     0.030 A 
HETATM    7  C13 MIQ B 502      23.046   0.416   7.678  1.00141.18     0.019 A 
HETATM    8  C14 MIQ B 502      21.575   0.485   7.893  1.00138.77     0.033 A 
HETATM    9  C15 MIQ B 502      20.638   1.326   8.820  1.00142.10     0.195 A 
HETATM   10  N17 MIQ B 502      19.405   0.930   8.549  1.00139.42    -0.288 N 
HETATM   11  O16 MIQ B 502      21.028   2.294   9.746  1.00148.93    -0.171 OA
ENDROOT
BRANCH  10  12
HETATM   12  C18 MIQ B 502      18.260   1.491   9.241  1.00139.82     0.187 C 
HETATM   13  C19 MIQ B 502      18.371   3.018   9.167  1.00140.06     0.247 C 
HETATM   14  O25 MIQ B 502      18.547   3.533   8.120  1.00143.95    -0.271 OA
HETATM   15  N20 MIQ B 502      18.258   3.851  10.347  1.00140.02    -0.296 N 
HETATM   16  H13 MIQ B 502      18.339   4.847  10.286  1.00142.77     0.171 HD
HETATM   17  C21 MIQ B 502      18.053   3.199  11.615  1.00142.22     0.224 C 
HETATM   18  C22 MIQ B 502      18.706   1.843  11.797  1.00139.52     0.106 C 
HETATM   19  O24 MIQ B 502      17.402   3.696  12.467  1.00146.13    -0.273 OA
HETATM   20  C23 MIQ B 502      18.193   0.962  10.673  1.00139.15     0.045 C 
ENDBRANCH  10  12
BRANCH   5  21
HETATM   21  N6  MIQ B 502      23.235  -2.286   4.987  1.00140.95    -0.377 N 
HETATM   22  C7  MIQ B 502      22.726  -2.250   3.627  1.00142.12     0.149 C 
HETATM   23  C8  MIQ B 502      22.855  -3.600   2.935  1.00144.10     0.187 C 
HETATM   24  O9  MIQ B 502      24.123  -4.167   3.082  1.00148.65    -0.388 OA
HETATM   25  C10 MIQ B 502      25.045  -3.616   3.975  1.00147.44     0.187 C 
HETATM   26  C11 MIQ B 502      24.522  -2.917   5.226  1.00144.08     0.149 C 
ENDBRANCH   5  21
TORSDOF 2
ENDMDL
MODEL 6
REMARK VINA RESULT:      -6.2     15.320     18.692
REMARK  2 active torsions:
REMARK  status: ('A' for Active; 'I' for Inactive)
REMARK    1  A    between atoms: C5_5  and  N6_21 
REMARK    2  A    between atoms: C18_14  and  N17_19 
ROOT
HETATM    1  O1  MIQ B 502      17.063   3.429  -8.947  1.00142.91    -0.171 OA
HETATM    2  C2  MIQ B 502      18.073   2.554  -8.541  1.00141.17     0.195 A 
HETATM    3  C3  MIQ B 502      19.546   2.541  -9.059  1.00141.71     0.035 A 
HETATM    4  C4  MIQ B 502      20.287   3.364 -10.044  1.00142.86     0.046 A 
HETATM    5  C5  MIQ B 502      21.656   3.106 -10.308  1.00139.53     0.031 A 
HETATM    6  C12 MIQ B 502      22.337   2.027  -9.606  1.00139.38     0.030 A 
HETATM    7  C13 MIQ B 502      21.627   1.238  -8.660  1.00141.18     0.019 A 
HETATM    8  C14 MIQ B 502      20.190   1.515  -8.386  1.00138.77     0.033 A 
HETATM    9  C15 MIQ B 502      19.111   0.889  -7.444  1.00142.10     0.195 A 
HETATM   10  N17 MIQ B 502      18.001   1.579  -7.650  1.00139.42    -0.288 N 
HETATM   11  O16 MIQ B 502      19.287  -0.183  -6.568  1.00148.93    -0.171 OA
ENDROOT
BRANCH  10  12
HETATM   12  C18 MIQ B 502      16.771   1.263  -6.949  1.00139.82     0.187 C 
HETATM   13  C19 MIQ B 502      17.085   1.222  -5.449  1.00140.06     0.247 C 
HETATM   14  O25 MIQ B 502      17.653   2.130  -4.954  1.00143.95    -0.271 OA
HETATM   15  N20 MIQ B 502      16.699   0.100  -4.618  1.00140.02    -0.296 N 
HETATM   16  H13 MIQ B 502      16.916   0.082  -3.641  1.00142.77     0.171 HD
HETATM   17  C21 MIQ B 502      16.016  -1.002  -5.247  1.00142.22     0.224 C 
HETATM   18  C22 MIQ B 502      16.405  -1.316  -6.678  1.00139.52     0.106 C 
HETATM   19  O24 MIQ B 502      15.191  -1.625  -4.675  1.00146.13    -0.273 OA
HETATM   20  C23 MIQ B 502      16.180  -0.044  -7.476  1.00139.15     0.045 C 
ENDBRANCH  10  12
BRANCH   5  21
HETATM   21  N6  MIQ B 502      22.366   3.909 -11.286  1.00140.95    -0.377 N 
HETATM   22  C7  MIQ B 502      23.553   3.354 -11.913  1.00142.12     0.149 C 
HETATM   23  C8  MIQ B 502      24.516   4.441 -12.372  1.00144.10     0.187 C 
HETATM   24  O9  MIQ B 502      23.884   5.459 -13.089  1.00148.65    -0.388 OA
HETATM   25  C10 MIQ B 502      22.489   5.530 -13.137  1.00147.44     0.187 C 
HETATM   26  C11 MIQ B 502      21.691   5.015 -11.944  1.00144.08     0.149 C 
ENDBRANCH   5  21
TORSDOF 2
ENDMDL
MODEL 7
REMARK VINA RESULT:      -6.2     10.722     13.067
REMARK  2 active torsions:
REMARK  status: ('A' for Active; 'I' for Inactive)
REMARK    1  A    between atoms: C5_5  and  N6_21 
REMARK    2  A    between atoms: C18_14  and  N17_19 
ROOT
HETATM    1  O1  MIQ B 502      16.550  -1.422  -7.742  1.00142.91    -0.171 OA
HETATM    2  C2  MIQ B 502      17.682  -2.237  -7.664  1.00141.17     0.195 A 
HETATM    3  C3  MIQ B 502      17.921  -3.561  -8.459  1.00141.71     0.035 A 
HETATM    4  C4  MIQ B 502      17.118  -4.312  -9.453  1.00142.86     0.046 A 
HETATM    5  C5  MIQ B 502      17.616  -5.515 -10.015  1.00139.53     0.031 A 
HETATM    6  C12 MIQ B 502      18.922  -6.014  -9.612  1.00139.38     0.030 A 
HETATM    7  C13 MIQ B 502      19.693  -5.294  -8.659  1.00141.18     0.019 A 
HETATM    8  C14 MIQ B 502      19.166  -4.030  -8.075  1.00138.77     0.033 A 
HETATM    9  C15 MIQ B 502      19.704  -2.992  -7.037  1.00142.10     0.195 A 
HETATM   10  N17 MIQ B 502      18.766  -2.066  -6.927  1.00139.42    -0.288 N 
HETATM   11  O16 MIQ B 502      20.926  -3.039  -6.364  1.00148.93    -0.171 OA
ENDROOT
BRANCH  10  12
HETATM   12  C18 MIQ B 502      18.916  -0.938  -6.027  1.00139.82     0.187 C 
HETATM   13  C19 MIQ B 502      17.660  -0.867  -5.150  1.00140.06     0.247 C 
HETATM   14  O25 MIQ B 502      17.298  -1.837  -4.584  1.00143.95    -0.271 OA
HETATM   15  N20 MIQ B 502      16.907   0.360  -4.992  1.00140.02    -0.296 N 
HETATM   16  H13 MIQ B 502      16.085   0.391  -4.422  1.00142.77     0.171 HD
HETATM   17  C21 MIQ B 502      17.362   1.527  -5.702  1.00142.22     0.224 C 
HETATM   18  C22 MIQ B 502      18.008   1.294  -7.054  1.00139.52     0.106 C 
HETATM   19  O24 MIQ B 502      17.243   2.612  -5.248  1.00146.13    -0.273 OA
HETATM   20  C23 MIQ B 502      19.169   0.344  -6.819  1.00139.15     0.045 C 
ENDBRANCH  10  12
BRANCH   5  21
HETATM   21  N6  MIQ B 502      16.812  -6.247 -10.977  1.00140.95    -0.377 N 
HETATM   22  C7  MIQ B 502      15.513  -5.714 -11.346  1.00142.12     0.149 C 
HETATM   23  C8  MIQ B 502      14.556  -6.809 -11.799  1.00144.10     0.187 C 
HETATM   24  O9  MIQ B 502      15.129  -7.681 -12.727  1.00148.65    -0.388 OA
HETATM   25  C10 MIQ B 502      16.501  -7.637 -12.986  1.00147.44     0.187 C 
HETATM   26  C11 MIQ B 502      17.442  -7.209 -11.864  1.00144.08     0.149 C 
ENDBRANCH   5  21
TORSDOF 2
ENDMDL
MODEL 8
REMARK VINA RESULT:      -6.1     21.923     23.633
REMARK  2 active torsions:
REMARK  status: ('A' for Active; 'I' for Inactive)
REMARK    1  A    between atoms: C5_5  and  N6_21 
REMARK    2  A    between atoms: C18_14  and  N17_19 
ROOT
HETATM    1  O1  MIQ B 502      18.914   4.360   1.528  1.00142.91    -0.171 OA
HETATM    2  C2  MIQ B 502      20.058   4.391   2.329  1.00141.17     0.195 A 
HETATM    3  C3  MIQ B 502      20.136   4.001   3.839  1.00141.71     0.035 A 
HETATM    4  C4  MIQ B 502      19.136   3.518   4.820  1.00142.86     0.046 A 
HETATM    5  C5  MIQ B 502      19.519   3.240   6.157  1.00139.53     0.031 A 
HETATM    6  C12 MIQ B 502      20.903   3.430   6.566  1.00139.38     0.030 A 
HETATM    7  C13 MIQ B 502      21.863   3.891   5.625  1.00141.18     0.019 A 
HETATM    8  C14 MIQ B 502      21.456   4.180   4.223  1.00138.77     0.033 A 
HETATM    9  C15 MIQ B 502      22.200   4.682   2.943  1.00142.10     0.195 A 
HETATM   10  N17 MIQ B 502      21.286   4.741   1.988  1.00139.42    -0.288 N 
HETATM   11  O16 MIQ B 502      23.554   5.005   2.836  1.00148.93    -0.171 OA
ENDROOT
BRANCH  10  12
HETATM   12  C18 MIQ B 502      21.618   5.188   0.649  1.00139.82     0.187 C 
HETATM   13  C19 MIQ B 502      20.642   6.310   0.274  1.00140.06     0.247 C 
HETATM   14  O25 MIQ B 502      20.492   7.215   1.016  1.00143.95    -0.271 OA
HETATM   15  N20 MIQ B 502      19.900   6.293  -0.970  1.00140.02    -0.296 N 
HETATM   16  H13 MIQ B 502      19.261   7.028  -1.200  1.00142.77     0.171 HD
HETATM   17  C21 MIQ B 502      20.092   5.172  -1.854  1.00142.22     0.224 C 
HETATM   18  C22 MIQ B 502      20.361   3.829  -1.203  1.00139.52     0.106 C 
HETATM   19  O24 MIQ B 502      20.046   5.297  -3.029  1.00146.13    -0.273 OA
HETATM   20  C23 MIQ B 502      21.587   4.013  -0.327  1.00139.15     0.045 C 
ENDBRANCH  10  12
BRANCH   5  21
HETATM   21  N6  MIQ B 502      18.526   2.782   7.111  1.00140.95    -0.377 N 
HETATM   22  C7  MIQ B 502      18.270   1.356   7.216  1.00142.12     0.149 C 
HETATM   23  C8  MIQ B 502      16.858   1.066   7.711  1.00144.10     0.187 C 
HETATM   24  O9  MIQ B 502      16.512   1.820   8.834  1.00148.65    -0.388 OA
HETATM   25  C10 MIQ B 502      17.326   2.872   9.260  1.00147.44     0.187 C 
HETATM   26  C11 MIQ B 502      18.134   3.637   8.217  1.00144.08     0.149 C 
ENDBRANCH   5  21
TORSDOF 2
ENDMDL
MODEL 9
REMARK VINA RESULT:      -6.1     22.974     24.996
REMARK  2 active torsions:
REMARK  status: ('A' for Active; 'I' for Inactive)
REMARK    1  A    between atoms: C5_5  and  N6_21 
REMARK    2  A    between atoms: C18_14  and  N17_19 
ROOT
HETATM    1  O1  MIQ B 502      18.217   3.433   7.548  1.00142.91    -0.171 OA
HETATM    2  C2  MIQ B 502      19.316   2.728   7.054  1.00141.17     0.195 A 
HETATM    3  C3  MIQ B 502      20.050   2.994   5.701  1.00141.71     0.035 A 
HETATM    4  C4  MIQ B 502      19.850   3.976   4.609  1.00142.86     0.046 A 
HETATM    5  C5  MIQ B 502      20.702   3.971   3.476  1.00139.53     0.031 A 
HETATM    6  C12 MIQ B 502      21.778   2.995   3.385  1.00139.38     0.030 A 
HETATM    7  C13 MIQ B 502      21.971   2.054   4.432  1.00141.18     0.019 A 
HETATM    8  C14 MIQ B 502      21.075   2.065   5.620  1.00138.77     0.033 A 
HETATM    9  C15 MIQ B 502      20.977   1.219   6.931  1.00142.10     0.195 A 
HETATM   10  N17 MIQ B 502      19.957   1.715   7.612  1.00139.42    -0.288 N 
HETATM   11  O16 MIQ B 502      21.801   0.154   7.302  1.00148.93    -0.171 OA
ENDROOT
BRANCH  10  12
HETATM   12  C18 MIQ B 502      19.558   1.159   8.891  1.00139.82     0.187 C 
HETATM   13  C19 MIQ B 502      18.071   0.793   8.797  1.00140.06     0.247 C 
HETATM   14  O25 MIQ B 502      17.696   0.133   7.894  1.00143.95    -0.271 OA
HETATM   15  N20 MIQ B 502      17.113   1.229   9.792  1.00140.02    -0.296 N 
HETATM   16  H13 MIQ B 502      16.144   0.989   9.716  1.00142.77     0.171 HD
HETATM   17  C21 MIQ B 502      17.593   2.042  10.880  1.00142.22     0.224 C 
HETATM   18  C22 MIQ B 502      18.733   2.993  10.569  1.00139.52     0.106 C 
HETATM   19  O24 MIQ B 502      17.124   1.966  11.962  1.00146.13    -0.273 OA
HETATM   20  C23 MIQ B 502      19.864   2.144  10.018  1.00139.15     0.045 C 
ENDBRANCH  10  12
BRANCH   5  21
HETATM   21  N6  MIQ B 502      20.486   4.930   2.407  1.00140.95    -0.377 N 
HETATM   22  C7  MIQ B 502      21.474   5.975   2.201  1.00142.12     0.149 C 
HETATM   23  C8  MIQ B 502      20.865   7.215   1.559  1.00144.10     0.187 C 
HETATM   24  O9  MIQ B 502      20.071   6.917   0.449  1.00148.65    -0.388 OA
HETATM   25  C10 MIQ B 502      19.725   5.594   0.161  1.00147.44     0.187 C 
HETATM   26  C11 MIQ B 502      19.582   4.609   1.316  1.00144.08     0.149 C 
ENDBRANCH   5  21
TORSDOF 2
ENDMDL
