MODEL 1
REMARK VINA RESULT:      -7.0      0.000      0.000
REMARK  2 active torsions:
REMARK  status: ('A' for Active; 'I' for Inactive)
REMARK    1  A    between atoms: C5_5  and  N6_21 
REMARK    2  A    between atoms: C18_14  and  N17_19 
ROOT
HETATM    1  O1  MIQ B 502      17.589  18.184   2.122  1.00142.91    -0.171 OA
HETATM    2  C2  MIQ B 502      16.322  18.444   1.596  1.00141.17     0.195 A 
HETATM    3  C3  MIQ B 502      15.111  19.057   2.369  1.00141.71     0.035 A 
HETATM    4  C4  MIQ B 502      14.921  19.521   3.763  1.00142.86     0.046 A 
HETATM    5  C5  MIQ B 502      13.672  20.045   4.181  1.00139.53     0.031 A 
HETATM    6  C12 MIQ B 502      12.570  20.129   3.233  1.00139.38     0.030 A 
HETATM    7  C13 MIQ B 502      12.752  19.685   1.895  1.00141.18     0.019 A 
HETATM    8  C14 MIQ B 502      14.066  19.138   1.462  1.00138.77     0.033 A 
HETATM    9  C15 MIQ B 502      14.633  18.573   0.118  1.00142.10     0.195 A 
HETATM   10  N17 MIQ B 502      15.889  18.238   0.364  1.00139.42    -0.288 N 
HETATM   11  O16 MIQ B 502      13.947  18.446  -1.091  1.00148.93    -0.171 OA
ENDROOT
BRANCH  10  12
HETATM   12  C18 MIQ B 502      16.732  17.656  -0.663  1.00139.82     0.187 C 
HETATM   13  C19 MIQ B 502      17.318  16.353  -0.106  1.00140.06     0.247 C 
HETATM   14  O25 MIQ B 502      16.593  15.555   0.373  1.00143.95    -0.271 OA
HETATM   15  N20 MIQ B 502      18.737  16.070  -0.155  1.00140.02    -0.296 N 
HETATM   16  H13 MIQ B 502      19.108  15.219   0.218  1.00142.77     0.171 HD
HETATM   17  C21 MIQ B 502      19.603  17.065  -0.735  1.00142.22     0.224 C 
HETATM   18  C22 MIQ B 502      19.203  18.514  -0.539  1.00139.52     0.106 C 
HETATM   19  O24 MIQ B 502      20.573  16.763  -1.339  1.00146.13    -0.273 OA
HETATM   20  C23 MIQ B 502      17.801  18.655  -1.103  1.00139.15     0.045 C 
ENDBRANCH  10  12
BRANCH   5  21
HETATM   21  N6  MIQ B 502      13.495  20.482   5.554  1.00140.95    -0.377 N 
HETATM   22  C7  MIQ B 502      12.381  19.944   6.316  1.00142.12     0.149 C 
HETATM   23  C8  MIQ B 502      11.934  20.897   7.417  1.00144.10     0.187 C 
HETATM   24  O9  MIQ B 502      12.997  21.386   8.179  1.00148.65    -0.388 OA
HETATM   25  C10 MIQ B 502      14.316  21.171   7.772  1.00147.44     0.187 C 
HETATM   26  C11 MIQ B 502      14.611  21.064   6.279  1.00144.08     0.149 C 
ENDBRANCH   5  21
TORSDOF 2
ENDMDL
MODEL 2
REMARK VINA RESULT:      -6.8      1.881      7.802
REMARK  2 active torsions:
REMARK  status: ('A' for Active; 'I' for Inactive)
REMARK    1  A    between atoms: C5_5  and  N6_21 
REMARK    2  A    between atoms: C18_14  and  N17_19 
ROOT
HETATM    1  O1  MIQ B 502      15.264  19.765   4.580  1.00142.91    -0.171 OA
HETATM    2  C2  MIQ B 502      14.695  19.512   3.330  1.00141.17     0.195 A 
HETATM    3  C3  MIQ B 502      15.442  18.966   2.071  1.00141.71     0.035 A 
HETATM    4  C4  MIQ B 502      16.847  18.572   1.810  1.00142.86     0.046 A 
HETATM    5  C5  MIQ B 502      17.233  18.099   0.531  1.00139.53     0.031 A 
HETATM    6  C12 MIQ B 502      16.242  17.999  -0.532  1.00139.38     0.030 A 
HETATM    7  C13 MIQ B 502      14.895  18.374  -0.282  1.00141.18     0.019 A 
HETATM    8  C14 MIQ B 502      14.495  18.869   1.064  1.00138.77     0.033 A 
HETATM    9  C15 MIQ B 502      13.153  19.357   1.702  1.00142.10     0.195 A 
HETATM   10  N17 MIQ B 502      13.438  19.671   2.955  1.00139.42    -0.288 N 
HETATM   11  O16 MIQ B 502      11.911  19.443   1.071  1.00148.93    -0.171 OA
ENDROOT
BRANCH  10  12
HETATM   12  C18 MIQ B 502      12.422  20.184   3.856  1.00139.82     0.187 C 
HETATM   13  C19 MIQ B 502      12.943  21.500   4.447  1.00140.06     0.247 C 
HETATM   14  O25 MIQ B 502      13.349  22.336   3.721  1.00143.95    -0.271 OA
HETATM   15  N20 MIQ B 502      12.943  21.749   5.874  1.00140.02    -0.296 N 
HETATM   16  H13 MIQ B 502      13.292  22.610   6.247  1.00142.77     0.171 HD
HETATM   17  C21 MIQ B 502      12.451  20.709   6.740  1.00142.22     0.224 C 
HETATM   18  C22 MIQ B 502      12.699  19.280   6.298  1.00139.52     0.106 C 
HETATM   19  O24 MIQ B 502      11.878  20.960   7.743  1.00146.13    -0.273 OA
HETATM   20  C23 MIQ B 502      12.080  19.141   4.919  1.00139.15     0.045 C 
ENDBRANCH  10  12
BRANCH   5  21
HETATM   21  N6  MIQ B 502      18.615  17.731   0.285  1.00140.95    -0.377 N 
HETATM   22  C7  MIQ B 502      18.929  16.967  -0.910  1.00142.12     0.149 C 
HETATM   23  C8  MIQ B 502      20.189  16.129  -0.734  1.00144.10     0.187 C 
HETATM   24  O9  MIQ B 502      21.252  16.853  -0.193  1.00148.65    -0.388 OA
HETATM   25  C10 MIQ B 502      21.045  18.133   0.327  1.00147.44     0.187 C 
HETATM   26  C11 MIQ B 502      19.687  18.461   0.940  1.00144.08     0.149 C 
ENDBRANCH   5  21
TORSDOF 2
ENDMDL
MODEL 3
REMARK VINA RESULT:      -6.6      2.002      3.145
REMARK  2 active torsions:
REMARK  status: ('A' for Active; 'I' for Inactive)
REMARK    1  A    between atoms: C5_5  and  N6_21 
REMARK    2  A    between atoms: C18_14  and  N17_19 
ROOT
HETATM    1  O1  MIQ B 502      15.017  17.808   1.282  1.00142.91    -0.171 OA
HETATM    2  C2  MIQ B 502      16.020  18.663   1.744  1.00141.17     0.195 A 
HETATM    3  C3  MIQ B 502      15.963  19.537   3.037  1.00141.71     0.035 A 
HETATM    4  C4  MIQ B 502      14.942  19.728   4.094  1.00142.86     0.046 A 
HETATM    5  C5  MIQ B 502      15.186  20.611   5.176  1.00139.53     0.031 A 
HETATM    6  C12 MIQ B 502      16.448  21.334   5.248  1.00139.38     0.030 A 
HETATM    7  C13 MIQ B 502      17.428  21.150   4.235  1.00141.18     0.019 A 
HETATM    8  C14 MIQ B 502      17.167  20.219   3.103  1.00138.77     0.033 A 
HETATM    9  C15 MIQ B 502      17.975  19.767   1.844  1.00142.10     0.195 A 
HETATM   10  N17 MIQ B 502      17.201  18.906   1.203  1.00139.42    -0.288 N 
HETATM   11  O16 MIQ B 502      19.253  20.190   1.474  1.00148.93    -0.171 OA
ENDROOT
BRANCH  10  12
HETATM   12  C18 MIQ B 502      17.625  18.284  -0.038  1.00139.82     0.187 C 
HETATM   13  C19 MIQ B 502      16.553  18.572  -1.096  1.00140.06     0.247 C 
HETATM   14  O25 MIQ B 502      16.191  19.683  -1.261  1.00143.95    -0.271 OA
HETATM   15  N20 MIQ B 502      15.975  17.518  -1.904  1.00140.02    -0.296 N 
HETATM   16  H13 MIQ B 502      15.271  17.719  -2.587  1.00142.77     0.171 HD
HETATM   17  C21 MIQ B 502      16.426  16.170  -1.676  1.00142.22     0.224 C 
HETATM   18  C22 MIQ B 502      16.801  15.808  -0.252  1.00139.52     0.106 C 
HETATM   19  O24 MIQ B 502      16.504  15.387  -2.558  1.00146.13    -0.273 OA
HETATM   20  C23 MIQ B 502      17.875  16.792   0.174  1.00139.15     0.045 C 
ENDBRANCH  10  12
BRANCH   5  21
HETATM   21  N6  MIQ B 502      14.171  20.800   6.196  1.00140.95    -0.377 N 
HETATM   22  C7  MIQ B 502      14.577  21.306   7.495  1.00142.12     0.149 C 
HETATM   23  C8  MIQ B 502      13.629  20.861   8.601  1.00144.10     0.187 C 
HETATM   24  O9  MIQ B 502      12.286  21.059   8.278  1.00148.65    -0.388 OA
HETATM   25  C10 MIQ B 502      11.915  21.408   6.977  1.00147.44     0.187 C 
HETATM   26  C11 MIQ B 502      12.773  20.915   5.816  1.00144.08     0.149 C 
ENDBRANCH   5  21
TORSDOF 2
ENDMDL
MODEL 4
REMARK VINA RESULT:      -6.5      1.975      8.163
REMARK  2 active torsions:
REMARK  status: ('A' for Active; 'I' for Inactive)
REMARK    1  A    between atoms: C5_5  and  N6_21 
REMARK    2  A    between atoms: C18_14  and  N17_19 
ROOT
HETATM    1  O1  MIQ B 502      14.912  20.506   5.855  1.00142.91    -0.171 OA
HETATM    2  C2  MIQ B 502      13.978  20.533   4.817  1.00141.17     0.195 A 
HETATM    3  C3  MIQ B 502      14.128  19.846   3.422  1.00141.71     0.035 A 
HETATM    4  C4  MIQ B 502      15.193  19.022   2.802  1.00142.86     0.046 A 
HETATM    5  C5  MIQ B 502      15.038  18.525   1.483  1.00139.53     0.031 A 
HETATM    6  C12 MIQ B 502      13.824  18.825   0.736  1.00139.38     0.030 A 
HETATM    7  C13 MIQ B 502      12.803  19.613   1.331  1.00141.18     0.019 A 
HETATM    8  C14 MIQ B 502      12.971  20.131   2.717  1.00138.77     0.033 A 
HETATM    9  C15 MIQ B 502      12.096  20.999   3.679  1.00142.10     0.195 A 
HETATM   10  N17 MIQ B 502      12.796  21.125   4.794  1.00139.42    -0.288 N 
HETATM   11  O16 MIQ B 502      10.835  21.533   3.409  1.00148.93    -0.171 OA
ENDROOT
BRANCH  10  12
HETATM   12  C18 MIQ B 502      12.295  21.892   5.920  1.00139.82     0.187 C 
HETATM   13  C19 MIQ B 502      13.358  22.936   6.284  1.00140.06     0.247 C 
HETATM   14  O25 MIQ B 502      13.796  23.632   5.438  1.00143.95    -0.271 OA
HETATM   15  N20 MIQ B 502      13.836  23.098   7.642  1.00140.02    -0.296 N 
HETATM   16  H13 MIQ B 502      14.534  23.779   7.866  1.00142.77     0.171 HD
HETATM   17  C21 MIQ B 502      13.293  22.231   8.656  1.00142.22     0.224 C 
HETATM   18  C22 MIQ B 502      12.930  20.823   8.225  1.00139.52     0.106 C 
HETATM   19  O24 MIQ B 502      13.135  22.602   9.767  1.00146.13    -0.273 OA
HETATM   20  C23 MIQ B 502      11.942  20.964   7.081  1.00139.15     0.045 C 
ENDBRANCH  10  12
BRANCH   5  21
HETATM   21  N6  MIQ B 502      16.095  17.732   0.883  1.00140.95    -0.377 N 
HETATM   22  C7  MIQ B 502      17.363  17.620   1.583  1.00142.12     0.149 C 
HETATM   23  C8  MIQ B 502      18.519  17.355   0.627  1.00144.10     0.187 C 
HETATM   24  O9  MIQ B 502      18.248  16.332  -0.283  1.00148.65    -0.388 OA
HETATM   25  C10 MIQ B 502      16.955  15.815  -0.402  1.00147.44     0.187 C 
HETATM   26  C11 MIQ B 502      15.772  16.737  -0.125  1.00144.08     0.149 C 
ENDBRANCH   5  21
TORSDOF 2
ENDMDL
MODEL 5
REMARK VINA RESULT:      -6.5      2.136      8.206
REMARK  2 active torsions:
REMARK  status: ('A' for Active; 'I' for Inactive)
REMARK    1  A    between atoms: C5_5  and  N6_21 
REMARK    2  A    between atoms: C18_14  and  N17_19 
ROOT
HETATM    1  O1  MIQ B 502      16.123  19.868   4.684  1.00142.91    -0.171 OA
HETATM    2  C2  MIQ B 502      14.879  19.961   4.056  1.00141.17     0.195 A 
HETATM    3  C3  MIQ B 502      14.503  19.369   2.661  1.00141.71     0.035 A 
HETATM    4  C4  MIQ B 502      15.255  18.591   1.648  1.00142.86     0.046 A 
HETATM    5  C5  MIQ B 502      14.625  18.182   0.445  1.00139.53     0.031 A 
HETATM    6  C12 MIQ B 502      13.231  18.528   0.206  1.00139.38     0.030 A 
HETATM    7  C13 MIQ B 502      12.509  19.272   1.178  1.00141.18     0.019 A 
HETATM    8  C14 MIQ B 502      13.175  19.697   2.440  1.00138.77     0.033 A 
HETATM    9  C15 MIQ B 502      12.724  20.497   3.705  1.00142.10     0.195 A 
HETATM   10  N17 MIQ B 502      13.781  20.551   4.499  1.00139.42    -0.288 N 
HETATM   11  O16 MIQ B 502      11.462  21.045   3.942  1.00148.93    -0.171 OA
ENDROOT
BRANCH  10  12
HETATM   12  C18 MIQ B 502      13.736  21.240   5.775  1.00139.82     0.187 C 
HETATM   13  C19 MIQ B 502      12.644  20.578   6.625  1.00140.06     0.247 C 
HETATM   14  O25 MIQ B 502      12.648  19.406   6.757  1.00143.95    -0.271 OA
HETATM   15  N20 MIQ B 502      11.608  21.354   7.276  1.00140.02    -0.296 N 
HETATM   16  H13 MIQ B 502      10.897  20.909   7.823  1.00142.77     0.171 HD
HETATM   17  C21 MIQ B 502      11.618  22.782   7.091  1.00142.22     0.224 C 
HETATM   18  C22 MIQ B 502      12.109  23.292   5.750  1.00139.52     0.106 C 
HETATM   19  O24 MIQ B 502      11.265  23.518   7.946  1.00146.13    -0.273 OA
HETATM   20  C23 MIQ B 502      13.509  22.736   5.564  1.00139.15     0.045 C 
ENDBRANCH  10  12
BRANCH   5  21
HETATM   21  N6  MIQ B 502      15.378  17.434  -0.545  1.00140.95    -0.377 N 
HETATM   22  C7  MIQ B 502      16.123  16.265  -0.112  1.00142.12     0.149 C 
HETATM   23  C8  MIQ B 502      17.313  15.981  -1.020  1.00144.10     0.187 C 
HETATM   24  O9  MIQ B 502      16.982  16.010  -2.376  1.00148.65    -0.388 OA
HETATM   25  C10 MIQ B 502      15.734  16.485  -2.789  1.00147.44     0.187 C 
HETATM   26  C11 MIQ B 502      15.051  17.562  -1.954  1.00144.08     0.149 C 
ENDBRANCH   5  21
TORSDOF 2
ENDMDL
MODEL 6
REMARK VINA RESULT:      -6.4      2.029      8.377
REMARK  2 active torsions:
REMARK  status: ('A' for Active; 'I' for Inactive)
REMARK    1  A    between atoms: C5_5  and  N6_21 
REMARK    2  A    between atoms: C18_14  and  N17_19 
ROOT
HETATM    1  O1  MIQ B 502      12.230  19.468   1.446  1.00142.91    -0.171 OA
HETATM    2  C2  MIQ B 502      13.391  19.423   2.220  1.00141.17     0.195 A 
HETATM    3  C3  MIQ B 502      14.752  18.777   1.805  1.00141.71     0.035 A 
HETATM    4  C4  MIQ B 502      15.217  18.077   0.584  1.00142.86     0.046 A 
HETATM    5  C5  MIQ B 502      16.546  17.591   0.499  1.00139.53     0.031 A 
HETATM    6  C12 MIQ B 502      17.458  17.782   1.618  1.00139.38     0.030 A 
HETATM    7  C13 MIQ B 502      17.013  18.455   2.787  1.00141.18     0.019 A 
HETATM    8  C14 MIQ B 502      15.617  18.965   2.870  1.00138.77     0.033 A 
HETATM    9  C15 MIQ B 502      14.789  19.732   3.952  1.00142.10     0.195 A 
HETATM   10  N17 MIQ B 502      13.585  19.908   3.434  1.00139.42    -0.288 N 
HETATM   11  O16 MIQ B 502      15.235  20.142   5.210  1.00148.93    -0.171 OA
ENDROOT
BRANCH  10  12
HETATM   12  C18 MIQ B 502      12.533  20.579   4.174  1.00139.82     0.187 C 
HETATM   13  C19 MIQ B 502      13.072  21.943   4.621  1.00140.06     0.247 C 
HETATM   14  O25 MIQ B 502      13.572  22.654   3.823  1.00143.95    -0.271 OA
HETATM   15  N20 MIQ B 502      12.981  22.388   5.996  1.00140.02    -0.296 N 
HETATM   16  H13 MIQ B 502      13.343  23.278   6.276  1.00142.77     0.171 HD
HETATM   17  C21 MIQ B 502      12.377  21.498   6.954  1.00142.22     0.224 C 
HETATM   18  C22 MIQ B 502      12.586  20.013   6.731  1.00139.52     0.106 C 
HETATM   19  O24 MIQ B 502      11.745  21.908   7.865  1.00146.13    -0.273 OA
HETATM   20  C23 MIQ B 502      12.063  19.708   5.339  1.00139.15     0.045 C 
ENDBRANCH  10  12
BRANCH   5  21
HETATM   21  N6  MIQ B 502      16.983  16.893  -0.696  1.00140.95    -0.377 N 
HETATM   22  C7  MIQ B 502      18.333  16.358  -0.733  1.00142.12     0.149 C 
HETATM   23  C8  MIQ B 502      18.865  16.255  -2.157  1.00144.10     0.187 C 
HETATM   24  O9  MIQ B 502      17.960  15.652  -3.033  1.00148.65    -0.388 OA
HETATM   25  C10 MIQ B 502      16.643  15.412  -2.635  1.00147.44     0.187 C 
HETATM   26  C11 MIQ B 502      16.002  16.357  -1.624  1.00144.08     0.149 C 
ENDBRANCH   5  21
TORSDOF 2
ENDMDL
MODEL 7
REMARK VINA RESULT:      -6.4     17.109     19.506
REMARK  2 active torsions:
REMARK  status: ('A' for Active; 'I' for Inactive)
REMARK    1  A    between atoms: C5_5  and  N6_21 
REMARK    2  A    between atoms: C18_14  and  N17_19 
ROOT
HETATM    1  O1  MIQ B 502      16.199  -0.562  -3.513  1.00142.91    -0.171 OA
HETATM    2  C2  MIQ B 502      16.582   0.597  -2.834  1.00141.17     0.195 A 
HETATM    3  C3  MIQ B 502      17.218   0.663  -1.409  1.00141.71     0.035 A 
HETATM    4  C4  MIQ B 502      17.589  -0.367  -0.410  1.00142.86     0.046 A 
HETATM    5  C5  MIQ B 502      18.165   0.012   0.829  1.00139.53     0.031 A 
HETATM    6  C12 MIQ B 502      18.393   1.420   1.120  1.00139.38     0.030 A 
HETATM    7  C13 MIQ B 502      18.037   2.408   0.162  1.00141.18     0.019 A 
HETATM    8  C14 MIQ B 502      17.435   2.004  -1.138  1.00138.77     0.033 A 
HETATM    9  C15 MIQ B 502      16.933   2.774  -2.403  1.00142.10     0.195 A 
HETATM   10  N17 MIQ B 502      16.497   1.851  -3.243  1.00139.42    -0.288 N 
HETATM   11  O16 MIQ B 502      16.943   4.157  -2.598  1.00148.93    -0.171 OA
ENDROOT
BRANCH  10  12
HETATM   12  C18 MIQ B 502      15.936   2.206  -4.534  1.00139.82     0.187 C 
HETATM   13  C19 MIQ B 502      14.574   1.512  -4.659  1.00140.06     0.247 C 
HETATM   14  O25 MIQ B 502      13.786   1.629  -3.789  1.00143.95    -0.271 OA
HETATM   15  N20 MIQ B 502      14.224   0.719  -5.819  1.00140.02    -0.296 N 
HETATM   16  H13 MIQ B 502      13.334   0.266  -5.886  1.00142.77     0.171 HD
HETATM   17  C21 MIQ B 502      15.207   0.582  -6.863  1.00142.22     0.224 C 
HETATM   18  C22 MIQ B 502      16.660   0.553  -6.431  1.00139.52     0.106 C 
HETATM   19  O24 MIQ B 502      14.894   0.501  -8.000  1.00146.13    -0.273 OA
HETATM   20  C23 MIQ B 502      16.905   1.834  -5.655  1.00139.15     0.045 C 
ENDBRANCH  10  12
BRANCH   5  21
HETATM   21  N6  MIQ B 502      18.511  -1.006   1.804  1.00140.95    -0.377 N 
HETATM   22  C7  MIQ B 502      17.750  -2.244   1.816  1.00142.12     0.149 C 
HETATM   23  C8  MIQ B 502      17.748  -2.898   3.192  1.00144.10     0.187 C 
HETATM   24  O9  MIQ B 502      19.022  -2.975   3.759  1.00148.65    -0.388 OA
HETATM   25  C10 MIQ B 502      20.097  -2.296   3.179  1.00147.44     0.187 C 
HETATM   26  C11 MIQ B 502      19.821  -0.995   2.432  1.00144.08     0.149 C 
ENDBRANCH   5  21
TORSDOF 2
ENDMDL
MODEL 8
REMARK VINA RESULT:      -6.4      2.372      8.588
REMARK  2 active torsions:
REMARK  status: ('A' for Active; 'I' for Inactive)
REMARK    1  A    between atoms: C5_5  and  N6_21 
REMARK    2  A    between atoms: C18_14  and  N17_19 
ROOT
HETATM    1  O1  MIQ B 502      11.581  20.866   3.697  1.00142.91    -0.171 OA
HETATM    2  C2  MIQ B 502      12.884  20.678   4.165  1.00141.17     0.195 A 
HETATM    3  C3  MIQ B 502      14.029  19.916   3.424  1.00141.71     0.035 A 
HETATM    4  C4  MIQ B 502      14.110  19.217   2.119  1.00142.86     0.046 A 
HETATM    5  C5  MIQ B 502      15.321  18.605   1.709  1.00139.53     0.031 A 
HETATM    6  C12 MIQ B 502      16.490  18.664   2.574  1.00139.38     0.030 A 
HETATM    7  C13 MIQ B 502      16.413  19.335   3.824  1.00141.18     0.019 A 
HETATM    8  C14 MIQ B 502      15.140  19.978   4.249  1.00138.77     0.033 A 
HETATM    9  C15 MIQ B 502      14.682  20.783   5.509  1.00142.10     0.195 A 
HETATM   10  N17 MIQ B 502      13.414  21.097   5.301  1.00139.42    -0.288 N 
HETATM   11  O16 MIQ B 502      15.458  21.102   6.625  1.00148.93    -0.171 OA
ENDROOT
BRANCH  10  12
HETATM   12  C18 MIQ B 502      12.647  21.842   6.282  1.00139.82     0.187 C 
HETATM   13  C19 MIQ B 502      13.422  23.126   6.604  1.00140.06     0.247 C 
HETATM   14  O25 MIQ B 502      13.790  23.813   5.718  1.00143.95    -0.271 OA
HETATM   15  N20 MIQ B 502      13.709  23.524   7.966  1.00140.02    -0.296 N 
HETATM   16  H13 MIQ B 502      14.221  24.361   8.163  1.00142.77     0.171 HD
HETATM   17  C21 MIQ B 502      13.259  22.663   9.030  1.00142.22     0.224 C 
HETATM   18  C22 MIQ B 502      13.248  21.174   8.742  1.00139.52     0.106 C 
HETATM   19  O24 MIQ B 502      12.910  23.099  10.072  1.00146.13    -0.273 OA
HETATM   20  C23 MIQ B 502      12.378  20.978   7.514  1.00139.15     0.045 C 
ENDBRANCH  10  12
BRANCH   5  21
HETATM   21  N6  MIQ B 502      15.382  17.911   0.435  1.00140.95    -0.377 N 
HETATM   22  C7  MIQ B 502      15.134  18.668  -0.780  1.00142.12     0.149 C 
HETATM   23  C8  MIQ B 502      14.599  17.785  -1.901  1.00144.10     0.187 C 
HETATM   24  O9  MIQ B 502      15.339  16.612  -2.068  1.00148.65    -0.388 OA
HETATM   25  C10 MIQ B 502      16.301  16.242  -1.125  1.00147.44     0.187 C 
HETATM   26  C11 MIQ B 502      16.091  16.648   0.330  1.00144.08     0.149 C 
ENDBRANCH   5  21
TORSDOF 2
ENDMDL
MODEL 9
REMARK VINA RESULT:      -6.4     20.871     23.912
REMARK  2 active torsions:
REMARK  status: ('A' for Active; 'I' for Inactive)
REMARK    1  A    between atoms: C5_5  and  N6_21 
REMARK    2  A    between atoms: C18_14  and  N17_19 
ROOT
HETATM    1  O1  MIQ B 502      15.828  -5.140   4.657  1.00142.91    -0.171 OA
HETATM    2  C2  MIQ B 502      17.098  -4.624   4.924  1.00141.17     0.195 A 
HETATM    3  C3  MIQ B 502      17.837  -3.522   4.100  1.00141.71     0.035 A 
HETATM    4  C4  MIQ B 502      17.478  -2.737   2.895  1.00142.86     0.046 A 
HETATM    5  C5  MIQ B 502      18.381  -1.780   2.367  1.00139.53     0.031 A 
HETATM    6  C12 MIQ B 502      19.668  -1.568   3.014  1.00139.38     0.030 A 
HETATM    7  C13 MIQ B 502      20.013  -2.319   4.170  1.00141.18     0.019 A 
HETATM    8  C14 MIQ B 502      19.059  -3.321   4.721  1.00138.77     0.033 A 
HETATM    9  C15 MIQ B 502      19.079  -4.304   5.937  1.00142.10     0.195 A 
HETATM   10  N17 MIQ B 502      17.922  -4.945   5.906  1.00139.42    -0.288 N 
HETATM   11  O16 MIQ B 502      20.111  -4.468   6.862  1.00148.93    -0.171 OA
ENDROOT
BRANCH  10  12
HETATM   12  C18 MIQ B 502      17.594  -5.961   6.889  1.00139.82     0.187 C 
HETATM   13  C19 MIQ B 502      17.121  -7.209   6.132  1.00140.06     0.247 C 
HETATM   14  O25 MIQ B 502      17.788  -7.640   5.259  1.00143.95    -0.271 OA
HETATM   15  N20 MIQ B 502      15.880  -7.878   6.463  1.00140.02    -0.296 N 
HETATM   16  H13 MIQ B 502      15.579  -8.688   5.957  1.00142.77     0.171 HD
HETATM   17  C21 MIQ B 502      15.078  -7.327   7.525  1.00142.22     0.224 C 
HETATM   18  C22 MIQ B 502      15.103  -5.819   7.684  1.00139.52     0.106 C 
HETATM   19  O24 MIQ B 502      14.439  -8.018   8.238  1.00146.13    -0.273 OA
HETATM   20  C23 MIQ B 502      16.557  -5.429   7.877  1.00139.15     0.045 C 
ENDBRANCH  10  12
BRANCH   5  21
HETATM   21  N6  MIQ B 502      18.022  -1.030   1.178  1.00140.95    -0.377 N 
HETATM   22  C7  MIQ B 502      17.888  -1.744  -0.080  1.00142.12     0.149 C 
HETATM   23  C8  MIQ B 502      18.155  -0.841  -1.278  1.00144.10     0.187 C 
HETATM   24  O9  MIQ B 502      17.470   0.374  -1.205  1.00148.65    -0.388 OA
HETATM   25  C10 MIQ B 502      16.821   0.751  -0.027  1.00147.44     0.187 C 
HETATM   26  C11 MIQ B 502      17.389   0.271   1.305  1.00144.08     0.149 C 
ENDBRANCH   5  21
TORSDOF 2
ENDMDL
