MODEL 1
REMARK VINA RESULT:      -7.2      0.000      0.000
REMARK  2 active torsions:
REMARK  status: ('A' for Active; 'I' for Inactive)
REMARK    1  A    between atoms: C5_5  and  N6_21 
REMARK    2  A    between atoms: C18_14  and  N17_19 
ROOT
HETATM    1  O1  MIQ B 502      -9.878 -12.122   1.132  1.00142.91    -0.171 OA
HETATM    2  C2  MIQ B 502      -9.546 -13.087   2.086  1.00141.17     0.195 A 
HETATM    3  C3  MIQ B 502      -8.309 -14.039   2.041  1.00141.71     0.035 A 
HETATM    4  C4  MIQ B 502      -7.195 -14.219   1.080  1.00142.86     0.046 A 
HETATM    5  C5  MIQ B 502      -6.192 -15.192   1.319  1.00139.53     0.031 A 
HETATM    6  C12 MIQ B 502      -6.257 -16.019   2.515  1.00139.38     0.030 A 
HETATM    7  C13 MIQ B 502      -7.325 -15.846   3.437  1.00141.18     0.019 A 
HETATM    8  C14 MIQ B 502      -8.374 -14.822   3.183  1.00138.77     0.033 A 
HETATM    9  C15 MIQ B 502      -9.658 -14.351   3.941  1.00142.10     0.195 A 
HETATM   10  N17 MIQ B 502     -10.185 -13.388   3.203  1.00139.42    -0.288 N 
HETATM   11  O16 MIQ B 502     -10.146 -14.851   5.149  1.00148.93    -0.171 OA
ENDROOT
BRANCH  10  12
HETATM   12  C18 MIQ B 502     -11.411 -12.719   3.595  1.00139.82     0.187 C 
HETATM   13  C19 MIQ B 502     -12.403 -12.839   2.431  1.00140.06     0.247 C 
HETATM   14  O25 MIQ B 502     -12.612 -13.900   1.960  1.00143.95    -0.271 OA
HETATM   15  N20 MIQ B 502     -13.096 -11.685   1.896  1.00140.02    -0.296 N 
HETATM   16  H13 MIQ B 502     -13.736 -11.776   1.132  1.00142.77     0.171 HD
HETATM   17  C21 MIQ B 502     -12.817 -10.399   2.481  1.00142.22     0.224 C 
HETATM   18  C22 MIQ B 502     -11.404 -10.172   2.984  1.00139.52     0.106 C 
HETATM   19  O24 MIQ B 502     -13.650  -9.566   2.568  1.00146.13    -0.273 OA
HETATM   20  C23 MIQ B 502     -11.124 -11.272   3.992  1.00139.15     0.045 C 
ENDBRANCH  10  12
BRANCH   5  21
HETATM   21  N6  MIQ B 502      -5.114 -15.367   0.362  1.00140.95    -0.377 N 
HETATM   22  C7  MIQ B 502      -5.020 -14.442  -0.755  1.00142.12     0.149 C 
HETATM   23  C8  MIQ B 502      -4.327 -15.071  -1.957  1.00144.10     0.187 C 
HETATM   24  O9  MIQ B 502      -3.139 -15.722  -1.620  1.00148.65    -0.388 OA
HETATM   25  C10 MIQ B 502      -2.806 -15.939  -0.280  1.00147.44     0.187 C 
HETATM   26  C11 MIQ B 502      -3.933 -16.127   0.730  1.00144.08     0.149 C 
ENDBRANCH   5  21
TORSDOF 2
ENDMDL
MODEL 2
REMARK VINA RESULT:      -7.0      0.306      1.020
REMARK  2 active torsions:
REMARK  status: ('A' for Active; 'I' for Inactive)
REMARK    1  A    between atoms: C5_5  and  N6_21 
REMARK    2  A    between atoms: C18_14  and  N17_19 
ROOT
HETATM    1  O1  MIQ B 502      -9.971 -11.903   1.128  1.00142.91    -0.171 OA
HETATM    2  C2  MIQ B 502      -9.673 -12.883   2.077  1.00141.17     0.195 A 
HETATM    3  C3  MIQ B 502      -8.458 -13.864   2.040  1.00141.71     0.035 A 
HETATM    4  C4  MIQ B 502      -7.336 -14.060   1.091  1.00142.86     0.046 A 
HETATM    5  C5  MIQ B 502      -6.359 -15.059   1.334  1.00139.53     0.031 A 
HETATM    6  C12 MIQ B 502      -6.459 -15.894   2.522  1.00139.38     0.030 A 
HETATM    7  C13 MIQ B 502      -7.534 -15.705   3.432  1.00141.18     0.019 A 
HETATM    8  C14 MIQ B 502      -8.556 -14.654   3.173  1.00138.77     0.033 A 
HETATM    9  C15 MIQ B 502      -9.838 -14.160   3.920  1.00142.10     0.195 A 
HETATM   10  N17 MIQ B 502     -10.333 -13.179   3.184  1.00139.42    -0.288 N 
HETATM   11  O16 MIQ B 502     -10.352 -14.659   5.117  1.00148.93    -0.171 OA
ENDROOT
BRANCH  10  12
HETATM   12  C18 MIQ B 502     -11.549 -12.484   3.567  1.00139.82     0.187 C 
HETATM   13  C19 MIQ B 502     -12.521 -12.555   2.383  1.00140.06     0.247 C 
HETATM   14  O25 MIQ B 502     -12.749 -13.601   1.886  1.00143.95    -0.271 OA
HETATM   15  N20 MIQ B 502     -13.173 -11.373   1.858  1.00140.02    -0.296 N 
HETATM   16  H13 MIQ B 502     -13.801 -11.432   1.080  1.00142.77     0.171 HD
HETATM   17  C21 MIQ B 502     -12.871 -10.107   2.474  1.00142.22     0.224 C 
HETATM   18  C22 MIQ B 502     -11.462  -9.928   3.007  1.00139.52     0.106 C 
HETATM   19  O24 MIQ B 502     -13.683  -9.253   2.562  1.00146.13    -0.273 OA
HETATM   20  C23 MIQ B 502     -11.230 -11.054   3.998  1.00139.15     0.045 C 
ENDBRANCH  10  12
BRANCH   5  21
HETATM   21  N6  MIQ B 502      -5.274 -15.250   0.389  1.00140.95    -0.377 N 
HETATM   22  C7  MIQ B 502      -4.498 -16.476   0.462  1.00142.12     0.149 C 
HETATM   23  C8  MIQ B 502      -3.086 -16.288  -0.079  1.00144.10     0.187 C 
HETATM   24  O9  MIQ B 502      -3.060 -15.638  -1.315  1.00148.65    -0.388 OA
HETATM   25  C10 MIQ B 502      -4.216 -15.043  -1.826  1.00147.44     0.187 C 
HETATM   26  C11 MIQ B 502      -5.245 -14.487  -0.847  1.00144.08     0.149 C 
ENDBRANCH   5  21
TORSDOF 2
ENDMDL
MODEL 3
REMARK VINA RESULT:      -6.8      2.288      7.751
REMARK  2 active torsions:
REMARK  status: ('A' for Active; 'I' for Inactive)
REMARK    1  A    between atoms: C5_5  and  N6_21 
REMARK    2  A    between atoms: C18_14  and  N17_19 
ROOT
HETATM    1  O1  MIQ B 502      -7.226 -14.268   1.613  1.00142.91    -0.171 OA
HETATM    2  C2  MIQ B 502      -8.298 -14.944   2.200  1.00141.17     0.195 A 
HETATM    3  C3  MIQ B 502      -9.756 -14.407   2.350  1.00141.71     0.035 A 
HETATM    4  C4  MIQ B 502     -10.421 -13.140   1.960  1.00142.86     0.046 A 
HETATM    5  C5  MIQ B 502     -11.797 -12.938   2.236  1.00139.53     0.031 A 
HETATM    6  C12 MIQ B 502     -12.560 -13.982   2.906  1.00139.38     0.030 A 
HETATM    7  C13 MIQ B 502     -11.924 -15.196   3.278  1.00141.18     0.019 A 
HETATM    8  C14 MIQ B 502     -10.479 -15.404   2.984  1.00138.77     0.033 A 
HETATM    9  C15 MIQ B 502      -9.464 -16.567   3.228  1.00142.10     0.195 A 
HETATM   10  N17 MIQ B 502      -8.309 -16.153   2.734  1.00139.42    -0.288 N 
HETATM   11  O16 MIQ B 502      -9.728 -17.791   3.845  1.00148.93    -0.171 OA
ENDROOT
BRANCH  10  12
HETATM   12  C18 MIQ B 502      -7.117 -16.979   2.800  1.00139.82     0.187 C 
HETATM   13  C19 MIQ B 502      -6.004 -16.144   3.444  1.00140.06     0.247 C 
HETATM   14  O25 MIQ B 502      -6.215 -15.594   4.466  1.00143.95    -0.271 OA
HETATM   15  N20 MIQ B 502      -4.696 -16.016   2.836  1.00140.02    -0.296 N 
HETATM   16  H13 MIQ B 502      -3.980 -15.463   3.264  1.00142.77     0.171 HD
HETATM   17  C21 MIQ B 502      -4.466 -16.689   1.583  1.00142.22     0.224 C 
HETATM   18  C22 MIQ B 502      -5.648 -16.795   0.640  1.00139.52     0.106 C 
HETATM   19  O24 MIQ B 502      -3.408 -17.139   1.309  1.00146.13    -0.273 OA
HETATM   20  C23 MIQ B 502      -6.752 -17.497   1.409  1.00139.15     0.045 C 
ENDBRANCH  10  12
BRANCH   5  21
HETATM   21  N6  MIQ B 502     -12.431 -11.687   1.862  1.00140.95    -0.377 N 
HETATM   22  C7  MIQ B 502     -11.591 -10.588   1.419  1.00142.12     0.149 C 
HETATM   23  C8  MIQ B 502     -12.240  -9.235   1.681  1.00144.10     0.187 C 
HETATM   24  O9  MIQ B 502     -13.569  -9.179   1.257  1.00148.65    -0.388 OA
HETATM   25  C10 MIQ B 502     -14.236 -10.342   0.863  1.00147.44     0.187 C 
HETATM   26  C11 MIQ B 502     -13.840 -11.665   1.511  1.00144.08     0.149 C 
ENDBRANCH   5  21
TORSDOF 2
ENDMDL
MODEL 4
REMARK VINA RESULT:      -6.6      2.351      3.343
REMARK  2 active torsions:
REMARK  status: ('A' for Active; 'I' for Inactive)
REMARK    1  A    between atoms: C5_5  and  N6_21 
REMARK    2  A    between atoms: C18_14  and  N17_19 
ROOT
HETATM    1  O1  MIQ B 502     -12.007 -13.856   4.545  1.00142.91    -0.171 OA
HETATM    2  C2  MIQ B 502     -11.374 -13.225   3.471  1.00141.17     0.195 A 
HETATM    3  C3  MIQ B 502     -10.000 -13.626   2.846  1.00141.71     0.035 A 
HETATM    4  C4  MIQ B 502      -9.016 -14.693   3.146  1.00142.86     0.046 A 
HETATM    5  C5  MIQ B 502      -7.828 -14.809   2.381  1.00139.53     0.031 A 
HETATM    6  C12 MIQ B 502      -7.574 -13.873   1.295  1.00139.38     0.030 A 
HETATM    7  C13 MIQ B 502      -8.517 -12.850   1.006  1.00141.18     0.019 A 
HETATM    8  C14 MIQ B 502      -9.764 -12.736   1.811  1.00138.77     0.033 A 
HETATM    9  C15 MIQ B 502     -11.000 -11.777   1.794  1.00142.10     0.195 A 
HETATM   10  N17 MIQ B 502     -11.793 -12.186   2.770  1.00139.42    -0.288 N 
HETATM   11  O16 MIQ B 502     -11.215 -10.707   0.924  1.00148.93    -0.171 OA
ENDROOT
BRANCH  10  12
HETATM   12  C18 MIQ B 502     -13.044 -11.511   3.062  1.00139.82     0.187 C 
HETATM   13  C19 MIQ B 502     -13.879 -11.497   1.776  1.00140.06     0.247 C 
HETATM   14  O25 MIQ B 502     -14.050 -12.506   1.189  1.00143.95    -0.271 OA
HETATM   15  N20 MIQ B 502     -14.471 -10.279   1.263  1.00140.02    -0.296 N 
HETATM   16  H13 MIQ B 502     -15.009 -10.282   0.419  1.00142.77     0.171 HD
HETATM   17  C21 MIQ B 502     -14.240  -9.058   1.992  1.00142.22     0.224 C 
HETATM   18  C22 MIQ B 502     -12.900  -8.924   2.688  1.00139.52     0.106 C 
HETATM   19  O24 MIQ B 502     -15.058  -8.207   2.047  1.00146.13    -0.273 OA
HETATM   20  C23 MIQ B 502     -12.777 -10.115   3.621  1.00139.15     0.045 C 
ENDBRANCH  10  12
BRANCH   5  21
HETATM   21  N6  MIQ B 502      -6.866 -15.850   2.695  1.00140.95    -0.377 N 
HETATM   22  C7  MIQ B 502      -6.345 -16.664   1.611  1.00142.12     0.149 C 
HETATM   23  C8  MIQ B 502      -5.906 -18.040   2.094  1.00144.10     0.187 C 
HETATM   24  O9  MIQ B 502      -5.106 -17.986   3.237  1.00148.65    -0.388 OA
HETATM   25  C10 MIQ B 502      -4.962 -16.789   3.943  1.00147.44     0.187 C 
HETATM   26  C11 MIQ B 502      -6.119 -15.795   3.940  1.00144.08     0.149 C 
ENDBRANCH   5  21
TORSDOF 2
ENDMDL
MODEL 5
REMARK VINA RESULT:      -6.5      2.738      8.521
REMARK  2 active torsions:
REMARK  status: ('A' for Active; 'I' for Inactive)
REMARK    1  A    between atoms: C5_5  and  N6_21 
REMARK    2  A    between atoms: C18_14  and  N17_19 
ROOT
HETATM    1  O1  MIQ B 502      -4.469 -15.321   1.447  1.00142.91    -0.171 OA
HETATM    2  C2  MIQ B 502      -5.298 -16.422   1.669  1.00141.17     0.195 A 
HETATM    3  C3  MIQ B 502      -6.839 -16.380   1.926  1.00141.71     0.035 A 
HETATM    4  C4  MIQ B 502      -7.829 -15.280   2.007  1.00142.86     0.046 A 
HETATM    5  C5  MIQ B 502      -9.195 -15.563   2.257  1.00139.53     0.031 A 
HETATM    6  C12 MIQ B 502      -9.627 -16.941   2.435  1.00139.38     0.030 A 
HETATM    7  C13 MIQ B 502      -8.679 -17.997   2.357  1.00141.18     0.019 A 
HETATM    8  C14 MIQ B 502      -7.246 -17.694   2.091  1.00138.77     0.033 A 
HETATM    9  C15 MIQ B 502      -5.951 -18.557   1.936  1.00142.10     0.195 A 
HETATM   10  N17 MIQ B 502      -4.968 -17.702   1.705  1.00139.42    -0.288 N 
HETATM   11  O16 MIQ B 502      -5.857 -19.947   2.026  1.00148.93    -0.171 OA
ENDROOT
BRANCH  10  12
HETATM   12  C18 MIQ B 502      -3.601 -18.152   1.522  1.00139.82     0.187 C 
HETATM   13  C19 MIQ B 502      -2.733 -17.450   2.574  1.00140.06     0.247 C 
HETATM   14  O25 MIQ B 502      -3.061 -17.485   3.707  1.00143.95    -0.271 OA
HETATM   15  N20 MIQ B 502      -1.517 -16.748   2.217  1.00140.02    -0.296 N 
HETATM   16  H13 MIQ B 502      -0.963 -16.289   2.913  1.00142.77     0.171 HD
HETATM   17  C21 MIQ B 502      -1.144 -16.711   0.827  1.00142.22     0.224 C 
HETATM   18  C22 MIQ B 502      -2.275 -16.669  -0.182  1.00139.52     0.106 C 
HETATM   19  O24 MIQ B 502      -0.011 -16.718   0.491  1.00146.13    -0.273 OA
HETATM   20  C23 MIQ B 502      -3.140 -17.886   0.090  1.00139.15     0.045 C 
ENDBRANCH  10  12
BRANCH   5  21
HETATM   21  N6  MIQ B 502     -10.151 -14.474   2.349  1.00140.95    -0.377 N 
HETATM   22  C7  MIQ B 502      -9.806 -13.195   1.754  1.00142.12     0.149 C 
HETATM   23  C8  MIQ B 502     -10.522 -12.037   2.438  1.00144.10     0.187 C 
HETATM   24  O9  MIQ B 502     -11.889 -12.268   2.607  1.00148.65    -0.388 OA
HETATM   25  C10 MIQ B 502     -12.428 -13.534   2.368  1.00147.44     0.187 C 
HETATM   26  C11 MIQ B 502     -11.551 -14.758   2.611  1.00144.08     0.149 C 
ENDBRANCH   5  21
TORSDOF 2
ENDMDL
MODEL 6
REMARK VINA RESULT:      -6.5      3.083      8.252
REMARK  2 active torsions:
REMARK  status: ('A' for Active; 'I' for Inactive)
REMARK    1  A    between atoms: C5_5  and  N6_21 
REMARK    2  A    between atoms: C18_14  and  N17_19 
ROOT
HETATM    1  O1  MIQ B 502      -6.544 -15.180   2.576  1.00142.91    -0.171 OA
HETATM    2  C2  MIQ B 502      -7.303 -16.342   2.425  1.00141.17     0.195 A 
HETATM    3  C3  MIQ B 502      -8.861 -16.440   2.478  1.00141.71     0.035 A 
HETATM    4  C4  MIQ B 502      -9.938 -15.442   2.682  1.00142.86     0.046 A 
HETATM    5  C5  MIQ B 502     -11.298 -15.843   2.677  1.00139.53     0.031 A 
HETATM    6  C12 MIQ B 502     -11.637 -17.244   2.471  1.00139.38     0.030 A 
HETATM    7  C13 MIQ B 502     -10.605 -18.201   2.275  1.00141.18     0.019 A 
HETATM    8  C14 MIQ B 502      -9.179 -17.773   2.278  1.00138.77     0.033 A 
HETATM    9  C15 MIQ B 502      -7.811 -18.508   2.098  1.00142.10     0.195 A 
HETATM   10  N17 MIQ B 502      -6.879 -17.575   2.204  1.00139.42    -0.288 N 
HETATM   11  O16 MIQ B 502      -7.618 -19.872   1.874  1.00148.93    -0.171 OA
ENDROOT
BRANCH  10  12
HETATM   12  C18 MIQ B 502      -5.468 -17.899   2.104  1.00139.82     0.187 C 
HETATM   13  C19 MIQ B 502      -4.771 -17.346   3.353  1.00140.06     0.247 C 
HETATM   14  O25 MIQ B 502      -5.208 -17.604   4.418  1.00143.95    -0.271 OA
HETATM   15  N20 MIQ B 502      -3.586 -16.518   3.263  1.00140.02    -0.296 N 
HETATM   16  H13 MIQ B 502      -3.144 -16.158   4.086  1.00142.77     0.171 HD
HETATM   17  C21 MIQ B 502      -3.078 -16.208   1.952  1.00142.22     0.224 C 
HETATM   18  C22 MIQ B 502      -4.102 -16.055   0.843  1.00139.52     0.106 C 
HETATM   19  O24 MIQ B 502      -1.920 -16.084   1.751  1.00146.13    -0.273 OA
HETATM   20  C23 MIQ B 502      -4.888 -17.352   0.800  1.00139.15     0.045 C 
ENDBRANCH  10  12
BRANCH   5  21
HETATM   21  N6  MIQ B 502     -12.342 -14.858   2.893  1.00140.95    -0.377 N 
HETATM   22  C7  MIQ B 502     -12.245 -13.582   2.204  1.00142.12     0.149 C 
HETATM   23  C8  MIQ B 502     -12.963 -12.472   2.961  1.00144.10     0.187 C 
HETATM   24  O9  MIQ B 502     -14.249 -12.835   3.368  1.00148.65    -0.388 OA
HETATM   25  C10 MIQ B 502     -14.674 -14.162   3.267  1.00147.44     0.187 C 
HETATM   26  C11 MIQ B 502     -13.638 -15.273   3.400  1.00144.08     0.149 C 
ENDBRANCH   5  21
TORSDOF 2
ENDMDL
MODEL 7
REMARK VINA RESULT:      -6.3      2.570      4.762
REMARK  2 active torsions:
REMARK  status: ('A' for Active; 'I' for Inactive)
REMARK    1  A    between atoms: C5_5  and  N6_21 
REMARK    2  A    between atoms: C18_14  and  N17_19 
ROOT
HETATM    1  O1  MIQ B 502     -10.926  -9.780   0.204  1.00142.91    -0.171 OA
HETATM    2  C2  MIQ B 502     -11.741 -10.657   0.923  1.00141.17     0.195 A 
HETATM    3  C3  MIQ B 502     -11.285 -11.979   1.620  1.00141.71     0.035 A 
HETATM    4  C4  MIQ B 502      -9.979 -12.669   1.741  1.00142.86     0.046 A 
HETATM    5  C5  MIQ B 502      -9.876 -13.888   2.457  1.00139.53     0.031 A 
HETATM    6  C12 MIQ B 502     -11.061 -14.464   3.077  1.00139.38     0.030 A 
HETATM    7  C13 MIQ B 502     -12.313 -13.803   2.962  1.00141.18     0.019 A 
HETATM    8  C14 MIQ B 502     -12.415 -12.522   2.211  1.00138.77     0.033 A 
HETATM    9  C15 MIQ B 502     -13.578 -11.531   1.880  1.00142.10     0.195 A 
HETATM   10  N17 MIQ B 502     -13.037 -10.557   1.167  1.00139.42    -0.288 N 
HETATM   11  O16 MIQ B 502     -14.915 -11.655   2.260  1.00148.93    -0.171 OA
ENDROOT
BRANCH  10  12
HETATM   12  C18 MIQ B 502     -13.833  -9.453   0.664  1.00139.82     0.187 C 
HETATM   13  C19 MIQ B 502     -14.608  -8.859   1.847  1.00140.06     0.247 C 
HETATM   14  O25 MIQ B 502     -14.024  -8.569   2.830  1.00143.95    -0.271 OA
HETATM   15  N20 MIQ B 502     -16.038  -8.637   1.790  1.00140.02    -0.296 N 
HETATM   16  H13 MIQ B 502     -16.533  -8.255   2.571  1.00142.77     0.171 HD
HETATM   17  C21 MIQ B 502     -16.730  -9.009   0.583  1.00142.22     0.224 C 
HETATM   18  C22 MIQ B 502     -16.198 -10.217  -0.163  1.00139.52     0.106 C 
HETATM   19  O24 MIQ B 502     -17.664  -8.399   0.193  1.00146.13    -0.273 OA
HETATM   20  C23 MIQ B 502     -14.740  -9.926  -0.471  1.00139.15     0.045 C 
ENDBRANCH  10  12
BRANCH   5  21
HETATM   21  N6  MIQ B 502      -8.593 -14.560   2.556  1.00140.95    -0.377 N 
HETATM   22  C7  MIQ B 502      -7.536 -14.177   1.636  1.00142.12     0.149 C 
HETATM   23  C8  MIQ B 502      -6.548 -15.312   1.399  1.00144.10     0.187 C 
HETATM   24  O9  MIQ B 502      -6.120 -15.915   2.583  1.00148.65    -0.388 OA
HETATM   25  C10 MIQ B 502      -6.747 -15.619   3.796  1.00147.44     0.187 C 
HETATM   26  C11 MIQ B 502      -8.227 -15.249   3.781  1.00144.08     0.149 C 
ENDBRANCH   5  21
TORSDOF 2
ENDMDL
MODEL 8
REMARK VINA RESULT:      -6.3      3.585      8.443
REMARK  2 active torsions:
REMARK  status: ('A' for Active; 'I' for Inactive)
REMARK    1  A    between atoms: C5_5  and  N6_21 
REMARK    2  A    between atoms: C18_14  and  N17_19 
ROOT
HETATM    1  O1  MIQ B 502      -6.632 -13.852   0.993  1.00142.91    -0.171 OA
HETATM    2  C2  MIQ B 502      -6.358 -15.214   1.140  1.00141.17     0.195 A 
HETATM    3  C3  MIQ B 502      -7.336 -16.296   1.698  1.00141.71     0.035 A 
HETATM    4  C4  MIQ B 502      -8.730 -16.248   2.201  1.00142.86     0.046 A 
HETATM    5  C5  MIQ B 502      -9.370 -17.430   2.651  1.00139.53     0.031 A 
HETATM    6  C12 MIQ B 502      -8.654 -18.697   2.619  1.00139.38     0.030 A 
HETATM    7  C13 MIQ B 502      -7.318 -18.744   2.136  1.00141.18     0.019 A 
HETATM    8  C14 MIQ B 502      -6.652 -17.500   1.662  1.00138.77     0.033 A 
HETATM    9  C15 MIQ B 502      -5.241 -17.163   1.078  1.00142.10     0.195 A 
HETATM   10  N17 MIQ B 502      -5.245 -15.862   0.841  1.00139.42    -0.288 N 
HETATM   11  O16 MIQ B 502      -4.193 -18.058   0.856  1.00148.93    -0.171 OA
ENDROOT
BRANCH  10  12
HETATM   12  C18 MIQ B 502      -4.079 -15.186   0.303  1.00139.82     0.187 C 
HETATM   13  C19 MIQ B 502      -3.995 -15.518  -1.192  1.00140.06     0.247 C 
HETATM   14  O25 MIQ B 502      -4.947 -15.362  -1.871  1.00143.95    -0.271 OA
HETATM   15  N20 MIQ B 502      -2.776 -16.014  -1.797  1.00140.02    -0.296 N 
HETATM   16  H13 MIQ B 502      -2.736 -16.233  -2.773  1.00142.77     0.171 HD
HETATM   17  C21 MIQ B 502      -1.630 -16.206  -0.945  1.00142.22     0.224 C 
HETATM   18  C22 MIQ B 502      -1.907 -16.637   0.482  1.00139.52     0.106 C 
HETATM   19  O24 MIQ B 502      -0.530 -16.029  -1.340  1.00146.13    -0.273 OA
HETATM   20  C23 MIQ B 502      -2.826 -15.588   1.079  1.00139.15     0.045 C 
ENDBRANCH  10  12
BRANCH   5  21
HETATM   21  N6  MIQ B 502     -10.730 -17.366   3.155  1.00140.95    -0.377 N 
HETATM   22  C7  MIQ B 502     -11.441 -16.102   3.076  1.00142.12     0.149 C 
HETATM   23  C8  MIQ B 502     -12.513 -15.983   4.152  1.00144.10     0.187 C 
HETATM   24  O9  MIQ B 502     -13.321 -17.118   4.241  1.00148.65    -0.388 OA
HETATM   25  C10 MIQ B 502     -12.980 -18.286   3.554  1.00147.44     0.187 C 
HETATM   26  C11 MIQ B 502     -11.504 -18.585   3.312  1.00144.08     0.149 C 
ENDBRANCH   5  21
TORSDOF 2
ENDMDL
MODEL 9
REMARK VINA RESULT:      -6.3      2.693      3.577
REMARK  2 active torsions:
REMARK  status: ('A' for Active; 'I' for Inactive)
REMARK    1  A    between atoms: C5_5  and  N6_21 
REMARK    2  A    between atoms: C18_14  and  N17_19 
ROOT
HETATM    1  O1  MIQ B 502      -9.785 -13.266   3.699  1.00142.91    -0.171 OA
HETATM    2  C2  MIQ B 502      -9.902 -14.624   3.396  1.00141.17     0.195 A 
HETATM    3  C3  MIQ B 502      -8.824 -15.509   2.693  1.00141.71     0.035 A 
HETATM    4  C4  MIQ B 502      -7.463 -15.236   2.173  1.00142.86     0.046 A 
HETATM    5  C5  MIQ B 502      -6.705 -16.272   1.572  1.00139.53     0.031 A 
HETATM    6  C12 MIQ B 502      -7.267 -17.611   1.466  1.00139.38     0.030 A 
HETATM    7  C13 MIQ B 502      -8.571 -17.874   1.966  1.00141.18     0.019 A 
HETATM    8  C14 MIQ B 502      -9.362 -16.782   2.598  1.00138.77     0.033 A 
HETATM    9  C15 MIQ B 502     -10.781 -16.688   3.246  1.00142.10     0.195 A 
HETATM   10  N17 MIQ B 502     -10.921 -15.431   3.636  1.00139.42    -0.288 N 
HETATM   11  O16 MIQ B 502     -11.710 -17.721   3.379  1.00148.93    -0.171 OA
ENDROOT
BRANCH  10  12
HETATM   12  C18 MIQ B 502     -12.140 -14.968   4.274  1.00139.82     0.187 C 
HETATM   13  C19 MIQ B 502     -12.399 -15.862   5.493  1.00140.06     0.247 C 
HETATM   14  O25 MIQ B 502     -11.532 -16.037   6.273  1.00143.95    -0.271 OA
HETATM   15  N20 MIQ B 502     -13.683 -16.495   5.716  1.00140.02    -0.296 N 
HETATM   16  H13 MIQ B 502     -13.837 -17.082   6.512  1.00142.77     0.171 HD
HETATM   17  C21 MIQ B 502     -14.722 -16.275   4.743  1.00142.22     0.224 C 
HETATM   18  C22 MIQ B 502     -14.282 -16.117   3.301  1.00139.52     0.106 C 
HETATM   19  O24 MIQ B 502     -15.859 -16.215   5.058  1.00146.13    -0.273 OA
HETATM   20  C23 MIQ B 502     -13.295 -14.964   3.274  1.00139.15     0.045 C 
ENDBRANCH  10  12
BRANCH   5  21
HETATM   21  N6  MIQ B 502      -5.379 -15.988   1.053  1.00140.95    -0.377 N 
HETATM   22  C7  MIQ B 502      -5.229 -14.920   0.079  1.00142.12     0.149 C 
HETATM   23  C8  MIQ B 502      -4.021 -15.139  -0.822  1.00144.10     0.187 C 
HETATM   24  O9  MIQ B 502      -2.864 -15.466  -0.111  1.00148.65    -0.388 OA
HETATM   25  C10 MIQ B 502      -2.933 -15.773   1.250  1.00147.44     0.187 C 
HETATM   26  C11 MIQ B 502      -4.204 -16.423   1.787  1.00144.08     0.149 C 
ENDBRANCH   5  21
TORSDOF 2
ENDMDL
