MODEL 1
REMARK VINA RESULT:      -6.7      0.000      0.000
REMARK  2 active torsions:
REMARK  status: ('A' for Active; 'I' for Inactive)
REMARK    1  A    between atoms: C5_5  and  N6_21 
REMARK    2  A    between atoms: C18_14  and  N17_19 
ROOT
HETATM    1  O1  MIQ B 502     -20.974   2.370   4.454  1.00142.91    -0.171 OA
HETATM    2  C2  MIQ B 502     -20.958   1.007   4.760  1.00141.17     0.195 A 
HETATM    3  C3  MIQ B 502     -22.208   0.100   4.991  1.00141.71     0.035 A 
HETATM    4  C4  MIQ B 502     -23.669   0.350   4.964  1.00142.86     0.046 A 
HETATM    5  C5  MIQ B 502     -24.582  -0.704   5.220  1.00139.53     0.031 A 
HETATM    6  C12 MIQ B 502     -24.081  -2.039   5.510  1.00139.38     0.030 A 
HETATM    7  C13 MIQ B 502     -22.680  -2.280   5.535  1.00141.18     0.019 A 
HETATM    8  C14 MIQ B 502     -21.727  -1.170   5.263  1.00138.77     0.033 A 
HETATM    9  C15 MIQ B 502     -20.169  -1.050   5.200  1.00142.10     0.195 A 
HETATM   10  N17 MIQ B 502     -19.911   0.214   4.909  1.00139.42    -0.288 N 
HETATM   11  O16 MIQ B 502     -19.243  -2.073   5.411  1.00148.93    -0.171 OA
ENDROOT
BRANCH  10  12
HETATM   12  C18 MIQ B 502     -18.550   0.701   4.784  1.00139.82     0.187 C 
HETATM   13  C19 MIQ B 502     -18.392   1.897   5.731  1.00140.06     0.247 C 
HETATM   14  O25 MIQ B 502     -18.718   1.786   6.859  1.00143.95    -0.271 OA
HETATM   15  N20 MIQ B 502     -17.847   3.161   5.280  1.00140.02    -0.296 N 
HETATM   16  H13 MIQ B 502     -17.756   3.936   5.906  1.00142.77     0.171 HD
HETATM   17  C21 MIQ B 502     -17.466   3.276   3.896  1.00142.22     0.224 C 
HETATM   18  C22 MIQ B 502     -18.295   2.495   2.894  1.00139.52     0.106 C 
HETATM   19  O24 MIQ B 502     -16.550   3.942   3.560  1.00146.13    -0.273 OA
HETATM   20  C23 MIQ B 502     -18.239   1.041   3.328  1.00139.15     0.045 C 
ENDBRANCH  10  12
BRANCH   5  21
HETATM   21  N6  MIQ B 502     -26.009  -0.440   5.204  1.00140.95    -0.377 N 
HETATM   22  C7  MIQ B 502     -26.468   0.918   5.439  1.00142.12     0.149 C 
HETATM   23  C8  MIQ B 502     -27.874   0.950   6.024  1.00144.10     0.187 C 
HETATM   24  O9  MIQ B 502     -28.768   0.129   5.335  1.00148.65    -0.388 OA
HETATM   25  C10 MIQ B 502     -28.304  -0.773   4.375  1.00147.44     0.187 C 
HETATM   26  C11 MIQ B 502     -26.911  -1.370   4.547  1.00144.08     0.149 C 
ENDBRANCH   5  21
TORSDOF 2
ENDMDL
MODEL 2
REMARK VINA RESULT:      -6.6      1.837      3.029
REMARK  2 active torsions:
REMARK  status: ('A' for Active; 'I' for Inactive)
REMARK    1  A    between atoms: C5_5  and  N6_21 
REMARK    2  A    between atoms: C18_14  and  N17_19 
ROOT
HETATM    1  O1  MIQ B 502     -19.048  -1.974   5.394  1.00142.91    -0.171 OA
HETATM    2  C2  MIQ B 502     -19.965  -0.937   5.205  1.00141.17     0.195 A 
HETATM    3  C3  MIQ B 502     -21.519  -1.049   5.315  1.00141.71     0.035 A 
HETATM    4  C4  MIQ B 502     -22.441  -2.168   5.625  1.00142.86     0.046 A 
HETATM    5  C5  MIQ B 502     -23.842  -1.955   5.653  1.00139.53     0.031 A 
HETATM    6  C12 MIQ B 502     -24.377  -0.630   5.376  1.00139.38     0.030 A 
HETATM    7  C13 MIQ B 502     -23.494   0.443   5.079  1.00141.18     0.019 A 
HETATM    8  C14 MIQ B 502     -22.024   0.214   5.054  1.00138.77     0.033 A 
HETATM    9  C15 MIQ B 502     -20.776   1.116   4.781  1.00142.10     0.195 A 
HETATM   10  N17 MIQ B 502     -19.721   0.327   4.907  1.00139.42    -0.288 N 
HETATM   11  O16 MIQ B 502     -20.780   2.476   4.467  1.00148.93    -0.171 OA
ENDROOT
BRANCH  10  12
HETATM   12  C18 MIQ B 502     -18.374   0.827   4.705  1.00139.82     0.187 C 
HETATM   13  C19 MIQ B 502     -18.190   2.055   5.604  1.00140.06     0.247 C 
HETATM   14  O25 MIQ B 502     -18.464   1.977   6.749  1.00143.95    -0.271 OA
HETATM   15  N20 MIQ B 502     -17.684   3.311   5.088  1.00140.02    -0.296 N 
HETATM   16  H13 MIQ B 502     -17.576   4.107   5.684  1.00142.77     0.171 HD
HETATM   17  C21 MIQ B 502     -17.367   3.385   3.685  1.00142.22     0.224 C 
HETATM   18  C22 MIQ B 502     -18.229   2.561   2.748  1.00139.52     0.106 C 
HETATM   19  O24 MIQ B 502     -16.476   4.051   3.287  1.00146.13    -0.273 OA
HETATM   20  C23 MIQ B 502     -18.133   1.123   3.225  1.00139.15     0.045 C 
ENDBRANCH  10  12
BRANCH   5  21
HETATM   21  N6  MIQ B 502     -24.734  -3.063   5.943  1.00140.95    -0.377 N 
HETATM   22  C7  MIQ B 502     -24.367  -3.992   6.998  1.00142.12     0.149 C 
HETATM   23  C8  MIQ B 502     -24.975  -5.371   6.779  1.00144.10     0.187 C 
HETATM   24  O9  MIQ B 502     -26.337  -5.322   6.474  1.00148.65    -0.388 OA
HETATM   25  C10 MIQ B 502     -26.954  -4.102   6.185  1.00147.44     0.187 C 
HETATM   26  C11 MIQ B 502     -26.125  -3.003   5.529  1.00144.08     0.149 C 
ENDBRANCH   5  21
TORSDOF 2
ENDMDL
MODEL 3
REMARK VINA RESULT:      -6.6     26.399     30.241
REMARK  2 active torsions:
REMARK  status: ('A' for Active; 'I' for Inactive)
REMARK    1  A    between atoms: C5_5  and  N6_21 
REMARK    2  A    between atoms: C18_14  and  N17_19 
ROOT
HETATM    1  O1  MIQ B 502      -8.686  13.166 -18.748  1.00142.91    -0.171 OA
HETATM    2  C2  MIQ B 502      -7.923  12.276 -19.507  1.00141.17     0.195 A 
HETATM    3  C3  MIQ B 502      -7.955  10.717 -19.406  1.00141.71     0.035 A 
HETATM    4  C4  MIQ B 502      -8.721   9.765 -18.568  1.00142.86     0.046 A 
HETATM    5  C5  MIQ B 502      -8.528   8.368 -18.710  1.00139.53     0.031 A 
HETATM    6  C12 MIQ B 502      -7.571   7.867 -19.686  1.00139.38     0.030 A 
HETATM    7  C13 MIQ B 502      -6.837   8.779 -20.492  1.00141.18     0.019 A 
HETATM    8  C14 MIQ B 502      -7.046  10.245 -20.339  1.00138.77     0.033 A 
HETATM    9  C15 MIQ B 502      -6.448  11.517 -21.024  1.00142.10     0.195 A 
HETATM   10  N17 MIQ B 502      -7.040  12.552 -20.451  1.00139.42    -0.288 N 
HETATM   11  O16 MIQ B 502      -5.483  11.548 -22.032  1.00148.93    -0.171 OA
ENDROOT
BRANCH  10  12
HETATM   12  C18 MIQ B 502      -6.716  13.915 -20.830  1.00139.82     0.187 C 
HETATM   13  C19 MIQ B 502      -6.565  14.735 -19.543  1.00140.06     0.247 C 
HETATM   14  O25 MIQ B 502      -5.859  14.336 -18.685  1.00143.95    -0.271 OA
HETATM   15  N20 MIQ B 502      -7.261  15.990 -19.351  1.00140.02    -0.296 N 
HETATM   16  H13 MIQ B 502      -7.159  16.513 -18.503  1.00142.77     0.171 HD
HETATM   17  C21 MIQ B 502      -8.125  16.451 -20.407  1.00142.22     0.224 C 
HETATM   18  C22 MIQ B 502      -8.849  15.386 -21.208  1.00139.52     0.106 C 
HETATM   19  O24 MIQ B 502      -8.257  17.602 -20.639  1.00146.13    -0.273 OA
HETATM   20  C23 MIQ B 502      -7.779  14.471 -21.776  1.00139.15     0.045 C 
ENDBRANCH  10  12
BRANCH   5  21
HETATM   21  N6  MIQ B 502      -9.274   7.448 -17.871  1.00140.95    -0.377 N 
HETATM   22  C7  MIQ B 502      -9.433   6.074 -18.317  1.00142.12     0.149 C 
HETATM   23  C8  MIQ B 502     -10.692   5.434 -17.748  1.00144.10     0.187 C 
HETATM   24  O9  MIQ B 502     -10.831   5.635 -16.374  1.00148.65    -0.388 OA
HETATM   25  C10 MIQ B 502      -9.997   6.532 -15.702  1.00147.44     0.187 C 
HETATM   26  C11 MIQ B 502      -9.466   7.743 -16.462  1.00144.08     0.149 C 
ENDBRANCH   5  21
TORSDOF 2
ENDMDL
MODEL 4
REMARK VINA RESULT:      -6.5     16.029     21.380
REMARK  2 active torsions:
REMARK  status: ('A' for Active; 'I' for Inactive)
REMARK    1  A    between atoms: C5_5  and  N6_21 
REMARK    2  A    between atoms: C18_14  and  N17_19 
ROOT
HETATM    1  O1  MIQ B 502     -12.609  14.210  -3.399  1.00142.91    -0.171 OA
HETATM    2  C2  MIQ B 502     -11.224  14.181  -3.220  1.00141.17     0.195 A 
HETATM    3  C3  MIQ B 502     -10.151  14.674  -4.242  1.00141.71     0.035 A 
HETATM    4  C4  MIQ B 502     -10.233  15.275  -5.595  1.00142.86     0.046 A 
HETATM    5  C5  MIQ B 502      -9.051  15.629  -6.294  1.00139.53     0.031 A 
HETATM    6  C12 MIQ B 502      -7.752  15.401  -5.678  1.00139.38     0.030 A 
HETATM    7  C13 MIQ B 502      -7.673  14.826  -4.382  1.00141.18     0.019 A 
HETATM    8  C14 MIQ B 502      -8.917  14.458  -3.651  1.00138.77     0.033 A 
HETATM    9  C15 MIQ B 502      -9.226  13.828  -2.254  1.00142.10     0.195 A 
HETATM   10  N17 MIQ B 502     -10.543  13.746  -2.174  1.00139.42    -0.288 N 
HETATM   11  O16 MIQ B 502      -8.295  13.432  -1.292  1.00148.93    -0.171 OA
ENDROOT
BRANCH  10  12
HETATM   12  C18 MIQ B 502     -11.197  13.188  -1.005  1.00139.82     0.187 C 
HETATM   13  C19 MIQ B 502     -12.078  12.023  -1.473  1.00140.06     0.247 C 
HETATM   14  O25 MIQ B 502     -11.608  11.184  -2.157  1.00143.95    -0.271 OA
HETATM   15  N20 MIQ B 502     -13.472  11.919  -1.094  1.00140.02    -0.296 N 
HETATM   16  H13 MIQ B 502     -14.038  11.157  -1.412  1.00142.77     0.171 HD
HETATM   17  C21 MIQ B 502     -14.026  12.960  -0.267  1.00142.22     0.224 C 
HETATM   18  C22 MIQ B 502     -13.479  14.359  -0.476  1.00139.52     0.106 C 
HETATM   19  O24 MIQ B 502     -14.861  12.731   0.537  1.00146.13    -0.273 OA
HETATM   20  C23 MIQ B 502     -11.979  14.272  -0.264  1.00139.15     0.045 C 
ENDBRANCH  10  12
BRANCH   5  21
HETATM   21  N6  MIQ B 502      -9.145  16.204  -7.624  1.00140.95    -0.377 N 
HETATM   22  C7  MIQ B 502      -8.265  15.698  -8.663  1.00142.12     0.149 C 
HETATM   23  C8  MIQ B 502      -7.998  16.741  -9.740  1.00144.10     0.187 C 
HETATM   24  O9  MIQ B 502      -9.163  17.363 -10.195  1.00148.65    -0.388 OA
HETATM   25  C10 MIQ B 502     -10.374  17.171  -9.526  1.00147.44     0.187 C 
HETATM   26  C11 MIQ B 502     -10.346  16.917  -8.023  1.00144.08     0.149 C 
ENDBRANCH   5  21
TORSDOF 2
ENDMDL
MODEL 5
REMARK VINA RESULT:      -6.5     16.480     22.140
REMARK  2 active torsions:
REMARK  status: ('A' for Active; 'I' for Inactive)
REMARK    1  A    between atoms: C5_5  and  N6_21 
REMARK    2  A    between atoms: C18_14  and  N17_19 
ROOT
HETATM    1  O1  MIQ B 502     -10.976  13.255  -3.531  1.00142.91    -0.171 OA
HETATM    2  C2  MIQ B 502     -10.044  14.211  -3.122  1.00141.17     0.195 A 
HETATM    3  C3  MIQ B 502      -9.110  15.046  -4.055  1.00141.71     0.035 A 
HETATM    4  C4  MIQ B 502      -8.923  15.102  -5.524  1.00142.86     0.046 A 
HETATM    5  C5  MIQ B 502      -7.972  15.987  -6.092  1.00139.53     0.031 A 
HETATM    6  C12 MIQ B 502      -7.177  16.847  -5.227  1.00139.38     0.030 A 
HETATM    7  C13 MIQ B 502      -7.358  16.795  -3.819  1.00141.18     0.019 A 
HETATM    8  C14 MIQ B 502      -8.358  15.865  -3.227  1.00138.77     0.033 A 
HETATM    9  C15 MIQ B 502      -8.829  15.536  -1.773  1.00142.10     0.195 A 
HETATM   10  N17 MIQ B 502      -9.763  14.607  -1.892  1.00139.42    -0.288 N 
HETATM   11  O16 MIQ B 502      -8.353  16.108  -0.592  1.00148.93    -0.171 OA
ENDROOT
BRANCH  10  12
HETATM   12  C18 MIQ B 502     -10.423  14.043  -0.730  1.00139.82     0.187 C 
HETATM   13  C19 MIQ B 502     -10.326  12.516  -0.832  1.00140.06     0.247 C 
HETATM   14  O25 MIQ B 502      -9.275  12.017  -1.028  1.00143.95    -0.271 OA
HETATM   15  N20 MIQ B 502     -11.491  11.666  -0.691  1.00140.02    -0.296 N 
HETATM   16  H13 MIQ B 502     -11.416  10.670  -0.766  1.00142.77     0.171 HD
HETATM   17  C21 MIQ B 502     -12.764  12.299  -0.463  1.00142.22     0.224 C 
HETATM   18  C22 MIQ B 502     -12.981  13.648  -1.122  1.00139.52     0.106 C 
HETATM   19  O24 MIQ B 502     -13.595  11.792   0.207  1.00146.13    -0.273 OA
HETATM   20  C23 MIQ B 502     -11.861  14.550  -0.637  1.00139.15     0.045 C 
ENDBRANCH  10  12
BRANCH   5  21
HETATM   21  N6  MIQ B 502      -7.789  16.020  -7.532  1.00140.95    -0.377 N 
HETATM   22  C7  MIQ B 502      -8.857  15.521  -8.380  1.00142.12     0.149 C 
HETATM   23  C8  MIQ B 502      -8.333  15.018  -9.719  1.00144.10     0.187 C 
HETATM   24  O9  MIQ B 502      -7.456  15.915 -10.331  1.00148.65    -0.388 OA
HETATM   25  C10 MIQ B 502      -6.973  17.023  -9.629  1.00147.44     0.187 C 
HETATM   26  C11 MIQ B 502      -6.802  16.911  -8.117  1.00144.08     0.149 C 
ENDBRANCH   5  21
TORSDOF 2
ENDMDL
MODEL 6
REMARK VINA RESULT:      -6.5     15.972     21.599
REMARK  2 active torsions:
REMARK  status: ('A' for Active; 'I' for Inactive)
REMARK    1  A    between atoms: C5_5  and  N6_21 
REMARK    2  A    between atoms: C18_14  and  N17_19 
ROOT
HETATM    1  O1  MIQ B 502      -8.518  13.531  -2.332  1.00142.91    -0.171 OA
HETATM    2  C2  MIQ B 502      -9.711  13.968  -2.913  1.00141.17     0.195 A 
HETATM    3  C3  MIQ B 502      -9.855  14.696  -4.287  1.00141.71     0.035 A 
HETATM    4  C4  MIQ B 502      -8.883  15.120  -5.323  1.00142.86     0.046 A 
HETATM    5  C5  MIQ B 502      -9.328  15.778  -6.497  1.00139.53     0.031 A 
HETATM    6  C12 MIQ B 502     -10.748  16.038  -6.685  1.00139.38     0.030 A 
HETATM    7  C13 MIQ B 502     -11.680  15.631  -5.693  1.00141.18     0.019 A 
HETATM    8  C14 MIQ B 502     -11.208  14.938  -4.464  1.00138.77     0.033 A 
HETATM    9  C15 MIQ B 502     -11.907  14.356  -3.192  1.00142.10     0.195 A 
HETATM   10  N17 MIQ B 502     -10.941  13.856  -2.440  1.00139.42    -0.288 N 
HETATM   11  O16 MIQ B 502     -13.275  14.368  -2.912  1.00148.93    -0.171 OA
ENDROOT
BRANCH  10  12
HETATM   12  C18 MIQ B 502     -11.222  13.238  -1.158  1.00139.82     0.187 C 
HETATM   13  C19 MIQ B 502     -12.084  11.997  -1.415  1.00140.06     0.247 C 
HETATM   14  O25 MIQ B 502     -11.731  11.206  -2.217  1.00143.95    -0.271 OA
HETATM   15  N20 MIQ B 502     -13.320  11.763  -0.697  1.00140.02    -0.296 N 
HETATM   16  H13 MIQ B 502     -13.878  10.952  -0.879  1.00142.77     0.171 HD
HETATM   17  C21 MIQ B 502     -13.735  12.747   0.269  1.00142.22     0.224 C 
HETATM   18  C22 MIQ B 502     -13.388  14.191  -0.038  1.00139.52     0.106 C 
HETATM   19  O24 MIQ B 502     -14.313  12.442   1.253  1.00146.13    -0.273 OA
HETATM   20  C23 MIQ B 502     -11.882  14.244  -0.217  1.00139.15     0.045 C 
ENDBRANCH  10  12
BRANCH   5  21
HETATM   21  N6  MIQ B 502      -8.363  16.201  -7.496  1.00140.95    -0.377 N 
HETATM   22  C7  MIQ B 502      -7.013  16.520  -7.066  1.00142.12     0.149 C 
HETATM   23  C8  MIQ B 502      -6.338  17.514  -8.003  1.00144.10     0.187 C 
HETATM   24  O9  MIQ B 502      -6.470  17.167  -9.349  1.00148.65    -0.388 OA
HETATM   25  C10 MIQ B 502      -7.337  16.142  -9.734  1.00147.44     0.187 C 
HETATM   26  C11 MIQ B 502      -8.587  15.891  -8.897  1.00144.08     0.149 C 
ENDBRANCH   5  21
TORSDOF 2
ENDMDL
MODEL 7
REMARK VINA RESULT:      -6.2      5.164      8.495
REMARK  2 active torsions:
REMARK  status: ('A' for Active; 'I' for Inactive)
REMARK    1  A    between atoms: C5_5  and  N6_21 
REMARK    2  A    between atoms: C18_14  and  N17_19 
ROOT
HETATM    1  O1  MIQ B 502     -18.342  -3.981   9.493  1.00142.91    -0.171 OA
HETATM    2  C2  MIQ B 502     -19.655  -3.662   9.138  1.00141.17     0.195 A 
HETATM    3  C3  MIQ B 502     -20.095  -2.545   8.139  1.00141.71     0.035 A 
HETATM    4  C4  MIQ B 502     -19.350  -1.559   7.321  1.00142.86     0.046 A 
HETATM    5  C5  MIQ B 502     -20.046  -0.649   6.486  1.00139.53     0.031 A 
HETATM    6  C12 MIQ B 502     -21.501  -0.684   6.433  1.00139.38     0.030 A 
HETATM    7  C13 MIQ B 502     -22.215  -1.631   7.217  1.00141.18     0.019 A 
HETATM    8  C14 MIQ B 502     -21.479  -2.585   8.089  1.00138.77     0.033 A 
HETATM    9  C15 MIQ B 502     -21.900  -3.735   9.062  1.00142.10     0.195 A 
HETATM   10  N17 MIQ B 502     -20.775  -4.226   9.555  1.00139.42    -0.288 N 
HETATM   11  O16 MIQ B 502     -23.201  -4.151   9.350  1.00148.93    -0.171 OA
ENDROOT
BRANCH  10  12
HETATM   12  C18 MIQ B 502     -20.781  -5.312  10.518  1.00139.82     0.187 C 
HETATM   13  C19 MIQ B 502     -19.963  -4.862  11.735  1.00140.06     0.247 C 
HETATM   14  O25 MIQ B 502     -20.206  -3.824  12.240  1.00143.95    -0.271 OA
HETATM   15  N20 MIQ B 502     -18.903  -5.680  12.287  1.00140.02    -0.296 N 
HETATM   16  H13 MIQ B 502     -18.372  -5.372  13.078  1.00142.77     0.171 HD
HETATM   17  C21 MIQ B 502     -18.618  -6.938  11.647  1.00142.22     0.224 C 
HETATM   18  C22 MIQ B 502     -18.812  -6.996  10.144  1.00139.52     0.106 C 
HETATM   19  O24 MIQ B 502     -18.258  -7.878  12.265  1.00146.13    -0.273 OA
HETATM   20  C23 MIQ B 502     -20.251  -6.593   9.878  1.00139.15     0.045 C 
ENDBRANCH  10  12
BRANCH   5  21
HETATM   21  N6  MIQ B 502     -19.305   0.322   5.701  1.00140.95    -0.377 N 
HETATM   22  C7  MIQ B 502     -19.530   0.373   4.267  1.00142.12     0.149 C 
HETATM   23  C8  MIQ B 502     -18.316   0.908   3.519  1.00144.10     0.187 C 
HETATM   24  O9  MIQ B 502     -17.802   2.077   4.085  1.00148.65    -0.388 OA
HETATM   25  C10 MIQ B 502     -18.252   2.518   5.332  1.00147.44     0.187 C 
HETATM   26  C11 MIQ B 502     -18.714   1.480   6.349  1.00144.08     0.149 C 
ENDBRANCH   5  21
TORSDOF 2
ENDMDL
MODEL 8
REMARK VINA RESULT:      -6.2     12.706     16.467
REMARK  2 active torsions:
REMARK  status: ('A' for Active; 'I' for Inactive)
REMARK    1  A    between atoms: C5_5  and  N6_21 
REMARK    2  A    between atoms: C18_14  and  N17_19 
ROOT
HETATM    1  O1  MIQ B 502     -12.280  11.890  -0.217  1.00142.91    -0.171 OA
HETATM    2  C2  MIQ B 502     -12.722  13.212  -0.299  1.00141.17     0.195 A 
HETATM    3  C3  MIQ B 502     -14.092  13.760   0.213  1.00141.71     0.035 A 
HETATM    4  C4  MIQ B 502     -15.254  13.132   0.886  1.00142.86     0.046 A 
HETATM    5  C5  MIQ B 502     -16.385  13.910   1.240  1.00139.53     0.031 A 
HETATM    6  C12 MIQ B 502     -16.404  15.335   0.939  1.00139.38     0.030 A 
HETATM    7  C13 MIQ B 502     -15.290  15.938   0.295  1.00141.18     0.019 A 
HETATM    8  C14 MIQ B 502     -14.105  15.116  -0.072  1.00138.77     0.033 A 
HETATM    9  C15 MIQ B 502     -12.734  15.412  -0.764  1.00142.10     0.195 A 
HETATM   10  N17 MIQ B 502     -12.091  14.256  -0.809  1.00139.42    -0.288 N 
HETATM   11  O16 MIQ B 502     -12.286  16.646  -1.239  1.00148.93    -0.171 OA
ENDROOT
BRANCH  10  12
HETATM   12  C18 MIQ B 502     -10.774  14.146  -1.407  1.00139.82     0.187 C 
HETATM   13  C19 MIQ B 502     -10.841  13.062  -2.489  1.00140.06     0.247 C 
HETATM   14  O25 MIQ B 502     -11.691  13.114  -3.305  1.00143.95    -0.271 OA
HETATM   15  N20 MIQ B 502      -9.884  11.975  -2.543  1.00140.02    -0.296 N 
HETATM   16  H13 MIQ B 502      -9.943  11.270  -3.251  1.00142.77     0.171 HD
HETATM   17  C21 MIQ B 502      -8.861  11.927  -1.530  1.00142.22     0.224 C 
HETATM   18  C22 MIQ B 502      -9.243  12.431  -0.152  1.00139.52     0.106 C 
HETATM   19  O24 MIQ B 502      -7.778  11.519  -1.766  1.00146.13    -0.273 OA
HETATM   20  C23 MIQ B 502      -9.725  13.859  -0.333  1.00139.15     0.045 C 
ENDBRANCH  10  12
BRANCH   5  21
HETATM   21  N6  MIQ B 502     -17.521  13.279   1.885  1.00140.95    -0.377 N 
HETATM   22  C7  MIQ B 502     -18.563  14.126   2.441  1.00142.12     0.149 C 
HETATM   23  C8  MIQ B 502     -19.298  13.443   3.588  1.00144.10     0.187 C 
HETATM   24  O9  MIQ B 502     -19.690  12.138   3.282  1.00148.65    -0.388 OA
HETATM   25  C10 MIQ B 502     -19.219  11.511   2.126  1.00147.44     0.187 C 
HETATM   26  C11 MIQ B 502     -17.839  11.891   1.600  1.00144.08     0.149 C 
ENDBRANCH   5  21
TORSDOF 2
ENDMDL
MODEL 9
REMARK VINA RESULT:      -6.1      4.773      7.095
REMARK  2 active torsions:
REMARK  status: ('A' for Active; 'I' for Inactive)
REMARK    1  A    between atoms: C5_5  and  N6_21 
REMARK    2  A    between atoms: C18_14  and  N17_19 
ROOT
HETATM    1  O1  MIQ B 502     -18.809  -1.613   6.126  1.00142.91    -0.171 OA
HETATM    2  C2  MIQ B 502     -19.828  -1.340   7.043  1.00141.17     0.195 A 
HETATM    3  C3  MIQ B 502     -20.185  -2.189   8.304  1.00141.71     0.035 A 
HETATM    4  C4  MIQ B 502     -19.624  -3.430   8.889  1.00142.86     0.046 A 
HETATM    5  C5  MIQ B 502     -20.175  -3.976  10.076  1.00139.53     0.031 A 
HETATM    6  C12 MIQ B 502     -21.298  -3.312  10.723  1.00139.38     0.030 A 
HETATM    7  C13 MIQ B 502     -21.835  -2.122  10.162  1.00141.18     0.019 A 
HETATM    8  C14 MIQ B 502     -21.251  -1.552   8.918  1.00138.77     0.033 A 
HETATM    9  C15 MIQ B 502     -21.557  -0.300   8.033  1.00142.10     0.195 A 
HETATM   10  N17 MIQ B 502     -20.680  -0.330   7.042  1.00139.42    -0.288 N 
HETATM   11  O16 MIQ B 502     -22.555   0.651   8.248  1.00148.93    -0.171 OA
ENDROOT
BRANCH  10  12
HETATM   12  C18 MIQ B 502     -20.676   0.684   6.004  1.00139.82     0.187 C 
HETATM   13  C19 MIQ B 502     -20.537  -0.030   4.654  1.00140.06     0.247 C 
HETATM   14  O25 MIQ B 502     -21.265  -0.921   4.396  1.00143.95    -0.271 OA
HETATM   15  N20 MIQ B 502     -19.538   0.363   3.682  1.00140.02    -0.296 N 
HETATM   16  H13 MIQ B 502     -19.453  -0.115   2.806  1.00142.77     0.171 HD
HETATM   17  C21 MIQ B 502     -18.653   1.447   4.024  1.00142.22     0.224 C 
HETATM   18  C22 MIQ B 502     -18.270   1.578   5.485  1.00139.52     0.106 C 
HETATM   19  O24 MIQ B 502     -18.252   2.199   3.205  1.00146.13    -0.273 OA
HETATM   20  C23 MIQ B 502     -19.568   1.704   6.262  1.00139.15     0.045 C 
ENDBRANCH  10  12
BRANCH   5  21
HETATM   21  N6  MIQ B 502     -19.626  -5.200  10.630  1.00140.95    -0.377 N 
HETATM   22  C7  MIQ B 502     -18.810  -6.044   9.774  1.00142.12     0.149 C 
HETATM   23  C8  MIQ B 502     -18.848  -7.503  10.212  1.00144.10     0.187 C 
HETATM   24  O9  MIQ B 502     -18.640  -7.665  11.583  1.00148.65    -0.388 OA
HETATM   25  C10 MIQ B 502     -18.642  -6.557  12.434  1.00147.44     0.187 C 
HETATM   26  C11 MIQ B 502     -19.509  -5.357  12.069  1.00144.08     0.149 C 
ENDBRANCH   5  21
TORSDOF 2
ENDMDL
