MODEL 1
REMARK VINA RESULT:      -7.2      0.000      0.000
REMARK  2 active torsions:
REMARK  status: ('A' for Active; 'I' for Inactive)
REMARK    1  A    between atoms: C5_5  and  N6_21 
REMARK    2  A    between atoms: C18_14  and  N17_19 
ROOT
HETATM    1  O1  MIQ B 502     -17.667   3.747  -0.862  1.00142.91    -0.171 OA
HETATM    2  C2  MIQ B 502     -18.990   3.887  -1.286  1.00141.17     0.195 A 
HETATM    3  C3  MIQ B 502     -20.252   3.301  -0.575  1.00141.71     0.035 A 
HETATM    4  C4  MIQ B 502     -20.448   2.494   0.652  1.00142.86     0.046 A 
HETATM    5  C5  MIQ B 502     -21.751   2.105   1.054  1.00139.53     0.031 A 
HETATM    6  C12 MIQ B 502     -22.902   2.502   0.255  1.00139.38     0.030 A 
HETATM    7  C13 MIQ B 502     -22.715   3.277  -0.921  1.00141.18     0.019 A 
HETATM    8  C14 MIQ B 502     -21.345   3.684  -1.337  1.00138.77     0.033 A 
HETATM    9  C15 MIQ B 502     -20.758   4.512  -2.526  1.00142.10     0.195 A 
HETATM   10  N17 MIQ B 502     -19.447   4.530  -2.346  1.00139.42    -0.288 N 
HETATM   11  O16 MIQ B 502     -21.475   5.107  -3.565  1.00148.93    -0.171 OA
ENDROOT
BRANCH  10  12
HETATM   12  C18 MIQ B 502     -18.564   5.204  -3.280  1.00139.82     0.187 C 
HETATM   13  C19 MIQ B 502     -17.529   4.182  -3.765  1.00140.06     0.247 C 
HETATM   14  O25 MIQ B 502     -17.897   3.142  -4.181  1.00143.95    -0.271 OA
HETATM   15  N20 MIQ B 502     -16.107   4.461  -3.733  1.00140.02    -0.296 N 
HETATM   16  H13 MIQ B 502     -15.441   3.783  -4.047  1.00142.77     0.171 HD
HETATM   17  C21 MIQ B 502     -15.681   5.734  -3.212  1.00142.22     0.224 C 
HETATM   18  C22 MIQ B 502     -16.517   6.326  -2.094  1.00139.52     0.106 C 
HETATM   19  O24 MIQ B 502     -14.730   6.290  -3.640  1.00146.13    -0.273 OA
HETATM   20  C23 MIQ B 502     -17.935   6.432  -2.625  1.00139.15     0.045 C 
ENDBRANCH  10  12
BRANCH   5  21
HETATM   21  N6  MIQ B 502     -21.927   1.302   2.250  1.00140.95    -0.377 N 
HETATM   22  C7  MIQ B 502     -23.065   0.402   2.321  1.00142.12     0.149 C 
HETATM   23  C8  MIQ B 502     -23.493   0.139   3.759  1.00144.10     0.187 C 
HETATM   24  O9  MIQ B 502     -22.423  -0.185   4.595  1.00148.65    -0.388 OA
HETATM   25  C10 MIQ B 502     -21.107  -0.034   4.150  1.00147.44     0.187 C 
HETATM   26  C11 MIQ B 502     -20.801   1.063   3.136  1.00144.08     0.149 C 
ENDBRANCH   5  21
TORSDOF 2
ENDMDL
MODEL 2
REMARK VINA RESULT:      -7.2     17.757     21.450
REMARK  2 active torsions:
REMARK  status: ('A' for Active; 'I' for Inactive)
REMARK    1  A    between atoms: C5_5  and  N6_21 
REMARK    2  A    between atoms: C18_14  and  N17_19 
ROOT
HETATM    1  O1  MIQ B 502      -6.129  12.677   6.649  1.00142.91    -0.171 OA
HETATM    2  C2  MIQ B 502      -5.703  12.582   7.975  1.00141.17     0.195 A 
HETATM    3  C3  MIQ B 502      -4.487  13.329   8.609  1.00141.71     0.035 A 
HETATM    4  C4  MIQ B 502      -3.489  14.286   8.076  1.00142.86     0.046 A 
HETATM    5  C5  MIQ B 502      -2.475  14.809   8.918  1.00139.53     0.031 A 
HETATM    6  C12 MIQ B 502      -2.416  14.402  10.315  1.00139.38     0.030 A 
HETATM    7  C13 MIQ B 502      -3.374  13.486  10.827  1.00141.18     0.019 A 
HETATM    8  C14 MIQ B 502      -4.437  12.942   9.938  1.00138.77     0.033 A 
HETATM    9  C15 MIQ B 502      -5.630  11.950  10.131  1.00142.10     0.195 A 
HETATM   10  N17 MIQ B 502      -6.227  11.864   8.954  1.00139.42    -0.288 N 
HETATM   11  O16 MIQ B 502      -5.985  11.289  11.308  1.00148.93    -0.171 OA
ENDROOT
BRANCH  10  12
HETATM   12  C18 MIQ B 502      -7.381  11.008   8.751  1.00139.82     0.187 C 
HETATM   13  C19 MIQ B 502      -7.087  10.103   7.548  1.00140.06     0.247 C 
HETATM   14  O25 MIQ B 502      -6.077   9.495   7.518  1.00143.95    -0.271 OA
HETATM   15  N20 MIQ B 502      -8.019   9.970   6.447  1.00140.02    -0.296 N 
HETATM   16  H13 MIQ B 502      -7.812   9.381   5.664  1.00142.77     0.171 HD
HETATM   17  C21 MIQ B 502      -9.240  10.731   6.501  1.00142.22     0.224 C 
HETATM   18  C22 MIQ B 502      -9.167  12.090   7.171  1.00139.52     0.106 C 
HETATM   19  O24 MIQ B 502     -10.249  10.313   6.050  1.00146.13    -0.273 OA
HETATM   20  C23 MIQ B 502      -8.643  11.851   8.575  1.00139.15     0.045 C 
ENDBRANCH  10  12
BRANCH   5  21
HETATM   21  N6  MIQ B 502      -1.495  15.734   8.379  1.00140.95    -0.377 N 
HETATM   22  C7  MIQ B 502      -1.834  16.485   7.183  1.00142.12     0.149 C 
HETATM   23  C8  MIQ B 502      -0.595  16.879   6.389  1.00144.10     0.187 C 
HETATM   24  O9  MIQ B 502       0.404  17.442   7.184  1.00148.65    -0.388 OA
HETATM   25  C10 MIQ B 502       0.307  17.401   8.578  1.00147.44     0.187 C 
HETATM   26  C11 MIQ B 502      -0.421  16.227   9.224  1.00144.08     0.149 C 
ENDBRANCH   5  21
TORSDOF 2
ENDMDL
MODEL 3
REMARK VINA RESULT:      -6.7     19.424     22.377
REMARK  2 active torsions:
REMARK  status: ('A' for Active; 'I' for Inactive)
REMARK    1  A    between atoms: C5_5  and  N6_21 
REMARK    2  A    between atoms: C18_14  and  N17_19 
ROOT
HETATM    1  O1  MIQ B 502      -0.914  13.816   8.990  1.00142.91    -0.171 OA
HETATM    2  C2  MIQ B 502      -1.953  14.687   8.656  1.00141.17     0.195 A 
HETATM    3  C3  MIQ B 502      -3.394  14.277   8.214  1.00141.71     0.035 A 
HETATM    4  C4  MIQ B 502      -4.069  12.971   8.026  1.00142.86     0.046 A 
HETATM    5  C5  MIQ B 502      -5.423  12.918   7.607  1.00139.53     0.031 A 
HETATM    6  C12 MIQ B 502      -6.152  14.154   7.362  1.00139.38     0.030 A 
HETATM    7  C13 MIQ B 502      -5.505  15.406   7.544  1.00141.18     0.019 A 
HETATM    8  C14 MIQ B 502      -4.085  15.456   7.985  1.00138.77     0.033 A 
HETATM    9  C15 MIQ B 502      -3.067  16.604   8.288  1.00142.10     0.195 A 
HETATM   10  N17 MIQ B 502      -1.942  16.009   8.646  1.00139.42    -0.288 N 
HETATM   11  O16 MIQ B 502      -3.303  17.977   8.193  1.00148.93    -0.171 OA
ENDROOT
BRANCH  10  12
HETATM   12  C18 MIQ B 502      -0.757  16.773   8.989  1.00139.82     0.187 C 
HETATM   13  C19 MIQ B 502      -1.155  17.801  10.056  1.00140.06     0.247 C 
HETATM   14  O25 MIQ B 502      -1.738  17.439  11.015  1.00143.95    -0.271 OA
HETATM   15  N20 MIQ B 502      -0.831  19.206   9.921  1.00140.02    -0.296 N 
HETATM   16  H13 MIQ B 502      -1.102  19.868  10.622  1.00142.77     0.171 HD
HETATM   17  C21 MIQ B 502      -0.128  19.626   8.736  1.00142.22     0.224 C 
HETATM   18  C22 MIQ B 502      -0.440  18.873   7.457  1.00139.52     0.106 C 
HETATM   19  O24 MIQ B 502       0.656  20.510   8.763  1.00146.13    -0.273 OA
HETATM   20  C23 MIQ B 502      -0.154  17.409   7.737  1.00139.15     0.045 C 
ENDBRANCH  10  12
BRANCH   5  21
HETATM   21  N6  MIQ B 502      -6.067  11.632   7.412  1.00140.95    -0.377 N 
HETATM   22  C7  MIQ B 502      -7.023  11.492   6.327  1.00142.12     0.149 C 
HETATM   23  C8  MIQ B 502      -8.050  10.403   6.611  1.00144.10     0.187 C 
HETATM   24  O9  MIQ B 502      -7.470   9.212   7.054  1.00148.65    -0.388 OA
HETATM   25  C10 MIQ B 502      -6.118   9.170   7.402  1.00147.44     0.187 C 
HETATM   26  C11 MIQ B 502      -5.470  10.430   7.966  1.00144.08     0.149 C 
ENDBRANCH   5  21
TORSDOF 2
ENDMDL
MODEL 4
REMARK VINA RESULT:      -6.6      3.371      7.595
REMARK  2 active torsions:
REMARK  status: ('A' for Active; 'I' for Inactive)
REMARK    1  A    between atoms: C5_5  and  N6_21 
REMARK    2  A    between atoms: C18_14  and  N17_19 
ROOT
HETATM    1  O1  MIQ B 502     -20.791   5.311  -1.030  1.00142.91    -0.171 OA
HETATM    2  C2  MIQ B 502     -19.976   4.764  -2.025  1.00141.17     0.195 A 
HETATM    3  C3  MIQ B 502     -18.448   5.028  -2.213  1.00141.71     0.035 A 
HETATM    4  C4  MIQ B 502     -17.458   5.852  -1.480  1.00142.86     0.046 A 
HETATM    5  C5  MIQ B 502     -16.105   5.890  -1.901  1.00139.53     0.031 A 
HETATM    6  C12 MIQ B 502     -15.687   5.113  -3.059  1.00139.38     0.030 A 
HETATM    7  C13 MIQ B 502     -16.635   4.322  -3.762  1.00141.18     0.019 A 
HETATM    8  C14 MIQ B 502     -18.054   4.285  -3.314  1.00138.77     0.033 A 
HETATM    9  C15 MIQ B 502     -19.345   3.555  -3.811  1.00142.10     0.195 A 
HETATM   10  N17 MIQ B 502     -20.313   3.925  -2.989  1.00139.42    -0.288 N 
HETATM   11  O16 MIQ B 502     -19.448   2.691  -4.902  1.00148.93    -0.171 OA
ENDROOT
BRANCH  10  12
HETATM   12  C18 MIQ B 502     -21.673   3.449  -3.159  1.00139.82     0.187 C 
HETATM   13  C19 MIQ B 502     -22.589   4.675  -3.255  1.00140.06     0.247 C 
HETATM   14  O25 MIQ B 502     -22.325   5.533  -4.021  1.00143.95    -0.271 OA
HETATM   15  N20 MIQ B 502     -23.777   4.808  -2.436  1.00140.02    -0.296 N 
HETATM   16  H13 MIQ B 502     -24.363   5.617  -2.504  1.00142.77     0.171 HD
HETATM   17  C21 MIQ B 502     -24.073   3.753  -1.502  1.00142.22     0.224 C 
HETATM   18  C22 MIQ B 502     -22.887   3.047  -0.873  1.00139.52     0.106 C 
HETATM   19  O24 MIQ B 502     -25.186   3.451  -1.243  1.00146.13    -0.273 OA
HETATM   20  C23 MIQ B 502     -22.052   2.505  -2.019  1.00139.15     0.045 C 
ENDBRANCH  10  12
BRANCH   5  21
HETATM   21  N6  MIQ B 502     -15.149   6.713  -1.183  1.00140.95    -0.377 N 
HETATM   22  C7  MIQ B 502     -14.942   6.463   0.233  1.00142.12     0.149 C 
HETATM   23  C8  MIQ B 502     -14.470   7.710   0.969  1.00144.10     0.187 C 
HETATM   24  O9  MIQ B 502     -13.420   8.360   0.318  1.00148.65    -0.388 OA
HETATM   25  C10 MIQ B 502     -13.052   7.988  -0.978  1.00147.44     0.187 C 
HETATM   26  C11 MIQ B 502     -14.125   7.440  -1.913  1.00144.08     0.149 C 
ENDBRANCH   5  21
TORSDOF 2
ENDMDL
MODEL 5
REMARK VINA RESULT:      -6.5      4.539      7.868
REMARK  2 active torsions:
REMARK  status: ('A' for Active; 'I' for Inactive)
REMARK    1  A    between atoms: C5_5  and  N6_21 
REMARK    2  A    between atoms: C18_14  and  N17_19 
ROOT
HETATM    1  O1  MIQ B 502     -20.925   7.450  -2.426  1.00142.91    -0.171 OA
HETATM    2  C2  MIQ B 502     -20.328   6.261  -2.851  1.00141.17     0.195 A 
HETATM    3  C3  MIQ B 502     -18.807   5.914  -2.775  1.00141.71     0.035 A 
HETATM    4  C4  MIQ B 502     -17.618   6.647  -2.279  1.00142.86     0.046 A 
HETATM    5  C5  MIQ B 502     -16.332   6.054  -2.343  1.00139.53     0.031 A 
HETATM    6  C12 MIQ B 502     -16.180   4.718  -2.900  1.00139.38     0.030 A 
HETATM    7  C13 MIQ B 502     -17.319   4.014  -3.376  1.00141.18     0.019 A 
HETATM    8  C14 MIQ B 502     -18.668   4.641  -3.303  1.00138.77     0.033 A 
HETATM    9  C15 MIQ B 502     -20.110   4.195  -3.708  1.00142.10     0.195 A 
HETATM   10  N17 MIQ B 502     -20.907   5.202  -3.390  1.00139.42    -0.288 N 
HETATM   11  O16 MIQ B 502     -20.477   2.980  -4.290  1.00148.93    -0.171 OA
ENDROOT
BRANCH  10  12
HETATM   12  C18 MIQ B 502     -22.335   5.146  -3.641  1.00139.82     0.187 C 
HETATM   13  C19 MIQ B 502     -22.715   6.389  -4.455  1.00140.06     0.247 C 
HETATM   14  O25 MIQ B 502     -22.106   6.646  -5.432  1.00143.95    -0.271 OA
HETATM   15  N20 MIQ B 502     -23.807   7.255  -4.062  1.00140.02    -0.296 N 
HETATM   16  H13 MIQ B 502     -24.041   8.067  -4.599  1.00142.77     0.171 HD
HETATM   17  C21 MIQ B 502     -24.530   6.927  -2.860  1.00142.22     0.224 C 
HETATM   18  C22 MIQ B 502     -23.733   6.283  -1.741  1.00139.52     0.106 C 
HETATM   19  O24 MIQ B 502     -25.687   7.144  -2.756  1.00146.13    -0.273 OA
HETATM   20  C23 MIQ B 502     -23.103   5.032  -2.325  1.00139.15     0.045 C 
ENDBRANCH  10  12
BRANCH   5  21
HETATM   21  N6  MIQ B 502     -15.175   6.789  -1.867  1.00140.95    -0.377 N 
HETATM   22  C7  MIQ B 502     -14.742   7.960  -2.609  1.00142.12     0.149 C 
HETATM   23  C8  MIQ B 502     -13.253   8.230  -2.429  1.00144.10     0.187 C 
HETATM   24  O9  MIQ B 502     -12.851   8.188  -1.092  1.00148.65    -0.388 OA
HETATM   25  C10 MIQ B 502     -13.720   7.713  -0.107  1.00147.44     0.187 C 
HETATM   26  C11 MIQ B 502     -14.742   6.647  -0.487  1.00144.08     0.149 C 
ENDBRANCH   5  21
TORSDOF 2
ENDMDL
MODEL 6
REMARK VINA RESULT:      -6.3     18.030     21.657
REMARK  2 active torsions:
REMARK  status: ('A' for Active; 'I' for Inactive)
REMARK    1  A    between atoms: C5_5  and  N6_21 
REMARK    2  A    between atoms: C18_14  and  N17_19 
ROOT
HETATM    1  O1  MIQ B 502      -4.136  11.828   7.744  1.00142.91    -0.171 OA
HETATM    2  C2  MIQ B 502      -5.040  12.891   7.797  1.00141.17     0.195 A 
HETATM    3  C3  MIQ B 502      -4.685  14.391   8.049  1.00141.71     0.035 A 
HETATM    4  C4  MIQ B 502      -3.412  15.111   8.287  1.00142.86     0.046 A 
HETATM    5  C5  MIQ B 502      -3.408  16.515   8.486  1.00139.53     0.031 A 
HETATM    6  C12 MIQ B 502      -4.663  17.252   8.456  1.00139.38     0.030 A 
HETATM    7  C13 MIQ B 502      -5.884  16.563   8.227  1.00141.18     0.019 A 
HETATM    8  C14 MIQ B 502      -5.882  15.089   8.016  1.00138.77     0.033 A 
HETATM    9  C15 MIQ B 502      -6.985  14.016   7.741  1.00142.10     0.195 A 
HETATM   10  N17 MIQ B 502      -6.353  12.858   7.644  1.00139.42    -0.288 N 
HETATM   11  O16 MIQ B 502      -8.358  14.240   7.626  1.00148.93    -0.171 OA
ENDROOT
BRANCH  10  12
HETATM   12  C18 MIQ B 502      -7.071  11.621   7.404  1.00139.82     0.187 C 
HETATM   13  C19 MIQ B 502      -6.763  10.668   8.566  1.00140.06     0.247 C 
HETATM   14  O25 MIQ B 502      -6.900  11.049   9.674  1.00143.95    -0.271 OA
HETATM   15  N20 MIQ B 502      -6.314   9.310   8.341  1.00140.02    -0.296 N 
HETATM   16  H13 MIQ B 502      -6.111   8.700   9.109  1.00142.77     0.171 HD
HETATM   17  C21 MIQ B 502      -6.145   8.872   6.980  1.00142.22     0.224 C 
HETATM   18  C22 MIQ B 502      -5.684   9.915   5.981  1.00139.52     0.106 C 
HETATM   19  O24 MIQ B 502      -6.360   7.755   6.659  1.00146.13    -0.273 OA
HETATM   20  C23 MIQ B 502      -6.696  11.045   6.039  1.00139.15     0.045 C 
ENDBRANCH  10  12
BRANCH   5  21
HETATM   21  N6  MIQ B 502      -2.155  17.205   8.733  1.00140.95    -0.377 N 
HETATM   22  C7  MIQ B 502      -1.012  16.430   9.184  1.00142.12     0.149 C 
HETATM   23  C8  MIQ B 502      -0.035  17.274   9.992  1.00144.10     0.187 C 
HETATM   24  O9  MIQ B 502       0.273  18.488   9.374  1.00148.65    -0.388 OA
HETATM   25  C10 MIQ B 502      -0.451  18.919   8.260  1.00147.44     0.187 C 
HETATM   26  C11 MIQ B 502      -1.914  18.507   8.137  1.00144.08     0.149 C 
ENDBRANCH   5  21
TORSDOF 2
ENDMDL
MODEL 7
REMARK VINA RESULT:      -6.3     19.656     22.517
REMARK  2 active torsions:
REMARK  status: ('A' for Active; 'I' for Inactive)
REMARK    1  A    between atoms: C5_5  and  N6_21 
REMARK    2  A    between atoms: C18_14  and  N17_19 
ROOT
HETATM    1  O1  MIQ B 502      -2.770  16.039   8.279  1.00142.91    -0.171 OA
HETATM    2  C2  MIQ B 502      -2.978  15.292   9.441  1.00141.17     0.195 A 
HETATM    3  C3  MIQ B 502      -3.863  14.011   9.568  1.00141.71     0.035 A 
HETATM    4  C4  MIQ B 502      -4.685  13.241   8.605  1.00142.86     0.046 A 
HETATM    5  C5  MIQ B 502      -5.393  12.088   9.029  1.00139.53     0.031 A 
HETATM    6  C12 MIQ B 502      -5.311  11.659  10.418  1.00139.38     0.030 A 
HETATM    7  C13 MIQ B 502      -4.522  12.397  11.341  1.00141.18     0.019 A 
HETATM    8  C14 MIQ B 502      -3.779  13.605  10.890  1.00138.77     0.033 A 
HETATM    9  C15 MIQ B 502      -2.836  14.639  11.587  1.00142.10     0.195 A 
HETATM   10  N17 MIQ B 502      -2.481  15.501  10.648  1.00139.42    -0.288 N 
HETATM   11  O16 MIQ B 502      -2.453  14.649  12.930  1.00148.93    -0.171 OA
ENDROOT
BRANCH  10  12
HETATM   12  C18 MIQ B 502      -1.609  16.623  10.941  1.00139.82     0.187 C 
HETATM   13  C19 MIQ B 502      -2.290  17.893  10.416  1.00140.06     0.247 C 
HETATM   14  O25 MIQ B 502      -3.409  18.114  10.719  1.00143.95    -0.271 OA
HETATM   15  N20 MIQ B 502      -1.596  18.835   9.562  1.00140.02    -0.296 N 
HETATM   16  H13 MIQ B 502      -2.054  19.657   9.221  1.00142.77     0.171 HD
HETATM   17  C21 MIQ B 502      -0.234  18.539   9.198  1.00142.22     0.224 C 
HETATM   18  C22 MIQ B 502       0.122  17.074   9.028  1.00139.52     0.106 C 
HETATM   19  O24 MIQ B 502       0.565  19.396   9.045  1.00146.13    -0.273 OA
HETATM   20  C23 MIQ B 502      -0.224  16.392  10.339  1.00139.15     0.045 C 
ENDBRANCH  10  12
BRANCH   5  21
HETATM   21  N6  MIQ B 502      -6.206  11.351   8.078  1.00140.95    -0.377 N 
HETATM   22  C7  MIQ B 502      -6.260  11.817   6.703  1.00142.12     0.149 C 
HETATM   23  C8  MIQ B 502      -7.558  11.412   6.016  1.00144.10     0.187 C 
HETATM   24  O9  MIQ B 502      -7.874  10.064   6.203  1.00148.65    -0.388 OA
HETATM   25  C10 MIQ B 502      -7.161   9.292   7.123  1.00147.44     0.187 C 
HETATM   26  C11 MIQ B 502      -6.581   9.976   8.357  1.00144.08     0.149 C 
ENDBRANCH   5  21
TORSDOF 2
ENDMDL
MODEL 8
REMARK VINA RESULT:      -6.3     16.893     20.698
REMARK  2 active torsions:
REMARK  status: ('A' for Active; 'I' for Inactive)
REMARK    1  A    between atoms: C5_5  and  N6_21 
REMARK    2  A    between atoms: C18_14  and  N17_19 
ROOT
HETATM    1  O1  MIQ B 502      -8.011  14.064   7.125  1.00142.91    -0.171 OA
HETATM    2  C2  MIQ B 502      -6.876  13.310   7.434  1.00141.17     0.195 A 
HETATM    3  C3  MIQ B 502      -5.435  13.867   7.665  1.00141.71     0.035 A 
HETATM    4  C4  MIQ B 502      -4.853  15.230   7.640  1.00142.86     0.046 A 
HETATM    5  C5  MIQ B 502      -3.472  15.424   7.898  1.00139.53     0.031 A 
HETATM    6  C12 MIQ B 502      -2.623  14.278   8.190  1.00139.38     0.030 A 
HETATM    7  C13 MIQ B 502      -3.181  12.971   8.215  1.00141.18     0.019 A 
HETATM    8  C14 MIQ B 502      -4.632  12.773   7.945  1.00138.77     0.033 A 
HETATM    9  C15 MIQ B 502      -5.580  11.531   7.889  1.00142.10     0.195 A 
HETATM   10  N17 MIQ B 502      -6.781  12.002   7.598  1.00139.42    -0.288 N 
HETATM   11  O16 MIQ B 502      -5.224  10.198   8.100  1.00148.93    -0.171 OA
ENDROOT
BRANCH  10  12
HETATM   12  C18 MIQ B 502      -7.924  11.121   7.447  1.00139.82     0.187 C 
HETATM   13  C19 MIQ B 502      -8.368  11.176   5.980  1.00140.06     0.247 C 
HETATM   14  O25 MIQ B 502      -7.567  11.008   5.130  1.00143.95    -0.271 OA
HETATM   15  N20 MIQ B 502      -9.745  11.423   5.608  1.00140.02    -0.296 N 
HETATM   16  H13 MIQ B 502     -10.021  11.463   4.646  1.00142.77     0.171 HD
HETATM   17  C21 MIQ B 502     -10.702  11.635   6.663  1.00142.22     0.224 C 
HETATM   18  C22 MIQ B 502     -10.197  12.336   7.909  1.00139.52     0.106 C 
HETATM   19  O24 MIQ B 502     -11.823  11.274   6.563  1.00146.13    -0.273 OA
HETATM   20  C23 MIQ B 502      -9.031  11.513   8.425  1.00139.15     0.045 C 
ENDBRANCH  10  12
BRANCH   5  21
HETATM   21  N6  MIQ B 502      -2.912  16.762   7.856  1.00140.95    -0.377 N 
HETATM   22  C7  MIQ B 502      -3.501  17.789   8.699  1.00142.12     0.149 C 
HETATM   23  C8  MIQ B 502      -3.297  19.184   8.123  1.00144.10     0.187 C 
HETATM   24  O9  MIQ B 502      -1.979  19.421   7.727  1.00148.65    -0.388 OA
HETATM   25  C10 MIQ B 502      -1.057  18.372   7.673  1.00147.44     0.187 C 
HETATM   26  C11 MIQ B 502      -1.565  16.970   7.354  1.00144.08     0.149 C 
ENDBRANCH   5  21
TORSDOF 2
ENDMDL
MODEL 9
REMARK VINA RESULT:      -6.3     16.692     19.998
REMARK  2 active torsions:
REMARK  status: ('A' for Active; 'I' for Inactive)
REMARK    1  A    between atoms: C5_5  and  N6_21 
REMARK    2  A    between atoms: C18_14  and  N17_19 
ROOT
HETATM    1  O1  MIQ B 502      -5.343  12.860   7.250  1.00142.91    -0.171 OA
HETATM    2  C2  MIQ B 502      -6.666  13.130   7.609  1.00141.17     0.195 A 
HETATM    3  C3  MIQ B 502      -7.268  14.537   7.921  1.00141.71     0.035 A 
HETATM    4  C4  MIQ B 502      -6.702  15.907   7.935  1.00142.86     0.046 A 
HETATM    5  C5  MIQ B 502      -7.520  17.017   8.265  1.00139.53     0.031 A 
HETATM    6  C12 MIQ B 502      -8.923  16.809   8.590  1.00139.38     0.030 A 
HETATM    7  C13 MIQ B 502      -9.467  15.496   8.575  1.00141.18     0.019 A 
HETATM    8  C14 MIQ B 502      -8.604  14.335   8.226  1.00138.77     0.033 A 
HETATM    9  C15 MIQ B 502      -8.833  12.793   8.103  1.00142.10     0.195 A 
HETATM   10  N17 MIQ B 502      -7.666  12.277   7.753  1.00139.42    -0.288 N 
HETATM   11  O16 MIQ B 502     -10.028  12.105   8.322  1.00148.93    -0.171 OA
ENDROOT
BRANCH  10  12
HETATM   12  C18 MIQ B 502      -7.496  10.849   7.560  1.00139.82     0.187 C 
HETATM   13  C19 MIQ B 502      -6.308  10.399   8.419  1.00140.06     0.247 C 
HETATM   14  O25 MIQ B 502      -6.276  10.697   9.560  1.00143.95    -0.271 OA
HETATM   15  N20 MIQ B 502      -5.222   9.613   7.869  1.00140.02    -0.296 N 
HETATM   16  H13 MIQ B 502      -4.449   9.331   8.438  1.00142.77     0.171 HD
HETATM   17  C21 MIQ B 502      -5.278   9.272   6.471  1.00142.22     0.224 C 
HETATM   18  C22 MIQ B 502      -5.919  10.288   5.546  1.00139.52     0.106 C 
HETATM   19  O24 MIQ B 502      -4.849   8.247   6.068  1.00146.13    -0.273 OA
HETATM   20  C23 MIQ B 502      -7.321  10.530   6.077  1.00139.15     0.045 C 
ENDBRANCH  10  12
BRANCH   5  21
HETATM   21  N6  MIQ B 502      -6.948  18.351   8.290  1.00140.95    -0.377 N 
HETATM   22  C7  MIQ B 502      -7.768  19.449   8.773  1.00142.12     0.149 C 
HETATM   23  C8  MIQ B 502      -7.345  20.783   8.172  1.00144.10     0.187 C 
HETATM   24  O9  MIQ B 502      -5.966  20.995   8.236  1.00148.65    -0.388 OA
HETATM   25  C10 MIQ B 502      -5.107  19.957   8.606  1.00147.44     0.187 C 
HETATM   26  C11 MIQ B 502      -5.506  18.524   8.269  1.00144.08     0.149 C 
ENDBRANCH   5  21
TORSDOF 2
ENDMDL
