MODEL 1
REMARK VINA RESULT:      -7.2      0.000      0.000
REMARK  2 active torsions:
REMARK  status: ('A' for Active; 'I' for Inactive)
REMARK    1  A    between atoms: C5_5  and  N6_21 
REMARK    2  A    between atoms: C18_14  and  N17_19 
ROOT
HETATM    1  O1  MIQ B 502       0.588   5.870 -18.313  1.00142.91    -0.171 OA
HETATM    2  C2  MIQ B 502       1.342   6.196 -17.184  1.00141.17     0.195 A 
HETATM    3  C3  MIQ B 502       1.305   7.552 -16.410  1.00141.71     0.035 A 
HETATM    4  C4  MIQ B 502       0.541   8.808 -16.592  1.00142.86     0.046 A 
HETATM    5  C5  MIQ B 502       0.728   9.896 -15.702  1.00139.53     0.031 A 
HETATM    6  C12 MIQ B 502       1.676   9.777 -14.604  1.00139.38     0.030 A 
HETATM    7  C13 MIQ B 502       2.408   8.572 -14.428  1.00141.18     0.019 A 
HETATM    8  C14 MIQ B 502       2.206   7.432 -15.364  1.00138.77     0.033 A 
HETATM    9  C15 MIQ B 502       2.805   5.993 -15.489  1.00142.10     0.195 A 
HETATM   10  N17 MIQ B 502       2.221   5.445 -16.542  1.00139.42    -0.288 N 
HETATM   11  O16 MIQ B 502       3.764   5.412 -14.658  1.00148.93    -0.171 OA
ENDROOT
BRANCH  10  12
HETATM   12  C18 MIQ B 502       2.548   4.099 -16.974  1.00139.82     0.187 C 
HETATM   13  C19 MIQ B 502       2.832   4.147 -18.480  1.00140.06     0.247 C 
HETATM   14  O25 MIQ B 502       3.598   4.941 -18.896  1.00143.95    -0.271 OA
HETATM   15  N20 MIQ B 502       2.189   3.239 -19.408  1.00140.02    -0.296 N 
HETATM   16  H13 MIQ B 502       2.378   3.285 -20.390  1.00142.77     0.171 HD
HETATM   17  C21 MIQ B 502       1.250   2.285 -18.877  1.00142.22     0.224 C 
HETATM   18  C22 MIQ B 502       0.431   2.729 -17.681  1.00139.52     0.106 C 
HETATM   19  O24 MIQ B 502       1.130   1.208 -19.349  1.00146.13    -0.273 OA
HETATM   20  C23 MIQ B 502       1.422   3.134 -16.605  1.00139.15     0.045 C 
ENDBRANCH  10  12
BRANCH   5  21
HETATM   21  N6  MIQ B 502      -0.017  11.126 -15.901  1.00140.95    -0.377 N 
HETATM   22  C7  MIQ B 502       0.484  12.348 -15.294  1.00142.12     0.149 C 
HETATM   23  C8  MIQ B 502      -0.632  13.347 -15.022  1.00144.10     0.187 C 
HETATM   24  O9  MIQ B 502      -1.479  13.529 -16.117  1.00148.65    -0.388 OA
HETATM   25  C10 MIQ B 502      -1.395  12.681 -17.225  1.00147.44     0.187 C 
HETATM   26  C11 MIQ B 502      -0.952  11.238 -17.007  1.00144.08     0.149 C 
ENDBRANCH   5  21
TORSDOF 2
ENDMDL
MODEL 2
REMARK VINA RESULT:      -6.7     13.971     16.121
REMARK  2 active torsions:
REMARK  status: ('A' for Active; 'I' for Inactive)
REMARK    1  A    between atoms: C5_5  and  N6_21 
REMARK    2  A    between atoms: C18_14  and  N17_19 
ROOT
HETATM    1  O1  MIQ B 502      17.351   7.006 -14.487  1.00142.91    -0.171 OA
HETATM    2  C2  MIQ B 502      17.128   5.945 -13.607  1.00141.17     0.195 A 
HETATM    3  C3  MIQ B 502      15.744   5.486 -13.048  1.00141.71     0.035 A 
HETATM    4  C4  MIQ B 502      14.356   5.967 -13.243  1.00142.86     0.046 A 
HETATM    5  C5  MIQ B 502      13.276   5.328 -12.583  1.00139.53     0.031 A 
HETATM    6  C12 MIQ B 502      13.534   4.192 -11.709  1.00139.38     0.030 A 
HETATM    7  C13 MIQ B 502      14.865   3.730 -11.523  1.00141.18     0.019 A 
HETATM    8  C14 MIQ B 502      15.994   4.403 -12.220  1.00138.77     0.033 A 
HETATM    9  C15 MIQ B 502      17.542   4.188 -12.267  1.00142.10     0.195 A 
HETATM   10  N17 MIQ B 502      18.016   5.119 -13.079  1.00139.42    -0.288 N 
HETATM   11  O16 MIQ B 502      18.271   3.212 -11.586  1.00148.93    -0.171 OA
ENDROOT
BRANCH  10  12
HETATM   12  C18 MIQ B 502      19.436   5.235 -13.351  1.00139.82     0.187 C 
HETATM   13  C19 MIQ B 502      19.848   6.687 -13.078  1.00140.06     0.247 C 
HETATM   14  O25 MIQ B 502      19.555   7.184 -12.049  1.00143.95    -0.271 OA
HETATM   15  N20 MIQ B 502      20.593   7.465 -14.046  1.00140.02    -0.296 N 
HETATM   16  H13 MIQ B 502      20.851   8.414 -13.858  1.00142.77     0.171 HD
HETATM   17  C21 MIQ B 502      20.930   6.839 -15.299  1.00142.22     0.224 C 
HETATM   18  C22 MIQ B 502      19.932   5.839 -15.851  1.00139.52     0.106 C 
HETATM   19  O24 MIQ B 502      21.938   7.089 -15.863  1.00146.13    -0.273 OA
HETATM   20  C23 MIQ B 502      19.742   4.782 -14.778  1.00139.15     0.045 C 
ENDBRANCH  10  12
BRANCH   5  21
HETATM   21  N6  MIQ B 502      11.923   5.819 -12.771  1.00140.95    -0.377 N 
HETATM   22  C7  MIQ B 502      10.906   4.892 -13.237  1.00142.12     0.149 C 
HETATM   23  C8  MIQ B 502       9.786   5.605 -13.983  1.00144.10     0.187 C 
HETATM   24  O9  MIQ B 502       9.306   6.725 -13.301  1.00148.65    -0.388 OA
HETATM   25  C10 MIQ B 502       9.982   7.216 -12.182  1.00147.44     0.187 C 
HETATM   26  C11 MIQ B 502      11.495   7.038 -12.108  1.00144.08     0.149 C 
ENDBRANCH   5  21
TORSDOF 2
ENDMDL
MODEL 3
REMARK VINA RESULT:      -6.7      1.106      2.433
REMARK  2 active torsions:
REMARK  status: ('A' for Active; 'I' for Inactive)
REMARK    1  A    between atoms: C5_5  and  N6_21 
REMARK    2  A    between atoms: C18_14  and  N17_19 
ROOT
HETATM    1  O1  MIQ B 502       2.874   6.948 -15.220  1.00142.91    -0.171 OA
HETATM    2  C2  MIQ B 502       1.956   6.877 -16.271  1.00141.17     0.195 A 
HETATM    3  C3  MIQ B 502       0.997   8.019 -16.736  1.00141.71     0.035 A 
HETATM    4  C4  MIQ B 502       0.766   9.408 -16.272  1.00142.86     0.046 A 
HETATM    5  C5  MIQ B 502      -0.198  10.226 -16.912  1.00139.53     0.031 A 
HETATM    6  C12 MIQ B 502      -0.965   9.699 -18.032  1.00139.38     0.030 A 
HETATM    7  C13 MIQ B 502      -0.743   8.368 -18.478  1.00141.18     0.019 A 
HETATM    8  C14 MIQ B 502       0.273   7.514 -17.803  1.00138.77     0.033 A 
HETATM    9  C15 MIQ B 502       0.785   6.050 -18.002  1.00142.10     0.195 A 
HETATM   10  N17 MIQ B 502       1.713   5.859 -17.079  1.00139.42    -0.288 N 
HETATM   11  O16 MIQ B 502       0.347   5.134 -18.960  1.00148.93    -0.171 OA
ENDROOT
BRANCH  10  12
HETATM   12  C18 MIQ B 502       2.406   4.591 -16.952  1.00139.82     0.187 C 
HETATM   13  C19 MIQ B 502       2.912   4.193 -18.344  1.00140.06     0.247 C 
HETATM   14  O25 MIQ B 502       3.532   4.972 -18.976  1.00143.95    -0.271 OA
HETATM   15  N20 MIQ B 502       2.654   2.882 -18.905  1.00140.02    -0.296 N 
HETATM   16  H13 MIQ B 502       2.983   2.637 -19.817  1.00142.77     0.171 HD
HETATM   17  C21 MIQ B 502       1.885   1.952 -18.119  1.00142.22     0.224 C 
HETATM   18  C22 MIQ B 502       0.803   2.539 -17.233  1.00139.52     0.106 C 
HETATM   19  O24 MIQ B 502       2.093   0.789 -18.159  1.00146.13    -0.273 OA
HETATM   20  C23 MIQ B 502       1.488   3.544 -16.324  1.00139.15     0.045 C 
ENDBRANCH  10  12
BRANCH   5  21
HETATM   21  N6  MIQ B 502      -0.424  11.579 -16.438  1.00140.95    -0.377 N 
HETATM   22  C7  MIQ B 502      -1.707  12.205 -16.710  1.00142.12     0.149 C 
HETATM   23  C8  MIQ B 502      -1.599  13.724 -16.760  1.00144.10     0.187 C 
HETATM   24  O9  MIQ B 502      -0.893  14.255 -15.679  1.00148.65    -0.388 OA
HETATM   25  C10 MIQ B 502      -0.189  13.415 -14.813  1.00147.44     0.187 C 
HETATM   26  C11 MIQ B 502       0.395  12.119 -15.367  1.00144.08     0.149 C 
ENDBRANCH   5  21
TORSDOF 2
ENDMDL
MODEL 4
REMARK VINA RESULT:      -6.6     14.112     16.188
REMARK  2 active torsions:
REMARK  status: ('A' for Active; 'I' for Inactive)
REMARK    1  A    between atoms: C5_5  and  N6_21 
REMARK    2  A    between atoms: C18_14  and  N17_19 
ROOT
HETATM    1  O1  MIQ B 502      16.327   2.663 -11.009  1.00142.91    -0.171 OA
HETATM    2  C2  MIQ B 502      16.733   3.780 -11.742  1.00141.17     0.195 A 
HETATM    3  C3  MIQ B 502      15.796   4.860 -12.372  1.00141.71     0.035 A 
HETATM    4  C4  MIQ B 502      14.325   5.043 -12.398  1.00142.86     0.046 A 
HETATM    5  C5  MIQ B 502      13.753   6.153 -13.068  1.00139.53     0.031 A 
HETATM    6  C12 MIQ B 502      14.616   7.119 -13.734  1.00139.38     0.030 A 
HETATM    7  C13 MIQ B 502      16.026   6.944 -13.709  1.00141.18     0.019 A 
HETATM    8  C14 MIQ B 502      16.621   5.777 -13.001  1.00138.77     0.033 A 
HETATM    9  C15 MIQ B 502      18.078   5.265 -12.760  1.00142.10     0.195 A 
HETATM   10  N17 MIQ B 502      17.963   4.156 -12.048  1.00139.42    -0.288 N 
HETATM   11  O16 MIQ B 502      19.259   5.859 -13.210  1.00148.93    -0.171 OA
ENDROOT
BRANCH  10  12
HETATM   12  C18 MIQ B 502      19.127   3.389 -11.646  1.00139.82     0.187 C 
HETATM   13  C19 MIQ B 502      18.901   1.935 -12.078  1.00140.06     0.247 C 
HETATM   14  O25 MIQ B 502      18.586   1.707 -13.192  1.00143.95    -0.271 OA
HETATM   15  N20 MIQ B 502      19.068   0.830 -11.157  1.00140.02    -0.296 N 
HETATM   16  H13 MIQ B 502      18.911  -0.115 -11.449  1.00142.77     0.171 HD
HETATM   17  C21 MIQ B 502      19.442   1.134  -9.799  1.00142.22     0.224 C 
HETATM   18  C22 MIQ B 502      18.908   2.429  -9.219  1.00139.52     0.106 C 
HETATM   19  O24 MIQ B 502      20.135   0.410  -9.173  1.00146.13    -0.273 OA
HETATM   20  C23 MIQ B 502      19.371   3.539 -10.145  1.00139.15     0.045 C 
ENDBRANCH  10  12
BRANCH   5  21
HETATM   21  N6  MIQ B 502      12.310   6.312 -13.098  1.00140.95    -0.377 N 
HETATM   22  C7  MIQ B 502      11.482   5.122 -13.191  1.00142.12     0.149 C 
HETATM   23  C8  MIQ B 502      10.137   5.415 -13.843  1.00144.10     0.187 C 
HETATM   24  O9  MIQ B 502       9.507   6.540 -13.307  1.00148.65    -0.388 OA
HETATM   25  C10 MIQ B 502      10.197   7.392 -12.440  1.00147.44     0.187 C 
HETATM   26  C11 MIQ B 502      11.705   7.538 -12.608  1.00144.08     0.149 C 
ENDBRANCH   5  21
TORSDOF 2
ENDMDL
MODEL 5
REMARK VINA RESULT:      -6.6     14.311     16.804
REMARK  2 active torsions:
REMARK  status: ('A' for Active; 'I' for Inactive)
REMARK    1  A    between atoms: C5_5  and  N6_21 
REMARK    2  A    between atoms: C18_14  and  N17_19 
ROOT
HETATM    1  O1  MIQ B 502      15.483   4.215  -7.879  1.00142.91    -0.171 OA
HETATM    2  C2  MIQ B 502      16.051   4.048  -9.143  1.00141.17     0.195 A 
HETATM    3  C3  MIQ B 502      15.344   4.301 -10.513  1.00141.71     0.035 A 
HETATM    4  C4  MIQ B 502      13.984   4.757 -10.889  1.00142.86     0.046 A 
HETATM    5  C5  MIQ B 502      13.627   4.896 -12.254  1.00139.53     0.031 A 
HETATM    6  C12 MIQ B 502      14.602   4.590 -13.291  1.00139.38     0.030 A 
HETATM    7  C13 MIQ B 502      15.906   4.154 -12.931  1.00141.18     0.019 A 
HETATM    8  C14 MIQ B 502      16.276   4.012 -11.496  1.00138.77     0.033 A 
HETATM    9  C15 MIQ B 502      17.569   3.577 -10.733  1.00142.10     0.195 A 
HETATM   10  N17 MIQ B 502      17.277   3.655  -9.445  1.00139.42    -0.288 N 
HETATM   11  O16 MIQ B 502      18.782   3.184 -11.300  1.00148.93    -0.171 OA
ENDROOT
BRANCH  10  12
HETATM   12  C18 MIQ B 502      18.248   3.305  -8.425  1.00139.82     0.187 C 
HETATM   13  C19 MIQ B 502      17.580   2.314  -7.464  1.00140.06     0.247 C 
HETATM   14  O25 MIQ B 502      17.040   1.361  -7.902  1.00143.95    -0.271 OA
HETATM   15  N20 MIQ B 502      17.600   2.511  -6.029  1.00140.02    -0.296 N 
HETATM   16  H13 MIQ B 502      17.154   1.860  -5.412  1.00142.77     0.171 HD
HETATM   17  C21 MIQ B 502      18.256   3.686  -5.518  1.00142.22     0.224 C 
HETATM   18  C22 MIQ B 502      18.183   4.935  -6.376  1.00139.52     0.106 C 
HETATM   19  O24 MIQ B 502      18.828   3.675  -4.484  1.00146.13    -0.273 OA
HETATM   20  C23 MIQ B 502      18.764   4.563  -7.728  1.00139.15     0.045 C 
ENDBRANCH  10  12
BRANCH   5  21
HETATM   21  N6  MIQ B 502      12.288   5.330 -12.608  1.00140.95    -0.377 N 
HETATM   22  C7  MIQ B 502      12.011   6.755 -12.664  1.00142.12     0.149 C 
HETATM   23  C8  MIQ B 502      10.542   7.059 -12.401  1.00144.10     0.187 C 
HETATM   24  O9  MIQ B 502       9.678   6.254 -13.145  1.00148.65    -0.388 OA
HETATM   25  C10 MIQ B 502      10.169   5.153 -13.852  1.00147.44     0.187 C 
HETATM   26  C11 MIQ B 502      11.393   4.424 -13.308  1.00144.08     0.149 C 
ENDBRANCH   5  21
TORSDOF 2
ENDMDL
MODEL 6
REMARK VINA RESULT:      -6.6      3.407      8.396
REMARK  2 active torsions:
REMARK  status: ('A' for Active; 'I' for Inactive)
REMARK    1  A    between atoms: C5_5  and  N6_21 
REMARK    2  A    between atoms: C18_14  and  N17_19 
ROOT
HETATM    1  O1  MIQ B 502      -1.531   8.925 -16.435  1.00142.91    -0.171 OA
HETATM    2  C2  MIQ B 502      -0.890   8.794 -17.669  1.00141.17     0.195 A 
HETATM    3  C3  MIQ B 502      -0.877   7.519 -18.572  1.00141.71     0.035 A 
HETATM    4  C4  MIQ B 502      -1.477   6.170 -18.438  1.00142.86     0.046 A 
HETATM    5  C5  MIQ B 502      -1.287   5.197 -19.452  1.00139.53     0.031 A 
HETATM    6  C12 MIQ B 502      -0.497   5.527 -20.630  1.00139.38     0.030 A 
HETATM    7  C13 MIQ B 502       0.077   6.820 -20.759  1.00141.18     0.019 A 
HETATM    8  C14 MIQ B 502      -0.128   7.838 -19.693  1.00138.77     0.033 A 
HETATM    9  C15 MIQ B 502       0.326   9.320 -19.485  1.00142.10     0.195 A 
HETATM   10  N17 MIQ B 502      -0.180   9.698 -18.323  1.00139.42    -0.288 N 
HETATM   11  O16 MIQ B 502       1.110  10.083 -20.353  1.00148.93    -0.171 OA
ENDROOT
BRANCH  10  12
HETATM   12  C18 MIQ B 502       0.053  11.028 -17.792  1.00139.82     0.187 C 
HETATM   13  C19 MIQ B 502       0.506  10.877 -16.335  1.00140.06     0.247 C 
HETATM   14  O25 MIQ B 502       1.390  10.140 -16.080  1.00143.95    -0.271 OA
HETATM   15  N20 MIQ B 502      -0.120  11.620 -15.260  1.00140.02    -0.296 N 
HETATM   16  H13 MIQ B 502       0.181  11.507 -14.312  1.00142.77     0.171 HD
HETATM   17  C21 MIQ B 502      -1.205  12.506 -15.595  1.00142.22     0.224 C 
HETATM   18  C22 MIQ B 502      -2.102  12.082 -16.742  1.00139.52     0.106 C 
HETATM   19  O24 MIQ B 502      -1.381  13.516 -15.007  1.00146.13    -0.273 OA
HETATM   20  C23 MIQ B 502      -1.199  11.890 -17.947  1.00139.15     0.045 C 
ENDBRANCH  10  12
BRANCH   5  21
HETATM   21  N6  MIQ B 502      -1.867   3.876 -19.301  1.00140.95    -0.377 N 
HETATM   22  C7  MIQ B 502      -2.694   3.354 -20.375  1.00142.12     0.149 C 
HETATM   23  C8  MIQ B 502      -3.713   2.341 -19.868  1.00144.10     0.187 C 
HETATM   24  O9  MIQ B 502      -3.151   1.379 -19.026  1.00148.65    -0.388 OA
HETATM   25  C10 MIQ B 502      -1.844   1.528 -18.555  1.00147.44     0.187 C 
HETATM   26  C11 MIQ B 502      -1.299   2.938 -18.348  1.00144.08     0.149 C 
ENDBRANCH   5  21
TORSDOF 2
ENDMDL
MODEL 7
REMARK VINA RESULT:      -6.5     15.885     18.563
REMARK  2 active torsions:
REMARK  status: ('A' for Active; 'I' for Inactive)
REMARK    1  A    between atoms: C5_5  and  N6_21 
REMARK    2  A    between atoms: C18_14  and  N17_19 
ROOT
HETATM    1  O1  MIQ B 502      18.751   4.669  -8.950  1.00142.91    -0.171 OA
HETATM    2  C2  MIQ B 502      17.517   4.520  -9.588  1.00141.17     0.195 A 
HETATM    3  C3  MIQ B 502      17.231   4.748 -11.106  1.00141.71     0.035 A 
HETATM    4  C4  MIQ B 502      18.079   5.150 -12.254  1.00142.86     0.046 A 
HETATM    5  C5  MIQ B 502      17.518   5.275 -13.550  1.00139.53     0.031 A 
HETATM    6  C12 MIQ B 502      16.102   5.005 -13.754  1.00139.38     0.030 A 
HETATM    7  C13 MIQ B 502      15.290   4.618 -12.654  1.00141.18     0.019 A 
HETATM    8  C14 MIQ B 502      15.884   4.487 -11.296  1.00138.77     0.033 A 
HETATM    9  C15 MIQ B 502      15.331   4.094  -9.887  1.00142.10     0.195 A 
HETATM   10  N17 MIQ B 502      16.360   4.160  -9.059  1.00139.42    -0.288 N 
HETATM   11  O16 MIQ B 502      14.016   3.747  -9.573  1.00148.93    -0.171 OA
ENDROOT
BRANCH  10  12
HETATM   12  C18 MIQ B 502      16.214   3.872  -7.645  1.00139.82     0.187 C 
HETATM   13  C19 MIQ B 502      16.719   5.091  -6.864  1.00140.06     0.247 C 
HETATM   14  O25 MIQ B 502      16.307   6.162  -7.140  1.00143.95    -0.271 OA
HETATM   15  N20 MIQ B 502      17.684   4.966  -5.791  1.00140.02    -0.296 N 
HETATM   16  H13 MIQ B 502      18.010   5.771  -5.294  1.00142.77     0.171 HD
HETATM   17  C21 MIQ B 502      18.179   3.650  -5.480  1.00142.22     0.224 C 
HETATM   18  C22 MIQ B 502      18.320   2.683  -6.640  1.00139.52     0.106 C 
HETATM   19  O24 MIQ B 502      18.456   3.340  -4.374  1.00146.13    -0.273 OA
HETATM   20  C23 MIQ B 502      16.951   2.582  -7.286  1.00139.15     0.045 C 
ENDBRANCH  10  12
BRANCH   5  21
HETATM   21  N6  MIQ B 502      18.357   5.684 -14.662  1.00140.95    -0.377 N 
HETATM   22  C7  MIQ B 502      18.653   7.097 -14.826  1.00142.12     0.149 C 
HETATM   23  C8  MIQ B 502      18.948   7.452 -16.277  1.00144.10     0.187 C 
HETATM   24  O9  MIQ B 502      19.858   6.578 -16.876  1.00148.65    -0.388 OA
HETATM   25  C10 MIQ B 502      20.232   5.396 -16.233  1.00147.44     0.187 C 
HETATM   26  C11 MIQ B 502      19.225   4.717 -15.310  1.00144.08     0.149 C 
ENDBRANCH   5  21
TORSDOF 2
ENDMDL
MODEL 8
REMARK VINA RESULT:      -6.5      3.642      8.473
REMARK  2 active torsions:
REMARK  status: ('A' for Active; 'I' for Inactive)
REMARK    1  A    between atoms: C5_5  and  N6_21 
REMARK    2  A    between atoms: C18_14  and  N17_19 
ROOT
HETATM    1  O1  MIQ B 502       1.027   9.953 -20.104  1.00142.91    -0.171 OA
HETATM    2  C2  MIQ B 502       0.166   9.341 -19.191  1.00141.17     0.195 A 
HETATM    3  C3  MIQ B 502      -0.449   7.911 -19.319  1.00141.71     0.035 A 
HETATM    4  C4  MIQ B 502      -0.335   6.840 -20.338  1.00142.86     0.046 A 
HETATM    5  C5  MIQ B 502      -1.031   5.616 -20.172  1.00139.53     0.031 A 
HETATM    6  C12 MIQ B 502      -1.860   5.410 -18.993  1.00139.38     0.030 A 
HETATM    7  C13 MIQ B 502      -1.969   6.436 -18.016  1.00141.18     0.019 A 
HETATM    8  C14 MIQ B 502      -1.234   7.718 -18.194  1.00138.77     0.033 A 
HETATM    9  C15 MIQ B 502      -1.106   9.036 -17.363  1.00142.10     0.195 A 
HETATM   10  N17 MIQ B 502      -0.297   9.825 -18.051  1.00139.42    -0.288 N 
HETATM   11  O16 MIQ B 502      -1.724   9.319 -16.144  1.00148.93    -0.171 OA
ENDROOT
BRANCH  10  12
HETATM   12  C18 MIQ B 502       0.043  11.156 -17.583  1.00139.82     0.187 C 
HETATM   13  C19 MIQ B 502       0.495  11.037 -16.122  1.00140.06     0.247 C 
HETATM   14  O25 MIQ B 502       1.323  10.246 -15.838  1.00143.95    -0.271 OA
HETATM   15  N20 MIQ B 502      -0.062  11.873 -15.079  1.00140.02    -0.296 N 
HETATM   16  H13 MIQ B 502       0.237  11.781 -14.129  1.00142.77     0.171 HD
HETATM   17  C21 MIQ B 502      -1.079  12.824 -15.449  1.00142.22     0.224 C 
HETATM   18  C22 MIQ B 502      -2.016  12.418 -16.570  1.00139.52     0.106 C 
HETATM   19  O24 MIQ B 502      -1.173  13.870 -14.907  1.00146.13    -0.273 OA
HETATM   20  C23 MIQ B 502      -1.142  12.103 -17.770  1.00139.15     0.045 C 
ENDBRANCH  10  12
BRANCH   5  21
HETATM   21  N6  MIQ B 502      -0.922   4.582 -21.185  1.00140.95    -0.377 N 
HETATM   22  C7  MIQ B 502      -0.065   4.822 -22.333  1.00142.12     0.149 C 
HETATM   23  C8  MIQ B 502      -0.515   4.030 -23.554  1.00144.10     0.187 C 
HETATM   24  O9  MIQ B 502      -0.767   2.687 -23.268  1.00148.65    -0.388 OA
HETATM   25  C10 MIQ B 502      -0.811   2.242 -21.945  1.00147.44     0.187 C 
HETATM   26  C11 MIQ B 502      -1.278   3.211 -20.864  1.00144.08     0.149 C 
ENDBRANCH   5  21
TORSDOF 2
ENDMDL
MODEL 9
REMARK VINA RESULT:      -6.4     16.367     19.003
REMARK  2 active torsions:
REMARK  status: ('A' for Active; 'I' for Inactive)
REMARK    1  A    between atoms: C5_5  and  N6_21 
REMARK    2  A    between atoms: C18_14  and  N17_19 
ROOT
HETATM    1  O1  MIQ B 502      19.291   5.420 -12.013  1.00142.91    -0.171 OA
HETATM    2  C2  MIQ B 502      18.023   5.034 -11.573  1.00141.17     0.195 A 
HETATM    3  C3  MIQ B 502      17.658   4.527 -10.142  1.00141.71     0.035 A 
HETATM    4  C4  MIQ B 502      18.447   4.311  -8.906  1.00142.86     0.046 A 
HETATM    5  C5  MIQ B 502      17.819   3.829  -7.729  1.00139.53     0.031 A 
HETATM    6  C12 MIQ B 502      16.390   3.547  -7.737  1.00139.38     0.030 A 
HETATM    7  C13 MIQ B 502      15.634   3.755  -8.922  1.00141.18     0.019 A 
HETATM    8  C14 MIQ B 502      16.299   4.262 -10.153  1.00138.77     0.033 A 
HETATM    9  C15 MIQ B 502      15.816   4.609 -11.600  1.00142.10     0.195 A 
HETATM   10  N17 MIQ B 502      16.889   5.022 -12.253  1.00139.42    -0.288 N 
HETATM   11  O16 MIQ B 502      14.516   4.499 -12.096  1.00148.93    -0.171 OA
ENDROOT
BRANCH  10  12
HETATM   12  C18 MIQ B 502      16.821   5.417 -13.648  1.00139.82     0.187 C 
HETATM   13  C19 MIQ B 502      17.910   4.648 -14.406  1.00140.06     0.247 C 
HETATM   14  O25 MIQ B 502      17.980   3.477 -14.283  1.00143.95    -0.271 OA
HETATM   15  N20 MIQ B 502      18.855   5.320 -15.275  1.00140.02    -0.296 N 
HETATM   16  H13 MIQ B 502      19.566   4.807 -15.759  1.00142.77     0.171 HD
HETATM   17  C21 MIQ B 502      18.757   6.751 -15.400  1.00142.22     0.224 C 
HETATM   18  C22 MIQ B 502      18.302   7.513 -14.170  1.00139.52     0.106 C 
HETATM   19  O24 MIQ B 502      19.013   7.302 -16.414  1.00146.13    -0.273 OA
HETATM   20  C23 MIQ B 502      16.955   6.934 -13.777  1.00139.15     0.045 C 
ENDBRANCH  10  12
BRANCH   5  21
HETATM   21  N6  MIQ B 502      18.606   3.608  -6.530  1.00140.95    -0.377 N 
HETATM   22  C7  MIQ B 502      18.373   4.463  -5.379  1.00142.12     0.149 C 
HETATM   23  C8  MIQ B 502      19.609   4.578  -4.496  1.00144.10     0.187 C 
HETATM   24  O9  MIQ B 502      20.191   3.341  -4.213  1.00148.65    -0.388 OA
HETATM   25  C10 MIQ B 502      19.775   2.191  -4.889  1.00147.44     0.187 C 
HETATM   26  C11 MIQ B 502      19.265   2.331  -6.320  1.00144.08     0.149 C 
ENDBRANCH   5  21
TORSDOF 2
ENDMDL
