MODEL 1
REMARK VINA RESULT:      -7.2      0.000      0.000
REMARK  2 active torsions:
REMARK  status: ('A' for Active; 'I' for Inactive)
REMARK    1  A    between atoms: C5_5  and  N6_21 
REMARK    2  A    between atoms: C18_14  and  N17_19 
ROOT
HETATM    1  O1  MIQ B 502      -4.672  16.341  -7.267  1.00142.91    -0.171 OA
HETATM    2  C2  MIQ B 502      -4.588  16.363  -8.661  1.00141.17     0.195 A 
HETATM    3  C3  MIQ B 502      -3.743  17.358  -9.519  1.00141.71     0.035 A 
HETATM    4  C4  MIQ B 502      -2.842  18.485  -9.180  1.00142.86     0.046 A 
HETATM    5  C5  MIQ B 502      -2.197  19.221 -10.205  1.00139.53     0.031 A 
HETATM    6  C12 MIQ B 502      -2.421  18.866 -11.599  1.00139.38     0.030 A 
HETATM    7  C13 MIQ B 502      -3.284  17.785 -11.925  1.00141.18     0.019 A 
HETATM    8  C14 MIQ B 502      -3.956  17.014 -10.844  1.00138.77     0.033 A 
HETATM    9  C15 MIQ B 502      -4.939  15.798 -10.809  1.00142.10     0.195 A 
HETATM   10  N17 MIQ B 502      -5.186  15.566  -9.530  1.00139.42    -0.288 N 
HETATM   11  O16 MIQ B 502      -5.451  15.106 -11.907  1.00148.93    -0.171 OA
ENDROOT
BRANCH  10  12
HETATM   12  C18 MIQ B 502      -6.083  14.504  -9.113  1.00139.82     0.187 C 
HETATM   13  C19 MIQ B 502      -7.147  15.123  -8.198  1.00140.06     0.247 C 
HETATM   14  O25 MIQ B 502      -7.735  16.078  -8.563  1.00143.95    -0.271 OA
HETATM   15  N20 MIQ B 502      -7.455  14.563  -6.898  1.00140.02    -0.296 N 
HETATM   16  H13 MIQ B 502      -8.148  14.980  -6.308  1.00142.77     0.171 HD
HETATM   17  C21 MIQ B 502      -6.717  13.403  -6.471  1.00142.22     0.224 C 
HETATM   18  C22 MIQ B 502      -5.274  13.307  -6.929  1.00139.52     0.106 C 
HETATM   19  O24 MIQ B 502      -7.214  12.566  -5.801  1.00146.13    -0.273 OA
HETATM   20  C23 MIQ B 502      -5.298  13.376  -8.445  1.00139.15     0.045 C 
ENDBRANCH  10  12
BRANCH   5  21
HETATM   21  N6  MIQ B 502      -1.330  20.332  -9.859  1.00140.95    -0.377 N 
HETATM   22  C7  MIQ B 502      -1.926  21.641  -9.653  1.00142.12     0.149 C 
HETATM   23  C8  MIQ B 502      -0.940  22.766  -9.939  1.00144.10     0.187 C 
HETATM   24  O9  MIQ B 502       0.299  22.572  -9.326  1.00148.65    -0.388 OA
HETATM   25  C10 MIQ B 502       0.609  21.347  -8.729  1.00147.44     0.187 C 
HETATM   26  C11 MIQ B 502      -0.012  20.078  -9.303  1.00144.08     0.149 C 
ENDBRANCH   5  21
TORSDOF 2
ENDMDL
MODEL 2
REMARK VINA RESULT:      -7.1     15.058     18.542
REMARK  2 active torsions:
REMARK  status: ('A' for Active; 'I' for Inactive)
REMARK    1  A    between atoms: C5_5  and  N6_21 
REMARK    2  A    between atoms: C18_14  and  N17_19 
ROOT
HETATM    1  O1  MIQ B 502     -15.787   4.395 -12.150  1.00142.91    -0.171 OA
HETATM    2  C2  MIQ B 502     -15.457   3.042 -12.260  1.00141.17     0.195 A 
HETATM    3  C3  MIQ B 502     -14.056   2.462 -12.632  1.00141.71     0.035 A 
HETATM    4  C4  MIQ B 502     -12.748   3.082 -12.953  1.00142.86     0.046 A 
HETATM    5  C5  MIQ B 502     -11.626   2.271 -13.256  1.00139.53     0.031 A 
HETATM    6  C12 MIQ B 502     -11.759   0.822 -13.251  1.00139.38     0.030 A 
HETATM    7  C13 MIQ B 502     -13.011   0.226 -12.942  1.00141.18     0.019 A 
HETATM    8  C14 MIQ B 502     -14.186   1.082 -12.622  1.00138.77     0.033 A 
HETATM    9  C15 MIQ B 502     -15.677   0.805 -12.242  1.00142.10     0.195 A 
HETATM   10  N17 MIQ B 502     -16.238   1.991 -12.074  1.00139.42    -0.288 N 
HETATM   11  O16 MIQ B 502     -16.288  -0.443 -12.111  1.00148.93    -0.171 OA
ENDROOT
BRANCH  10  12
HETATM   12  C18 MIQ B 502     -17.640   2.123 -11.725  1.00139.82     0.187 C 
HETATM   13  C19 MIQ B 502     -18.280   3.099 -12.720  1.00140.06     0.247 C 
HETATM   14  O25 MIQ B 502     -18.128   2.924 -13.877  1.00143.95    -0.271 OA
HETATM   15  N20 MIQ B 502     -19.071   4.230 -12.280  1.00140.02    -0.296 N 
HETATM   16  H13 MIQ B 502     -19.478   4.864 -12.940  1.00142.77     0.171 HD
HETATM   17  C21 MIQ B 502     -19.233   4.429 -10.863  1.00142.22     0.224 C 
HETATM   18  C22 MIQ B 502     -18.065   4.030  -9.981  1.00139.52     0.106 C 
HETATM   19  O24 MIQ B 502     -20.230   4.876 -10.412  1.00146.13    -0.273 OA
HETATM   20  C23 MIQ B 502     -17.787   2.566 -10.270  1.00139.15     0.045 C 
ENDBRANCH  10  12
BRANCH   5  21
HETATM   21  N6  MIQ B 502     -10.355   2.893 -13.584  1.00140.95    -0.377 N 
HETATM   22  C7  MIQ B 502      -9.600   2.376 -14.712  1.00142.12     0.149 C 
HETATM   23  C8  MIQ B 502      -8.105   2.631 -14.560  1.00144.10     0.187 C 
HETATM   24  O9  MIQ B 502      -7.813   3.947 -14.198  1.00148.65    -0.388 OA
HETATM   25  C10 MIQ B 502      -8.833   4.817 -13.804  1.00147.44     0.187 C 
HETATM   26  C11 MIQ B 502     -10.061   4.234 -13.111  1.00144.08     0.149 C 
ENDBRANCH   5  21
TORSDOF 2
ENDMDL
MODEL 3
REMARK VINA RESULT:      -7.1     17.763     21.317
REMARK  2 active torsions:
REMARK  status: ('A' for Active; 'I' for Inactive)
REMARK    1  A    between atoms: C5_5  and  N6_21 
REMARK    2  A    between atoms: C18_14  and  N17_19 
ROOT
HETATM    1  O1  MIQ B 502     -14.508   2.083 -11.350  1.00142.91    -0.171 OA
HETATM    2  C2  MIQ B 502     -15.505   1.670 -12.236  1.00141.17     0.195 A 
HETATM    3  C3  MIQ B 502     -17.042   1.661 -11.957  1.00141.71     0.035 A 
HETATM    4  C4  MIQ B 502     -17.868   2.050 -10.789  1.00142.86     0.046 A 
HETATM    5  C5  MIQ B 502     -19.279   1.927 -10.837  1.00139.53     0.031 A 
HETATM    6  C12 MIQ B 502     -19.920   1.417 -12.040  1.00139.38     0.030 A 
HETATM    7  C13 MIQ B 502     -19.129   1.045 -13.161  1.00141.18     0.019 A 
HETATM    8  C14 MIQ B 502     -17.647   1.179 -13.106  1.00138.77     0.033 A 
HETATM    9  C15 MIQ B 502     -16.480   0.886 -14.104  1.00142.10     0.195 A 
HETATM   10  N17 MIQ B 502     -15.366   1.214 -13.469  1.00139.42    -0.288 N 
HETATM   11  O16 MIQ B 502     -16.595   0.380 -15.400  1.00148.93    -0.171 OA
ENDROOT
BRANCH  10  12
HETATM   12  C18 MIQ B 502     -14.066   1.058 -14.093  1.00139.82     0.187 C 
HETATM   13  C19 MIQ B 502     -13.205   0.189 -13.168  1.00140.06     0.247 C 
HETATM   14  O25 MIQ B 502     -13.633  -0.840 -12.780  1.00143.95    -0.271 OA
HETATM   15  N20 MIQ B 502     -11.875   0.592 -12.760  1.00140.02    -0.296 N 
HETATM   16  H13 MIQ B 502     -11.325   0.019 -12.150  1.00142.77     0.171 HD
HETATM   17  C21 MIQ B 502     -11.377   1.857 -13.238  1.00142.22     0.224 C 
HETATM   18  C22 MIQ B 502     -12.398   2.963 -13.426  1.00139.52     0.106 C 
HETATM   19  O24 MIQ B 502     -10.231   2.020 -13.476  1.00146.13    -0.273 OA
HETATM   20  C23 MIQ B 502     -13.447   2.425 -14.381  1.00139.15     0.045 C 
ENDBRANCH  10  12
BRANCH   5  21
HETATM   21  N6  MIQ B 502     -20.075   2.297  -9.680  1.00140.95    -0.377 N 
HETATM   22  C7  MIQ B 502     -19.393   2.808  -8.503  1.00142.12     0.149 C 
HETATM   23  C8  MIQ B 502     -20.185   2.546  -7.229  1.00144.10     0.187 C 
HETATM   24  O9  MIQ B 502     -21.530   2.902  -7.341  1.00148.65    -0.388 OA
HETATM   25  C10 MIQ B 502     -22.072   3.233  -8.586  1.00147.44     0.187 C 
HETATM   26  C11 MIQ B 502     -21.492   2.576  -9.833  1.00144.08     0.149 C 
ENDBRANCH   5  21
TORSDOF 2
ENDMDL
MODEL 4
REMARK VINA RESULT:      -6.9      2.361      8.461
REMARK  2 active torsions:
REMARK  status: ('A' for Active; 'I' for Inactive)
REMARK    1  A    between atoms: C5_5  and  N6_21 
REMARK    2  A    between atoms: C18_14  and  N17_19 
ROOT
HETATM    1  O1  MIQ B 502      -1.647  19.805  -9.834  1.00142.91    -0.171 OA
HETATM    2  C2  MIQ B 502      -2.526  20.073  -8.783  1.00141.17     0.195 A 
HETATM    3  C3  MIQ B 502      -3.590  19.090  -8.197  1.00141.71     0.035 A 
HETATM    4  C4  MIQ B 502      -3.977  17.697  -8.521  1.00142.86     0.046 A 
HETATM    5  C5  MIQ B 502      -5.008  17.052  -7.791  1.00139.53     0.031 A 
HETATM    6  C12 MIQ B 502      -5.687  17.763  -6.718  1.00139.38     0.030 A 
HETATM    7  C13 MIQ B 502      -5.315  19.098  -6.406  1.00141.18     0.019 A 
HETATM    8  C14 MIQ B 502      -4.231  19.770  -7.174  1.00138.77     0.033 A 
HETATM    9  C15 MIQ B 502      -3.561  21.182  -7.124  1.00142.10     0.195 A 
HETATM   10  N17 MIQ B 502      -2.641  21.183  -8.074  1.00139.42    -0.288 N 
HETATM   11  O16 MIQ B 502      -3.877  22.226  -6.253  1.00148.93    -0.171 OA
ENDROOT
BRANCH  10  12
HETATM   12  C18 MIQ B 502      -1.821  22.352  -8.332  1.00139.82     0.187 C 
HETATM   13  C19 MIQ B 502      -2.014  22.743  -9.803  1.00140.06     0.247 C 
HETATM   14  O25 MIQ B 502      -3.107  22.871 -10.226  1.00143.95    -0.271 OA
HETATM   15  N20 MIQ B 502      -0.889  22.967 -10.687  1.00140.02    -0.296 N 
HETATM   16  H13 MIQ B 502      -1.028  23.216 -11.647  1.00142.77     0.171 HD
HETATM   17  C21 MIQ B 502       0.437  22.795 -10.150  1.00142.22     0.224 C 
HETATM   18  C22 MIQ B 502       0.608  21.727  -9.087  1.00139.52     0.106 C 
HETATM   19  O24 MIQ B 502       1.343  23.459 -10.517  1.00146.13    -0.273 OA
HETATM   20  C23 MIQ B 502      -0.363  22.069  -7.972  1.00139.15     0.045 C 
ENDBRANCH  10  12
BRANCH   5  21
HETATM   21  N6  MIQ B 502      -5.387  15.692  -8.129  1.00140.95    -0.377 N 
HETATM   22  C7  MIQ B 502      -4.339  14.702  -8.306  1.00142.12     0.149 C 
HETATM   23  C8  MIQ B 502      -4.770  13.578  -9.241  1.00144.10     0.187 C 
HETATM   24  O9  MIQ B 502      -6.030  13.064  -8.928  1.00148.65    -0.388 OA
HETATM   25  C10 MIQ B 502      -6.848  13.713  -7.999  1.00147.44     0.187 C 
HETATM   26  C11 MIQ B 502      -6.738  15.228  -7.863  1.00144.08     0.149 C 
ENDBRANCH   5  21
TORSDOF 2
ENDMDL
MODEL 5
REMARK VINA RESULT:      -6.9      4.466      8.497
REMARK  2 active torsions:
REMARK  status: ('A' for Active; 'I' for Inactive)
REMARK    1  A    between atoms: C5_5  and  N6_21 
REMARK    2  A    between atoms: C18_14  and  N17_19 
ROOT
HETATM    1  O1  MIQ B 502      -6.030  19.850 -12.209  1.00142.91    -0.171 OA
HETATM    2  C2  MIQ B 502      -5.589  18.525 -12.191  1.00141.17     0.195 A 
HETATM    3  C3  MIQ B 502      -6.250  17.323 -12.939  1.00141.71     0.035 A 
HETATM    4  C4  MIQ B 502      -7.433  17.199 -13.823  1.00142.86     0.046 A 
HETATM    5  C5  MIQ B 502      -7.792  15.941 -14.368  1.00139.53     0.031 A 
HETATM    6  C12 MIQ B 502      -6.993  14.764 -14.056  1.00139.38     0.030 A 
HETATM    7  C13 MIQ B 502      -5.859  14.882 -13.209  1.00141.18     0.019 A 
HETATM    8  C14 MIQ B 502      -5.485  16.207 -12.642  1.00138.77     0.033 A 
HETATM    9  C15 MIQ B 502      -4.342  16.718 -11.705  1.00142.10     0.195 A 
HETATM   10  N17 MIQ B 502      -4.545  18.018 -11.559  1.00139.42    -0.288 N 
HETATM   11  O16 MIQ B 502      -3.321  15.954 -11.139  1.00148.93    -0.171 OA
ENDROOT
BRANCH  10  12
HETATM   12  C18 MIQ B 502      -3.674  18.831 -10.730  1.00139.82     0.187 C 
HETATM   13  C19 MIQ B 502      -4.558  19.614  -9.752  1.00140.06     0.247 C 
HETATM   14  O25 MIQ B 502      -5.361  19.034  -9.111  1.00143.95    -0.271 OA
HETATM   15  N20 MIQ B 502      -4.431  21.047  -9.587  1.00140.02    -0.296 N 
HETATM   16  H13 MIQ B 502      -5.018  21.548  -8.950  1.00142.77     0.171 HD
HETATM   17  C21 MIQ B 502      -3.450  21.734 -10.388  1.00142.22     0.224 C 
HETATM   18  C22 MIQ B 502      -3.200  21.183 -11.779  1.00139.52     0.106 C 
HETATM   19  O24 MIQ B 502      -2.867  22.676  -9.978  1.00146.13    -0.273 OA
HETATM   20  C23 MIQ B 502      -2.799  19.730 -11.601  1.00139.15     0.045 C 
ENDBRANCH  10  12
BRANCH   5  21
HETATM   21  N6  MIQ B 502      -8.962  15.832 -15.221  1.00140.95    -0.377 N 
HETATM   22  C7  MIQ B 502     -10.245  16.268 -14.699  1.00142.12     0.149 C 
HETATM   23  C8  MIQ B 502     -11.407  15.543 -15.365  1.00144.10     0.187 C 
HETATM   24  O9  MIQ B 502     -11.306  15.520 -16.758  1.00148.65    -0.388 OA
HETATM   25  C10 MIQ B 502     -10.127  15.926 -17.389  1.00147.44     0.187 C 
HETATM   26  C11 MIQ B 502      -8.803  15.723 -16.660  1.00144.08     0.149 C 
ENDBRANCH   5  21
TORSDOF 2
ENDMDL
MODEL 6
REMARK VINA RESULT:      -6.9     16.639     19.605
REMARK  2 active torsions:
REMARK  status: ('A' for Active; 'I' for Inactive)
REMARK    1  A    between atoms: C5_5  and  N6_21 
REMARK    2  A    between atoms: C18_14  and  N17_19 
ROOT
HETATM    1  O1  MIQ B 502     -17.393   4.450 -10.488  1.00142.91    -0.171 OA
HETATM    2  C2  MIQ B 502     -17.444   3.237 -11.178  1.00141.17     0.195 A 
HETATM    3  C3  MIQ B 502     -16.306   2.626 -12.056  1.00141.71     0.035 A 
HETATM    4  C4  MIQ B 502     -14.939   3.077 -12.411  1.00142.86     0.046 A 
HETATM    5  C5  MIQ B 502     -14.118   2.283 -13.250  1.00139.53     0.031 A 
HETATM    6  C12 MIQ B 502     -14.621   1.018 -13.766  1.00139.38     0.030 A 
HETATM    7  C13 MIQ B 502     -15.930   0.585 -13.425  1.00141.18     0.019 A 
HETATM    8  C14 MIQ B 502     -16.787   1.421 -12.541  1.00138.77     0.033 A 
HETATM    9  C15 MIQ B 502     -18.233   1.283 -11.961  1.00142.10     0.195 A 
HETATM   10  N17 MIQ B 502     -18.438   2.366 -11.229  1.00139.42    -0.288 N 
HETATM   11  O16 MIQ B 502     -19.122   0.229 -12.176  1.00148.93    -0.171 OA
ENDROOT
BRANCH  10  12
HETATM   12  C18 MIQ B 502     -19.696   2.589 -10.542  1.00139.82     0.187 C 
HETATM   13  C19 MIQ B 502     -20.214   3.973 -10.951  1.00140.06     0.247 C 
HETATM   14  O25 MIQ B 502     -20.284   4.246 -12.097  1.00143.95    -0.271 OA
HETATM   15  N20 MIQ B 502     -20.627   4.955  -9.970  1.00140.02    -0.296 N 
HETATM   16  H13 MIQ B 502     -20.957   5.857 -10.250  1.00142.77     0.171 HD
HETATM   17  C21 MIQ B 502     -20.523   4.602  -8.578  1.00142.22     0.224 C 
HETATM   18  C22 MIQ B 502     -19.372   3.693  -8.190  1.00139.52     0.106 C 
HETATM   19  O24 MIQ B 502     -21.299   4.998  -7.780  1.00146.13    -0.273 OA
HETATM   20  C23 MIQ B 502     -19.511   2.438  -9.033  1.00139.15     0.045 C 
ENDBRANCH  10  12
BRANCH   5  21
HETATM   21  N6  MIQ B 502     -12.787   2.744 -13.602  1.00140.95    -0.377 N 
HETATM   22  C7  MIQ B 502     -11.697   1.785 -13.601  1.00142.12     0.149 C 
HETATM   23  C8  MIQ B 502     -10.352   2.452 -13.343  1.00144.10     0.187 C 
HETATM   24  O9  MIQ B 502     -10.148   3.586 -14.131  1.00148.65    -0.388 OA
HETATM   25  C10 MIQ B 502     -11.197   4.127 -14.878  1.00147.44     0.187 C 
HETATM   26  C11 MIQ B 502     -12.621   3.978 -14.351  1.00144.08     0.149 C 
ENDBRANCH   5  21
TORSDOF 2
ENDMDL
MODEL 7
REMARK VINA RESULT:      -6.8      3.788      8.070
REMARK  2 active torsions:
REMARK  status: ('A' for Active; 'I' for Inactive)
REMARK    1  A    between atoms: C5_5  and  N6_21 
REMARK    2  A    between atoms: C18_14  and  N17_19 
ROOT
HETATM    1  O1  MIQ B 502      -1.805  19.694 -10.828  1.00142.91    -0.171 OA
HETATM    2  C2  MIQ B 502      -3.052  19.891 -10.230  1.00141.17     0.195 A 
HETATM    3  C3  MIQ B 502      -4.364  19.110 -10.558  1.00141.71     0.035 A 
HETATM    4  C4  MIQ B 502      -4.691  18.018 -11.506  1.00142.86     0.046 A 
HETATM    5  C5  MIQ B 502      -6.009  17.501 -11.576  1.00139.53     0.031 A 
HETATM    6  C12 MIQ B 502      -7.046  18.046 -10.711  1.00139.38     0.030 A 
HETATM    7  C13 MIQ B 502      -6.733  19.092  -9.802  1.00141.18     0.019 A 
HETATM    8  C14 MIQ B 502      -5.347  19.630  -9.731  1.00138.77     0.033 A 
HETATM    9  C15 MIQ B 502      -4.640  20.738  -8.885  1.00142.10     0.195 A 
HETATM   10  N17 MIQ B 502      -3.378  20.751  -9.282  1.00139.42    -0.288 N 
HETATM   11  O16 MIQ B 502      -5.227  21.548  -7.911  1.00148.93    -0.171 OA
ENDROOT
BRANCH  10  12
HETATM   12  C18 MIQ B 502      -2.416  21.679  -8.717  1.00139.82     0.187 C 
HETATM   13  C19 MIQ B 502      -1.764  22.442  -9.877  1.00140.06     0.247 C 
HETATM   14  O25 MIQ B 502      -2.451  22.958 -10.685  1.00143.95    -0.271 OA
HETATM   15  N20 MIQ B 502      -0.326  22.551 -10.006  1.00140.02    -0.296 N 
HETATM   16  H13 MIQ B 502       0.088  23.046 -10.771  1.00142.77     0.171 HD
HETATM   17  C21 MIQ B 502       0.492  21.904  -9.012  1.00142.22     0.224 C 
HETATM   18  C22 MIQ B 502      -0.043  20.611  -8.427  1.00139.52     0.106 C 
HETATM   19  O24 MIQ B 502       1.525  22.363  -8.668  1.00146.13    -0.273 OA
HETATM   20  C23 MIQ B 502      -1.407  20.933  -7.845  1.00139.15     0.045 C 
ENDBRANCH  10  12
BRANCH   5  21
HETATM   21  N6  MIQ B 502      -6.319  16.441 -12.519  1.00140.95    -0.377 N 
HETATM   22  C7  MIQ B 502      -7.061  16.777 -13.722  1.00142.12     0.149 C 
HETATM   23  C8  MIQ B 502      -7.849  15.587 -14.255  1.00144.10     0.187 C 
HETATM   24  O9  MIQ B 502      -7.086  14.420 -14.330  1.00148.65    -0.388 OA
HETATM   25  C10 MIQ B 502      -5.819  14.364 -13.743  1.00147.44     0.187 C 
HETATM   26  C11 MIQ B 502      -5.552  15.208 -12.502  1.00144.08     0.149 C 
ENDBRANCH   5  21
TORSDOF 2
ENDMDL
MODEL 8
REMARK VINA RESULT:      -6.8      3.583      7.299
REMARK  2 active torsions:
REMARK  status: ('A' for Active; 'I' for Inactive)
REMARK    1  A    between atoms: C5_5  and  N6_21 
REMARK    2  A    between atoms: C18_14  and  N17_19 
ROOT
HETATM    1  O1  MIQ B 502      -4.114  20.415  -9.987  1.00142.91    -0.171 OA
HETATM    2  C2  MIQ B 502      -3.873  19.066 -10.255  1.00141.17     0.195 A 
HETATM    3  C3  MIQ B 502      -4.678  18.164 -11.243  1.00141.71     0.035 A 
HETATM    4  C4  MIQ B 502      -5.838  18.409 -12.133  1.00142.86     0.046 A 
HETATM    5  C5  MIQ B 502      -6.360  17.363 -12.935  1.00139.53     0.031 A 
HETATM    6  C12 MIQ B 502      -5.752  16.041 -12.884  1.00139.38     0.030 A 
HETATM    7  C13 MIQ B 502      -4.639  15.806 -12.032  1.00141.18     0.019 A 
HETATM    8  C14 MIQ B 502      -4.094  16.908 -11.194  1.00138.77     0.033 A 
HETATM    9  C15 MIQ B 502      -2.919  17.032 -10.170  1.00142.10     0.195 A 
HETATM   10  N17 MIQ B 502      -2.934  18.286  -9.747  1.00139.42    -0.288 N 
HETATM   11  O16 MIQ B 502      -2.039  16.021  -9.781  1.00148.93    -0.171 OA
ENDROOT
BRANCH  10  12
HETATM   12  C18 MIQ B 502      -1.981  18.764  -8.763  1.00139.82     0.187 C 
HETATM   13  C19 MIQ B 502      -2.774  19.397  -7.613  1.00140.06     0.247 C 
HETATM   14  O25 MIQ B 502      -3.652  18.786  -7.115  1.00143.95    -0.271 OA
HETATM   15  N20 MIQ B 502      -2.471  20.723  -7.115  1.00140.02    -0.296 N 
HETATM   16  H13 MIQ B 502      -3.001  21.127  -6.368  1.00142.77     0.171 HD
HETATM   17  C21 MIQ B 502      -1.402  21.453  -7.746  1.00142.22     0.224 C 
HETATM   18  C22 MIQ B 502      -1.203  21.221  -9.232  1.00139.52     0.106 C 
HETATM   19  O24 MIQ B 502      -0.712  22.191  -7.134  1.00146.13    -0.273 OA
HETATM   20  C23 MIQ B 502      -0.988  19.729  -9.410  1.00139.15     0.045 C 
ENDBRANCH  10  12
BRANCH   5  21
HETATM   21  N6  MIQ B 502      -7.505  17.614 -13.791  1.00140.95    -0.377 N 
HETATM   22  C7  MIQ B 502      -7.840  18.990 -14.118  1.00142.12     0.149 C 
HETATM   23  C8  MIQ B 502      -9.321  19.155 -14.431  1.00144.10     0.187 C 
HETATM   24  O9  MIQ B 502      -9.797  18.196 -15.327  1.00148.65    -0.388 OA
HETATM   25  C10 MIQ B 502      -9.008  17.096 -15.673  1.00147.44     0.187 C 
HETATM   26  C11 MIQ B 502      -8.018  16.557 -14.645  1.00144.08     0.149 C 
ENDBRANCH   5  21
TORSDOF 2
ENDMDL
MODEL 9
REMARK VINA RESULT:      -6.6      5.883      8.068
REMARK  2 active torsions:
REMARK  status: ('A' for Active; 'I' for Inactive)
REMARK    1  A    between atoms: C5_5  and  N6_21 
REMARK    2  A    between atoms: C18_14  and  N17_19 
ROOT
HETATM    1  O1  MIQ B 502      -8.317  15.234 -15.472  1.00142.91    -0.171 OA
HETATM    2  C2  MIQ B 502      -8.210  16.550 -15.017  1.00141.17     0.195 A 
HETATM    3  C3  MIQ B 502      -7.248  17.065 -13.900  1.00141.71     0.035 A 
HETATM    4  C4  MIQ B 502      -6.235  16.404 -13.043  1.00142.86     0.046 A 
HETATM    5  C5  MIQ B 502      -5.498  17.156 -12.094  1.00139.53     0.031 A 
HETATM    6  C12 MIQ B 502      -5.738  18.586 -11.962  1.00139.38     0.030 A 
HETATM    7  C13 MIQ B 502      -6.708  19.220 -12.783  1.00141.18     0.019 A 
HETATM    8  C14 MIQ B 502      -7.477  18.426 -13.780  1.00138.77     0.033 A 
HETATM    9  C15 MIQ B 502      -8.588  18.758 -14.829  1.00142.10     0.195 A 
HETATM   10  N17 MIQ B 502      -8.878  17.615 -15.428  1.00139.42    -0.288 N 
HETATM   11  O16 MIQ B 502      -9.156  20.009 -15.078  1.00148.93    -0.171 OA
ENDROOT
BRANCH  10  12
HETATM   12  C18 MIQ B 502      -9.892  17.538 -16.463  1.00139.82     0.187 C 
HETATM   13  C19 MIQ B 502     -10.895  16.451 -16.056  1.00140.06     0.247 C 
HETATM   14  O25 MIQ B 502     -11.370  16.481 -14.976  1.00143.95    -0.271 OA
HETATM   15  N20 MIQ B 502     -11.282  15.390 -16.963  1.00140.02    -0.296 N 
HETATM   16  H13 MIQ B 502     -11.933  14.683 -16.682  1.00142.77     0.171 HD
HETATM   17  C21 MIQ B 502     -10.682  15.370 -18.272  1.00142.22     0.224 C 
HETATM   18  C22 MIQ B 502      -9.252  15.865 -18.373  1.00139.52     0.106 C 
HETATM   19  O24 MIQ B 502     -11.278  14.990 -19.219  1.00146.13    -0.273 OA
HETATM   20  C23 MIQ B 502      -9.246  17.280 -17.823  1.00139.15     0.045 C 
ENDBRANCH  10  12
BRANCH   5  21
HETATM   21  N6  MIQ B 502      -4.519  16.493 -11.252  1.00140.95    -0.377 N 
HETATM   22  C7  MIQ B 502      -3.612  17.311 -10.465  1.00142.12     0.149 C 
HETATM   23  C8  MIQ B 502      -2.303  16.588 -10.172  1.00144.10     0.187 C 
HETATM   24  O9  MIQ B 502      -2.495  15.287  -9.701  1.00148.65    -0.388 OA
HETATM   25  C10 MIQ B 502      -3.761  14.698  -9.745  1.00147.44     0.187 C 
HETATM   26  C11 MIQ B 502      -4.720  15.110 -10.858  1.00144.08     0.149 C 
ENDBRANCH   5  21
TORSDOF 2
ENDMDL
