MODEL 1
REMARK VINA RESULT:      -6.9      0.000      0.000
REMARK  2 active torsions:
REMARK  status: ('A' for Active; 'I' for Inactive)
REMARK    1  A    between atoms: C5_5  and  N6_21 
REMARK    2  A    between atoms: C18_14  and  N17_19 
ROOT
HETATM    1  O1  MIQ B 502       4.131  21.379   7.120  1.00142.91    -0.171 OA
HETATM    2  C2  MIQ B 502       4.060  20.130   7.740  1.00141.17     0.195 A 
HETATM    3  C3  MIQ B 502       5.144  19.007   7.678  1.00141.71     0.035 A 
HETATM    4  C4  MIQ B 502       6.466  18.902   7.016  1.00142.86     0.046 A 
HETATM    5  C5  MIQ B 502       7.241  17.722   7.147  1.00139.53     0.031 A 
HETATM    6  C12 MIQ B 502       6.735  16.609   7.937  1.00139.38     0.030 A 
HETATM    7  C13 MIQ B 502       5.468  16.709   8.572  1.00141.18     0.019 A 
HETATM    8  C14 MIQ B 502       4.659  17.951   8.433  1.00138.77     0.033 A 
HETATM    9  C15 MIQ B 502       3.268  18.422   8.968  1.00142.10     0.195 A 
HETATM   10  N17 MIQ B 502       3.090  19.645   8.496  1.00139.42    -0.288 N 
HETATM   11  O16 MIQ B 502       2.393  17.694   9.776  1.00148.93    -0.171 OA
ENDROOT
BRANCH  10  12
HETATM   12  C18 MIQ B 502       1.883  20.398   8.780  1.00139.82     0.187 C 
HETATM   13  C19 MIQ B 502       1.374  20.983   7.457  1.00140.06     0.247 C 
HETATM   14  O25 MIQ B 502       1.240  20.271   6.526  1.00143.95    -0.271 OA
HETATM   15  N20 MIQ B 502       1.047  22.387   7.318  1.00140.02    -0.296 N 
HETATM   16  H13 MIQ B 502       0.722  22.758   6.447  1.00142.77     0.171 HD
HETATM   17  C21 MIQ B 502       1.229  23.239   8.466  1.00142.22     0.224 C 
HETATM   18  C22 MIQ B 502       2.379  22.895   9.393  1.00139.52     0.106 C 
HETATM   19  O24 MIQ B 502       0.514  24.156   8.674  1.00146.13    -0.273 OA
HETATM   20  C23 MIQ B 502       2.157  21.462   9.842  1.00139.15     0.045 C 
ENDBRANCH  10  12
BRANCH   5  21
HETATM   21  N6  MIQ B 502       8.528  17.628   6.482  1.00140.95    -0.377 N 
HETATM   22  C7  MIQ B 502       8.556  17.563   5.031  1.00142.12     0.149 C 
HETATM   23  C8  MIQ B 502       9.798  16.845   4.518  1.00144.10     0.187 C 
HETATM   24  O9  MIQ B 502      10.975  17.298   5.118  1.00148.65    -0.388 OA
HETATM   25  C10 MIQ B 502      10.922  18.147   6.226  1.00147.44     0.187 C 
HETATM   26  C11 MIQ B 502       9.737  18.031   7.179  1.00144.08     0.149 C 
ENDBRANCH   5  21
TORSDOF 2
ENDMDL
MODEL 2
REMARK VINA RESULT:      -6.7      1.749      7.840
REMARK  2 active torsions:
REMARK  status: ('A' for Active; 'I' for Inactive)
REMARK    1  A    between atoms: C5_5  and  N6_21 
REMARK    2  A    between atoms: C18_14  and  N17_19 
ROOT
HETATM    1  O1  MIQ B 502       6.636  19.249   5.952  1.00142.91    -0.171 OA
HETATM    2  C2  MIQ B 502       5.975  18.558   6.971  1.00141.17     0.195 A 
HETATM    3  C3  MIQ B 502       4.621  18.967   7.635  1.00141.71     0.035 A 
HETATM    4  C4  MIQ B 502       3.686  20.097   7.428  1.00142.86     0.046 A 
HETATM    5  C5  MIQ B 502       2.504  20.201   8.204  1.00139.53     0.031 A 
HETATM    6  C12 MIQ B 502       2.209  19.189   9.209  1.00139.38     0.030 A 
HETATM    7  C13 MIQ B 502       3.105  18.105   9.407  1.00141.18     0.019 A 
HETATM    8  C14 MIQ B 502       4.343  18.000   8.587  1.00138.77     0.033 A 
HETATM    9  C15 MIQ B 502       5.531  16.986   8.514  1.00142.10     0.195 A 
HETATM   10  N17 MIQ B 502       6.340  17.439   7.571  1.00139.42    -0.288 N 
HETATM   11  O16 MIQ B 502       5.698  15.838   9.290  1.00148.93    -0.171 OA
ENDROOT
BRANCH  10  12
HETATM   12  C18 MIQ B 502       7.572  16.749   7.235  1.00139.82     0.187 C 
HETATM   13  C19 MIQ B 502       8.705  17.783   7.246  1.00140.06     0.247 C 
HETATM   14  O25 MIQ B 502       8.835  18.484   8.185  1.00143.95    -0.271 OA
HETATM   15  N20 MIQ B 502       9.626  17.919   6.136  1.00140.02    -0.296 N 
HETATM   16  H13 MIQ B 502      10.357  18.602   6.153  1.00142.77     0.171 HD
HETATM   17  C21 MIQ B 502       9.440  17.059   4.996  1.00142.22     0.224 C 
HETATM   18  C22 MIQ B 502       8.011  16.680   4.654  1.00139.52     0.106 C 
HETATM   19  O24 MIQ B 502      10.357  16.665   4.363  1.00146.13    -0.273 OA
HETATM   20  C23 MIQ B 502       7.429  16.028   5.895  1.00139.15     0.045 C 
ENDBRANCH  10  12
BRANCH   5  21
HETATM   21  N6  MIQ B 502       1.603  21.321   8.002  1.00140.95    -0.377 N 
HETATM   22  C7  MIQ B 502       0.780  21.343   6.805  1.00142.12     0.149 C 
HETATM   23  C8  MIQ B 502       0.411  22.763   6.395  1.00144.10     0.187 C 
HETATM   24  O9  MIQ B 502      -0.065  23.530   7.460  1.00148.65    -0.388 OA
HETATM   25  C10 MIQ B 502       0.038  23.059   8.772  1.00147.44     0.187 C 
HETATM   26  C11 MIQ B 502       1.204  22.144   9.130  1.00144.08     0.149 C 
ENDBRANCH   5  21
TORSDOF 2
ENDMDL
MODEL 3
REMARK VINA RESULT:      -6.7      2.844      7.836
REMARK  2 active torsions:
REMARK  status: ('A' for Active; 'I' for Inactive)
REMARK    1  A    between atoms: C5_5  and  N6_21 
REMARK    2  A    between atoms: C18_14  and  N17_19 
ROOT
HETATM    1  O1  MIQ B 502       5.985  18.254   8.802  1.00142.91    -0.171 OA
HETATM    2  C2  MIQ B 502       4.769  18.727   8.302  1.00141.17     0.195 A 
HETATM    3  C3  MIQ B 502       3.732  19.602   9.075  1.00141.71     0.035 A 
HETATM    4  C4  MIQ B 502       3.694  20.166  10.445  1.00142.86     0.046 A 
HETATM    5  C5  MIQ B 502       2.588  20.944  10.870  1.00139.53     0.031 A 
HETATM    6  C12 MIQ B 502       1.483  21.189   9.954  1.00139.38     0.030 A 
HETATM    7  C13 MIQ B 502       1.519  20.650   8.640  1.00141.18     0.019 A 
HETATM    8  C14 MIQ B 502       2.685  19.836   8.199  1.00138.77     0.033 A 
HETATM    9  C15 MIQ B 502       3.074  19.102   6.874  1.00142.10     0.195 A 
HETATM   10  N17 MIQ B 502       4.252  18.544   7.099  1.00139.42    -0.288 N 
HETATM   11  O16 MIQ B 502       2.326  19.048   5.697  1.00148.93    -0.171 OA
ENDROOT
BRANCH  10  12
HETATM   12  C18 MIQ B 502       4.924  17.757   6.082  1.00139.82     0.187 C 
HETATM   13  C19 MIQ B 502       5.365  16.437   6.727  1.00140.06     0.247 C 
HETATM   14  O25 MIQ B 502       4.576  15.798   7.328  1.00143.95    -0.271 OA
HETATM   15  N20 MIQ B 502       6.724  15.948   6.613  1.00140.02    -0.296 N 
HETATM   16  H13 MIQ B 502       7.001  15.088   7.044  1.00142.77     0.171 HD
HETATM   17  C21 MIQ B 502       7.671  16.751   5.883  1.00142.22     0.224 C 
HETATM   18  C22 MIQ B 502       7.492  18.255   5.961  1.00139.52     0.106 C 
HETATM   19  O24 MIQ B 502       8.539  16.259   5.250  1.00146.13    -0.273 OA
HETATM   20  C23 MIQ B 502       6.083  18.547   5.477  1.00139.15     0.045 C 
ENDBRANCH  10  12
BRANCH   5  21
HETATM   21  N6  MIQ B 502       2.557  21.477  12.220  1.00140.95    -0.377 N 
HETATM   22  C7  MIQ B 502       1.367  22.183  12.661  1.00142.12     0.149 C 
HETATM   23  C8  MIQ B 502       1.679  23.197  13.754  1.00144.10     0.187 C 
HETATM   24  O9  MIQ B 502       2.472  22.669  14.774  1.00148.65    -0.388 OA
HETATM   25  C10 MIQ B 502       3.073  21.416  14.628  1.00147.44     0.187 C 
HETATM   26  C11 MIQ B 502       3.463  20.954  13.228  1.00144.08     0.149 C 
ENDBRANCH   5  21
TORSDOF 2
ENDMDL
MODEL 4
REMARK VINA RESULT:      -6.7      3.297      3.926
REMARK  2 active torsions:
REMARK  status: ('A' for Active; 'I' for Inactive)
REMARK    1  A    between atoms: C5_5  and  N6_21 
REMARK    2  A    between atoms: C18_14  and  N17_19 
ROOT
HETATM    1  O1  MIQ B 502       3.939  22.391   3.771  1.00142.91    -0.171 OA
HETATM    2  C2  MIQ B 502       3.299  21.364   4.469  1.00141.17     0.195 A 
HETATM    3  C3  MIQ B 502       3.995  20.179   5.211  1.00141.71     0.035 A 
HETATM    4  C4  MIQ B 502       5.413  19.791   5.405  1.00142.86     0.046 A 
HETATM    5  C5  MIQ B 502       5.742  18.630   6.148  1.00139.53     0.031 A 
HETATM    6  C12 MIQ B 502       4.681  17.816   6.725  1.00139.38     0.030 A 
HETATM    7  C13 MIQ B 502       3.323  18.188   6.540  1.00141.18     0.019 A 
HETATM    8  C14 MIQ B 502       2.983  19.410   5.760  1.00138.77     0.033 A 
HETATM    9  C15 MIQ B 502       1.650  20.122   5.358  1.00142.10     0.195 A 
HETATM   10  N17 MIQ B 502       2.002  21.183   4.651  1.00139.42    -0.288 N 
HETATM   11  O16 MIQ B 502       0.354  19.713   5.679  1.00148.93    -0.171 OA
ENDROOT
BRANCH  10  12
HETATM   12  C18 MIQ B 502       1.010  22.083   4.092  1.00139.82     0.187 C 
HETATM   13  C19 MIQ B 502       1.356  22.299   2.613  1.00140.06     0.247 C 
HETATM   14  O25 MIQ B 502       1.540  21.361   1.922  1.00143.95    -0.271 OA
HETATM   15  N20 MIQ B 502       1.459  23.625   2.039  1.00140.02    -0.296 N 
HETATM   16  H13 MIQ B 502       1.692  23.753   1.074  1.00142.77     0.171 HD
HETATM   17  C21 MIQ B 502       1.241  24.754   2.906  1.00142.22     0.224 C 
HETATM   18  C22 MIQ B 502       1.682  24.601   4.348  1.00139.52     0.106 C 
HETATM   19  O24 MIQ B 502       0.738  25.748   2.511  1.00146.13    -0.273 OA
HETATM   20  C23 MIQ B 502       0.960  23.383   4.893  1.00139.15     0.045 C 
ENDBRANCH  10  12
BRANCH   5  21
HETATM   21  N6  MIQ B 502       7.133  18.253   6.318  1.00140.95    -0.377 N 
HETATM   22  C7  MIQ B 502       7.877  17.799   5.155  1.00142.12     0.149 C 
HETATM   23  C8  MIQ B 502       9.020  16.868   5.539  1.00144.10     0.187 C 
HETATM   24  O9  MIQ B 502       9.797  17.365   6.587  1.00148.65    -0.388 OA
HETATM   25  C10 MIQ B 502       9.375  18.482   7.312  1.00147.44     0.187 C 
HETATM   26  C11 MIQ B 502       7.878  18.726   7.472  1.00144.08     0.149 C 
ENDBRANCH   5  21
TORSDOF 2
ENDMDL
MODEL 5
REMARK VINA RESULT:      -6.6      3.209      7.670
REMARK  2 active torsions:
REMARK  status: ('A' for Active; 'I' for Inactive)
REMARK    1  A    between atoms: C5_5  and  N6_21 
REMARK    2  A    between atoms: C18_14  and  N17_19 
ROOT
HETATM    1  O1  MIQ B 502       4.910  18.444   5.510  1.00142.91    -0.171 OA
HETATM    2  C2  MIQ B 502       4.346  19.212   6.530  1.00141.17     0.195 A 
HETATM    3  C3  MIQ B 502       3.360  20.410   6.346  1.00141.71     0.035 A 
HETATM    4  C4  MIQ B 502       2.758  21.060   5.158  1.00142.86     0.046 A 
HETATM    5  C5  MIQ B 502       1.873  22.157   5.313  1.00139.53     0.031 A 
HETATM    6  C12 MIQ B 502       1.556  22.646   6.647  1.00139.38     0.030 A 
HETATM    7  C13 MIQ B 502       2.133  22.023   7.786  1.00141.18     0.019 A 
HETATM    8  C14 MIQ B 502       3.059  20.870   7.617  1.00138.77     0.033 A 
HETATM    9  C15 MIQ B 502       3.861  19.952   8.597  1.00142.10     0.195 A 
HETATM   10  N17 MIQ B 502       4.515  19.090   7.836  1.00139.42    -0.288 N 
HETATM   11  O16 MIQ B 502       3.880  20.032   9.990  1.00148.93    -0.171 OA
ENDROOT
BRANCH  10  12
HETATM   12  C18 MIQ B 502       5.387  18.082   8.410  1.00139.82     0.187 C 
HETATM   13  C19 MIQ B 502       6.713  18.118   7.642  1.00140.06     0.247 C 
HETATM   14  O25 MIQ B 502       7.268  19.149   7.498  1.00143.95    -0.271 OA
HETATM   15  N20 MIQ B 502       7.310  16.918   7.092  1.00140.02    -0.296 N 
HETATM   16  H13 MIQ B 502       8.173  16.956   6.586  1.00142.77     0.171 HD
HETATM   17  C21 MIQ B 502       6.609  15.673   7.272  1.00142.22     0.224 C 
HETATM   18  C22 MIQ B 502       5.094  15.739   7.279  1.00139.52     0.106 C 
HETATM   19  O24 MIQ B 502       7.188  14.652   7.412  1.00146.13    -0.273 OA
HETATM   20  C23 MIQ B 502       4.710  16.713   8.378  1.00139.15     0.045 C 
ENDBRANCH  10  12
BRANCH   5  21
HETATM   21  N6  MIQ B 502       1.302  22.793   4.140  1.00140.95    -0.377 N 
HETATM   22  C7  MIQ B 502       1.825  24.084   3.726  1.00142.12     0.149 C 
HETATM   23  C8  MIQ B 502       0.789  24.899   2.961  1.00144.10     0.187 C 
HETATM   24  O9  MIQ B 502       0.151  24.164   1.960  1.00148.65    -0.388 OA
HETATM   25  C10 MIQ B 502       0.321  22.779   1.881  1.00147.44     0.187 C 
HETATM   26  C11 MIQ B 502       0.571  22.000   3.167  1.00144.08     0.149 C 
ENDBRANCH   5  21
TORSDOF 2
ENDMDL
MODEL 6
REMARK VINA RESULT:      -6.6      2.559      8.117
REMARK  2 active torsions:
REMARK  status: ('A' for Active; 'I' for Inactive)
REMARK    1  A    between atoms: C5_5  and  N6_21 
REMARK    2  A    between atoms: C18_14  and  N17_19 
ROOT
HETATM    1  O1  MIQ B 502       7.290  18.938   7.382  1.00142.91    -0.171 OA
HETATM    2  C2  MIQ B 502       6.599  18.532   6.238  1.00141.17     0.195 A 
HETATM    3  C3  MIQ B 502       5.233  19.099   5.736  1.00141.71     0.035 A 
HETATM    4  C4  MIQ B 502       4.314  20.144   6.247  1.00142.86     0.046 A 
HETATM    5  C5  MIQ B 502       3.115  20.445   5.553  1.00139.53     0.031 A 
HETATM    6  C12 MIQ B 502       2.786  19.723   4.332  1.00139.38     0.030 A 
HETATM    7  C13 MIQ B 502       3.667  18.722   3.842  1.00141.18     0.019 A 
HETATM    8  C14 MIQ B 502       4.926  18.412   4.573  1.00138.77     0.033 A 
HETATM    9  C15 MIQ B 502       6.109  17.413   4.351  1.00142.10     0.195 A 
HETATM   10  N17 MIQ B 502       6.946  17.610   5.356  1.00139.42    -0.288 N 
HETATM   11  O16 MIQ B 502       6.246  16.500   3.305  1.00148.93    -0.171 OA
ENDROOT
BRANCH  10  12
HETATM   12  C18 MIQ B 502       8.167  16.837   5.487  1.00139.82     0.187 C 
HETATM   13  C19 MIQ B 502       8.261  16.353   6.939  1.00140.06     0.247 C 
HETATM   14  O25 MIQ B 502       7.337  15.802   7.423  1.00143.95    -0.271 OA
HETATM   15  N20 MIQ B 502       9.456  16.548   7.734  1.00140.02    -0.296 N 
HETATM   16  H13 MIQ B 502       9.502  16.233   8.683  1.00142.77     0.171 HD
HETATM   17  C21 MIQ B 502      10.567  17.232   7.124  1.00142.22     0.224 C 
HETATM   18  C22 MIQ B 502      10.231  18.319   6.122  1.00139.52     0.106 C 
HETATM   19  O24 MIQ B 502      11.685  16.954   7.389  1.00146.13    -0.273 OA
HETATM   20  C23 MIQ B 502       9.373  17.669   5.052  1.00139.15     0.045 C 
ENDBRANCH  10  12
BRANCH   5  21
HETATM   21  N6  MIQ B 502       2.217  21.460   6.072  1.00140.95    -0.377 N 
HETATM   22  C7  MIQ B 502       1.205  22.010   5.188  1.00142.12     0.149 C 
HETATM   23  C8  MIQ B 502       0.801  23.422   5.593  1.00144.10     0.187 C 
HETATM   24  O9  MIQ B 502       0.528  23.538   6.958  1.00148.65    -0.388 OA
HETATM   25  C10 MIQ B 502       0.840  22.495   7.833  1.00147.44     0.187 C 
HETATM   26  C11 MIQ B 502       2.031  21.599   7.506  1.00144.08     0.149 C 
ENDBRANCH   5  21
TORSDOF 2
ENDMDL
MODEL 7
REMARK VINA RESULT:      -6.5      3.916      7.984
REMARK  2 active torsions:
REMARK  status: ('A' for Active; 'I' for Inactive)
REMARK    1  A    between atoms: C5_5  and  N6_21 
REMARK    2  A    between atoms: C18_14  and  N17_19 
ROOT
HETATM    1  O1  MIQ B 502       3.766  21.072   8.065  1.00142.91    -0.171 OA
HETATM    2  C2  MIQ B 502       3.983  20.468   6.825  1.00141.17     0.195 A 
HETATM    3  C3  MIQ B 502       3.520  21.018   5.438  1.00141.71     0.035 A 
HETATM    4  C4  MIQ B 502       2.779  22.231   5.018  1.00142.86     0.046 A 
HETATM    5  C5  MIQ B 502       2.502  22.463   3.647  1.00139.53     0.031 A 
HETATM    6  C12 MIQ B 502       2.947  21.503   2.647  1.00139.38     0.030 A 
HETATM    7  C13 MIQ B 502       3.658  20.340   3.049  1.00141.18     0.019 A 
HETATM    8  C14 MIQ B 502       3.949  20.103   4.490  1.00138.77     0.033 A 
HETATM    9  C15 MIQ B 502       4.683  18.980   5.292  1.00142.10     0.195 A 
HETATM   10  N17 MIQ B 502       4.614  19.336   6.564  1.00139.42    -0.288 N 
HETATM   11  O16 MIQ B 502       5.285  17.835   4.767  1.00148.93    -0.171 OA
ENDROOT
BRANCH  10  12
HETATM   12  C18 MIQ B 502       5.185  18.511   7.613  1.00139.82     0.187 C 
HETATM   13  C19 MIQ B 502       6.637  18.205   7.230  1.00140.06     0.247 C 
HETATM   14  O25 MIQ B 502       7.354  19.093   6.929  1.00143.95    -0.271 OA
HETATM   15  N20 MIQ B 502       7.159  16.853   7.231  1.00140.02    -0.296 N 
HETATM   16  H13 MIQ B 502       8.107  16.666   6.972  1.00142.77     0.171 HD
HETATM   17  C21 MIQ B 502       6.262  15.785   7.591  1.00142.22     0.224 C 
HETATM   18  C22 MIQ B 502       4.808  15.954   7.196  1.00139.52     0.106 C 
HETATM   19  O24 MIQ B 502       6.643  14.828   8.170  1.00146.13    -0.273 OA
HETATM   20  C23 MIQ B 502       4.340  17.256   7.821  1.00139.15     0.045 C 
ENDBRANCH  10  12
BRANCH   5  21
HETATM   21  N6  MIQ B 502       1.763  23.648   3.252  1.00140.95    -0.377 N 
HETATM   22  C7  MIQ B 502       2.503  24.866   2.969  1.00142.12     0.149 C 
HETATM   23  C8  MIQ B 502       1.659  26.112   3.206  1.00144.10     0.187 C 
HETATM   24  O9  MIQ B 502       0.395  26.032   2.619  1.00148.65    -0.388 OA
HETATM   25  C10 MIQ B 502      -0.066  24.823   2.092  1.00147.44     0.187 C 
HETATM   26  C11 MIQ B 502       0.415  23.521   2.726  1.00144.08     0.149 C 
ENDBRANCH   5  21
TORSDOF 2
ENDMDL
MODEL 8
REMARK VINA RESULT:      -6.4      3.527      4.441
REMARK  2 active torsions:
REMARK  status: ('A' for Active; 'I' for Inactive)
REMARK    1  A    between atoms: C5_5  and  N6_21 
REMARK    2  A    between atoms: C18_14  and  N17_19 
ROOT
HETATM    1  O1  MIQ B 502       4.428  21.836   3.699  1.00142.91    -0.171 OA
HETATM    2  C2  MIQ B 502       3.659  21.487   4.811  1.00141.17     0.195 A 
HETATM    3  C3  MIQ B 502       3.849  20.218   5.703  1.00141.71     0.035 A 
HETATM    4  C4  MIQ B 502       4.806  19.087   5.674  1.00142.86     0.046 A 
HETATM    5  C5  MIQ B 502       4.728  18.057   6.646  1.00139.53     0.031 A 
HETATM    6  C12 MIQ B 502       3.701  18.113   7.676  1.00139.38     0.030 A 
HETATM    7  C13 MIQ B 502       2.784  19.198   7.705  1.00141.18     0.019 A 
HETATM    8  C14 MIQ B 502       2.873  20.277   6.684  1.00138.77     0.033 A 
HETATM    9  C15 MIQ B 502       2.072  21.590   6.400  1.00142.10     0.195 A 
HETATM   10  N17 MIQ B 502       2.635  22.139   5.336  1.00139.42    -0.288 N 
HETATM   11  O16 MIQ B 502       0.983  22.078   7.124  1.00148.93    -0.171 OA
ENDROOT
BRANCH  10  12
HETATM   12  C18 MIQ B 502       2.137  23.378   4.770  1.00139.82     0.187 C 
HETATM   13  C19 MIQ B 502       1.931  23.156   3.267  1.00140.06     0.247 C 
HETATM   14  O25 MIQ B 502       1.306  22.223   2.903  1.00143.95    -0.271 OA
HETATM   15  N20 MIQ B 502       2.476  24.063   2.278  1.00140.02    -0.296 N 
HETATM   16  H13 MIQ B 502       2.340  23.903   1.299  1.00142.77     0.171 HD
HETATM   17  C21 MIQ B 502       3.244  25.188   2.746  1.00142.22     0.224 C 
HETATM   18  C22 MIQ B 502       4.064  24.977   4.004  1.00139.52     0.106 C 
HETATM   19  O24 MIQ B 502       3.228  26.225   2.180  1.00146.13    -0.273 OA
HETATM   20  C23 MIQ B 502       3.094  24.528   5.081  1.00139.15     0.045 C 
ENDBRANCH  10  12
BRANCH   5  21
HETATM   21  N6  MIQ B 502       5.662  16.947   6.597  1.00140.95    -0.377 N 
HETATM   22  C7  MIQ B 502       7.028  17.208   6.176  1.00142.12     0.149 C 
HETATM   23  C8  MIQ B 502       7.679  15.975   5.563  1.00144.10     0.187 C 
HETATM   24  O9  MIQ B 502       7.501  14.825   6.336  1.00148.65    -0.388 OA
HETATM   25  C10 MIQ B 502       6.615  14.829   7.416  1.00147.44     0.187 C 
HETATM   26  C11 MIQ B 502       5.391  15.737   7.352  1.00144.08     0.149 C 
ENDBRANCH   5  21
TORSDOF 2
ENDMDL
MODEL 9
REMARK VINA RESULT:      -6.2     14.182     16.622
REMARK  2 active torsions:
REMARK  status: ('A' for Active; 'I' for Inactive)
REMARK    1  A    between atoms: C5_5  and  N6_21 
REMARK    2  A    between atoms: C18_14  and  N17_19 
ROOT
HETATM    1  O1  MIQ B 502       8.255  18.975  -6.455  1.00142.91    -0.171 OA
HETATM    2  C2  MIQ B 502       9.042  19.492  -7.486  1.00141.17     0.195 A 
HETATM    3  C3  MIQ B 502      10.238  18.769  -8.185  1.00141.71     0.035 A 
HETATM    4  C4  MIQ B 502      10.867  17.438  -8.010  1.00142.86     0.046 A 
HETATM    5  C5  MIQ B 502      11.968  17.054  -8.817  1.00139.53     0.031 A 
HETATM    6  C12 MIQ B 502      12.481  17.973  -9.823  1.00139.38     0.030 A 
HETATM    7  C13 MIQ B 502      11.878  19.248  -9.992  1.00141.18     0.019 A 
HETATM    8  C14 MIQ B 502      10.721  19.645  -9.143  1.00138.77     0.033 A 
HETATM    9  C15 MIQ B 502       9.820  20.918  -9.039  1.00142.10     0.195 A 
HETATM   10  N17 MIQ B 502       8.944  20.669  -8.080  1.00139.42    -0.288 N 
HETATM   11  O16 MIQ B 502       9.925  22.082  -9.804  1.00148.93    -0.171 OA
ENDROOT
BRANCH  10  12
HETATM   12  C18 MIQ B 502       7.945  21.648  -7.692  1.00139.82     0.187 C 
HETATM   13  C19 MIQ B 502       7.978  21.768  -6.164  1.00140.06     0.247 C 
HETATM   14  O25 MIQ B 502       9.009  21.953  -5.622  1.00143.95    -0.271 OA
HETATM   15  N20 MIQ B 502       6.774  21.668  -5.364  1.00140.02    -0.296 N 
HETATM   16  H13 MIQ B 502       6.809  21.741  -4.366  1.00142.77     0.171 HD
HETATM   17  C21 MIQ B 502       5.528  21.431  -6.047  1.00142.22     0.224 C 
HETATM   18  C22 MIQ B 502       5.589  20.576  -7.298  1.00139.52     0.106 C 
HETATM   19  O24 MIQ B 502       4.512  21.887  -5.653  1.00146.13    -0.273 OA
HETATM   20  C23 MIQ B 502       6.573  21.252  -8.235  1.00139.15     0.045 C 
ENDBRANCH  10  12
BRANCH   5  21
HETATM   21  N6  MIQ B 502      12.583  15.754  -8.625  1.00140.95    -0.377 N 
HETATM   22  C7  MIQ B 502      11.877  14.575  -9.095  1.00142.12     0.149 C 
HETATM   23  C8  MIQ B 502      12.261  13.330  -8.305  1.00144.10     0.187 C 
HETATM   24  O9  MIQ B 502      13.642  13.181  -8.162  1.00148.65    -0.388 OA
HETATM   25  C10 MIQ B 502      14.506  14.218  -8.522  1.00147.44     0.187 C 
HETATM   26  C11 MIQ B 502      14.014  15.656  -8.393  1.00144.08     0.149 C 
ENDBRANCH   5  21
TORSDOF 2
ENDMDL
