MODEL 1
REMARK VINA RESULT:      -6.8      0.000      0.000
REMARK  2 active torsions:
REMARK  status: ('A' for Active; 'I' for Inactive)
REMARK    1  A    between atoms: C5_5  and  N6_21 
REMARK    2  A    between atoms: C18_14  and  N17_19 
ROOT
HETATM    1  O1  MIQ B 502      -9.204 -16.140  -6.138  1.00142.91    -0.171 OA
HETATM    2  C2  MIQ B 502      -8.128 -16.739  -5.479  1.00141.17     0.195 A 
HETATM    3  C3  MIQ B 502      -6.616 -16.535  -5.809  1.00141.71     0.035 A 
HETATM    4  C4  MIQ B 502      -5.893 -15.724  -6.818  1.00142.86     0.046 A 
HETATM    5  C5  MIQ B 502      -4.477 -15.743  -6.872  1.00139.53     0.031 A 
HETATM    6  C12 MIQ B 502      -3.729 -16.564  -5.931  1.00139.38     0.030 A 
HETATM    7  C13 MIQ B 502      -4.421 -17.341  -4.963  1.00141.18     0.019 A 
HETATM    8  C14 MIQ B 502      -5.908 -17.315  -4.909  1.00138.77     0.033 A 
HETATM    9  C15 MIQ B 502      -6.988 -18.007  -4.015  1.00142.10     0.195 A 
HETATM   10  N17 MIQ B 502      -8.158 -17.580  -4.460  1.00139.42    -0.288 N 
HETATM   11  O16 MIQ B 502      -6.758 -18.896  -2.964  1.00148.93    -0.171 OA
ENDROOT
BRANCH  10  12
HETATM   12  C18 MIQ B 502      -9.404 -18.033  -3.869  1.00139.82     0.187 C 
HETATM   13  C19 MIQ B 502     -10.274 -18.608  -4.993  1.00140.06     0.247 C 
HETATM   14  O25 MIQ B 502      -9.814 -19.413  -5.723  1.00143.95    -0.271 OA
HETATM   15  N20 MIQ B 502     -11.649 -18.193  -5.183  1.00140.02    -0.296 N 
HETATM   16  H13 MIQ B 502     -12.204 -18.571  -5.925  1.00142.77     0.171 HD
HETATM   17  C21 MIQ B 502     -12.184 -17.201  -4.286  1.00142.22     0.224 C 
HETATM   18  C22 MIQ B 502     -11.218 -16.147  -3.782  1.00139.52     0.106 C 
HETATM   19  O24 MIQ B 502     -13.319 -17.214  -3.957  1.00146.13    -0.273 OA
HETATM   20  C23 MIQ B 502     -10.079 -16.891  -3.110  1.00139.15     0.045 C 
ENDBRANCH  10  12
BRANCH   5  21
HETATM   21  N6  MIQ B 502      -3.783 -14.956  -7.875  1.00140.95    -0.377 N 
HETATM   22  C7  MIQ B 502      -2.786 -15.610  -8.704  1.00142.12     0.149 C 
HETATM   23  C8  MIQ B 502      -1.733 -14.631  -9.208  1.00144.10     0.187 C 
HETATM   24  O9  MIQ B 502      -2.287 -13.467  -9.746  1.00148.65    -0.388 OA
HETATM   25  C10 MIQ B 502      -3.649 -13.195  -9.591  1.00147.44     0.187 C 
HETATM   26  C11 MIQ B 502      -4.358 -13.707  -8.342  1.00144.08     0.149 C 
ENDBRANCH   5  21
TORSDOF 2
ENDMDL
MODEL 2
REMARK VINA RESULT:      -6.7      2.066      7.930
REMARK  2 active torsions:
REMARK  status: ('A' for Active; 'I' for Inactive)
REMARK    1  A    between atoms: C5_5  and  N6_21 
REMARK    2  A    between atoms: C18_14  and  N17_19 
ROOT
HETATM    1  O1  MIQ B 502      -7.061 -15.716  -8.364  1.00142.91    -0.171 OA
HETATM    2  C2  MIQ B 502      -6.789 -15.866  -7.002  1.00141.17     0.195 A 
HETATM    3  C3  MIQ B 502      -7.829 -16.192  -5.884  1.00141.71     0.035 A 
HETATM    4  C4  MIQ B 502      -9.292 -16.430  -5.891  1.00142.86     0.046 A 
HETATM    5  C5  MIQ B 502      -9.978 -16.713  -4.683  1.00139.53     0.031 A 
HETATM    6  C12 MIQ B 502      -9.241 -16.770  -3.430  1.00139.38     0.030 A 
HETATM    7  C13 MIQ B 502      -7.838 -16.544  -3.422  1.00141.18     0.019 A 
HETATM    8  C14 MIQ B 502      -7.122 -16.250  -4.694  1.00138.77     0.033 A 
HETATM    9  C15 MIQ B 502      -5.634 -15.958  -5.076  1.00142.10     0.195 A 
HETATM   10  N17 MIQ B 502      -5.623 -15.771  -6.385  1.00139.42    -0.288 N 
HETATM   11  O16 MIQ B 502      -4.544 -15.904  -4.206  1.00148.93    -0.171 OA
ENDROOT
BRANCH  10  12
HETATM   12  C18 MIQ B 502      -4.397 -15.459  -7.096  1.00139.82     0.187 C 
HETATM   13  C19 MIQ B 502      -4.599 -14.117  -7.810  1.00140.06     0.247 C 
HETATM   14  O25 MIQ B 502      -5.001 -13.193  -7.197  1.00143.95    -0.271 OA
HETATM   15  N20 MIQ B 502      -4.305 -13.950  -9.219  1.00140.02    -0.296 N 
HETATM   16  H13 MIQ B 502      -4.448 -13.070  -9.675  1.00142.77     0.171 HD
HETATM   17  C21 MIQ B 502      -3.826 -15.096  -9.948  1.00142.22     0.224 C 
HETATM   18  C22 MIQ B 502      -4.361 -16.448  -9.520  1.00139.52     0.106 C 
HETATM   19  O24 MIQ B 502      -3.051 -14.984 -10.833  1.00146.13    -0.273 OA
HETATM   20  C23 MIQ B 502      -4.029 -16.597  -8.046  1.00139.15     0.045 C 
ENDBRANCH  10  12
BRANCH   5  21
HETATM   21  N6  MIQ B 502     -11.414 -16.928  -4.703  1.00140.95    -0.377 N 
HETATM   22  C7  MIQ B 502     -12.235 -16.227  -3.731  1.00142.12     0.149 C 
HETATM   23  C8  MIQ B 502     -13.524 -16.980  -3.427  1.00144.10     0.187 C 
HETATM   24  O9  MIQ B 502     -14.191 -17.402  -4.579  1.00148.65    -0.388 OA
HETATM   25  C10 MIQ B 502     -13.570 -17.317  -5.828  1.00147.44     0.187 C 
HETATM   26  C11 MIQ B 502     -12.053 -17.451  -5.898  1.00144.08     0.149 C 
ENDBRANCH   5  21
TORSDOF 2
ENDMDL
MODEL 3
REMARK VINA RESULT:      -6.7      2.402      8.070
REMARK  2 active torsions:
REMARK  status: ('A' for Active; 'I' for Inactive)
REMARK    1  A    between atoms: C5_5  and  N6_21 
REMARK    2  A    between atoms: C18_14  and  N17_19 
ROOT
HETATM    1  O1  MIQ B 502      -5.221 -14.980  -7.456  1.00142.91    -0.171 OA
HETATM    2  C2  MIQ B 502      -5.416 -16.344  -7.682  1.00141.17     0.195 A 
HETATM    3  C3  MIQ B 502      -6.567 -17.222  -7.094  1.00141.71     0.035 A 
HETATM    4  C4  MIQ B 502      -7.713 -16.933  -6.200  1.00142.86     0.046 A 
HETATM    5  C5  MIQ B 502      -8.614 -17.964  -5.833  1.00139.53     0.031 A 
HETATM    6  C12 MIQ B 502      -8.410 -19.315  -6.338  1.00139.38     0.030 A 
HETATM    7  C13 MIQ B 502      -7.312 -19.592  -7.196  1.00141.18     0.019 A 
HETATM    8  C14 MIQ B 502      -6.371 -18.504  -7.580  1.00138.77     0.033 A 
HETATM    9  C15 MIQ B 502      -5.092 -18.423  -8.475  1.00142.10     0.195 A 
HETATM   10  N17 MIQ B 502      -4.691 -17.163  -8.426  1.00139.42    -0.288 N 
HETATM   11  O16 MIQ B 502      -4.496 -19.471  -9.179  1.00148.93    -0.171 OA
ENDROOT
BRANCH  10  12
HETATM   12  C18 MIQ B 502      -3.507 -16.716  -9.136  1.00139.82     0.187 C 
HETATM   13  C19 MIQ B 502      -2.568 -16.063  -8.115  1.00140.06     0.247 C 
HETATM   14  O25 MIQ B 502      -2.295 -16.648  -7.127  1.00143.95    -0.271 OA
HETATM   15  N20 MIQ B 502      -2.000 -14.748  -8.331  1.00140.02    -0.296 N 
HETATM   16  H13 MIQ B 502      -1.394 -14.330  -7.653  1.00142.77     0.171 HD
HETATM   17  C21 MIQ B 502      -2.357 -14.050  -9.539  1.00142.22     0.224 C 
HETATM   18  C22 MIQ B 502      -3.757 -14.284 -10.073  1.00139.52     0.106 C 
HETATM   19  O24 MIQ B 502      -1.592 -13.335 -10.088  1.00146.13    -0.273 OA
HETATM   20  C23 MIQ B 502      -3.895 -15.781 -10.280  1.00139.15     0.045 C 
ENDBRANCH  10  12
BRANCH   5  21
HETATM   21  N6  MIQ B 502      -9.724 -17.670  -4.946  1.00140.95    -0.377 N 
HETATM   22  C7  MIQ B 502      -9.649 -18.122  -3.567  1.00142.12     0.149 C 
HETATM   23  C8  MIQ B 502     -11.031 -18.337  -2.963  1.00144.10     0.187 C 
HETATM   24  O9  MIQ B 502     -11.898 -17.267  -3.195  1.00148.65    -0.388 OA
HETATM   25  C10 MIQ B 502     -11.546 -16.252  -4.088  1.00147.44     0.187 C 
HETATM   26  C11 MIQ B 502     -10.651 -16.601  -5.273  1.00144.08     0.149 C 
ENDBRANCH   5  21
TORSDOF 2
ENDMDL
MODEL 4
REMARK VINA RESULT:      -6.7      2.059      8.286
REMARK  2 active torsions:
REMARK  status: ('A' for Active; 'I' for Inactive)
REMARK    1  A    between atoms: C5_5  and  N6_21 
REMARK    2  A    between atoms: C18_14  and  N17_19 
ROOT
HETATM    1  O1  MIQ B 502      -6.164 -17.656  -9.511  1.00142.91    -0.171 OA
HETATM    2  C2  MIQ B 502      -5.694 -16.907  -8.429  1.00141.17     0.195 A 
HETATM    3  C3  MIQ B 502      -6.424 -16.700  -7.064  1.00141.71     0.035 A 
HETATM    4  C4  MIQ B 502      -7.717 -17.176  -6.518  1.00142.86     0.046 A 
HETATM    5  C5  MIQ B 502      -8.119 -16.812  -5.208  1.00139.53     0.031 A 
HETATM    6  C12 MIQ B 502      -7.257 -15.964  -4.397  1.00139.38     0.030 A 
HETATM    7  C13 MIQ B 502      -6.017 -15.508  -4.920  1.00141.18     0.019 A 
HETATM    8  C14 MIQ B 502      -5.599 -15.896  -6.295  1.00138.77     0.033 A 
HETATM    9  C15 MIQ B 502      -4.348 -15.604  -7.187  1.00142.10     0.195 A 
HETATM   10  N17 MIQ B 502      -4.559 -16.237  -8.329  1.00139.42    -0.288 N 
HETATM   11  O16 MIQ B 502      -3.239 -14.830  -6.843  1.00148.93    -0.171 OA
ENDROOT
BRANCH  10  12
HETATM   12  C18 MIQ B 502      -3.600 -16.176  -9.417  1.00139.82     0.187 C 
HETATM   13  C19 MIQ B 502      -2.216 -16.497  -8.839  1.00140.06     0.247 C 
HETATM   14  O25 MIQ B 502      -2.077 -17.468  -8.183  1.00143.95    -0.271 OA
HETATM   15  N20 MIQ B 502      -1.071 -15.644  -9.080  1.00140.02    -0.296 N 
HETATM   16  H13 MIQ B 502      -0.174 -15.861  -8.692  1.00142.77     0.171 HD
HETATM   17  C21 MIQ B 502      -1.268 -14.459  -9.875  1.00142.22     0.224 C 
HETATM   18  C22 MIQ B 502      -2.615 -13.773  -9.753  1.00139.52     0.106 C 
HETATM   19  O24 MIQ B 502      -0.423 -14.047 -10.591  1.00146.13    -0.273 OA
HETATM   20  C23 MIQ B 502      -3.663 -14.813 -10.105  1.00139.15     0.045 C 
ENDBRANCH  10  12
BRANCH   5  21
HETATM   21  N6  MIQ B 502      -9.394 -17.274  -4.691  1.00140.95    -0.377 N 
HETATM   22  C7  MIQ B 502     -10.609 -16.875  -5.381  1.00142.12     0.149 C 
HETATM   23  C8  MIQ B 502     -11.812 -16.852  -4.446  1.00144.10     0.187 C 
HETATM   24  O9  MIQ B 502     -11.919 -18.007  -3.669  1.00148.65    -0.388 OA
HETATM   25  C10 MIQ B 502     -10.874 -18.934  -3.631  1.00147.44     0.187 C 
HETATM   26  C11 MIQ B 502      -9.446 -18.430  -3.814  1.00144.08     0.149 C 
ENDBRANCH   5  21
TORSDOF 2
ENDMDL
MODEL 5
REMARK VINA RESULT:      -6.6      3.376      6.212
REMARK  2 active torsions:
REMARK  status: ('A' for Active; 'I' for Inactive)
REMARK    1  A    between atoms: C5_5  and  N6_21 
REMARK    2  A    between atoms: C18_14  and  N17_19 
ROOT
HETATM    1  O1  MIQ B 502      -4.094 -12.776  -9.222  1.00142.91    -0.171 OA
HETATM    2  C2  MIQ B 502      -3.492 -13.952  -8.769  1.00141.17     0.195 A 
HETATM    3  C3  MIQ B 502      -2.212 -14.621  -9.365  1.00141.71     0.035 A 
HETATM    4  C4  MIQ B 502      -1.306 -14.270 -10.484  1.00142.86     0.046 A 
HETATM    5  C5  MIQ B 502      -0.195 -15.096 -10.793  1.00139.53     0.031 A 
HETATM    6  C12 MIQ B 502       0.056 -16.293 -10.004  1.00139.38     0.030 A 
HETATM    7  C13 MIQ B 502      -0.812 -16.629  -8.930  1.00141.18     0.019 A 
HETATM    8  C14 MIQ B 502      -1.975 -15.758  -8.610  1.00138.77     0.033 A 
HETATM    9  C15 MIQ B 502      -3.113 -15.794  -7.538  1.00142.10     0.195 A 
HETATM   10  N17 MIQ B 502      -3.861 -14.727  -7.764  1.00139.42    -0.288 N 
HETATM   11  O16 MIQ B 502      -3.299 -16.761  -6.549  1.00148.93    -0.171 OA
ENDROOT
BRANCH  10  12
HETATM   12  C18 MIQ B 502      -5.035 -14.441  -6.960  1.00139.82     0.187 C 
HETATM   13  C19 MIQ B 502      -4.611 -14.471  -5.486  1.00140.06     0.247 C 
HETATM   14  O25 MIQ B 502      -3.677 -13.838  -5.142  1.00143.95    -0.271 OA
HETATM   15  N20 MIQ B 502      -5.330 -15.252  -4.501  1.00140.02    -0.296 N 
HETATM   16  H13 MIQ B 502      -5.040 -15.269  -3.543  1.00142.77     0.171 HD
HETATM   17  C21 MIQ B 502      -6.461 -16.025  -4.947  1.00142.22     0.224 C 
HETATM   18  C22 MIQ B 502      -6.382 -16.601  -6.347  1.00139.52     0.106 C 
HETATM   19  O24 MIQ B 502      -7.404 -16.196  -4.255  1.00146.13    -0.273 OA
HETATM   20  C23 MIQ B 502      -6.155 -15.428  -7.284  1.00139.15     0.045 C 
ENDBRANCH  10  12
BRANCH   5  21
HETATM   21  N6  MIQ B 502       0.675 -14.748 -11.901  1.00140.95    -0.377 N 
HETATM   22  C7  MIQ B 502       2.075 -15.132 -11.832  1.00142.12     0.149 C 
HETATM   23  C8  MIQ B 502       2.959 -14.207 -12.658  1.00144.10     0.187 C 
HETATM   24  O9  MIQ B 502       2.464 -13.986 -13.944  1.00148.65    -0.388 OA
HETATM   25  C10 MIQ B 502       1.176 -14.406 -14.288  1.00147.44     0.187 C 
HETATM   26  C11 MIQ B 502       0.106 -14.442 -13.202  1.00144.08     0.149 C 
ENDBRANCH   5  21
TORSDOF 2
ENDMDL
MODEL 6
REMARK VINA RESULT:      -6.6      2.236      8.331
REMARK  2 active torsions:
REMARK  status: ('A' for Active; 'I' for Inactive)
REMARK    1  A    between atoms: C5_5  and  N6_21 
REMARK    2  A    between atoms: C18_14  and  N17_19 
ROOT
HETATM    1  O1  MIQ B 502      -5.389 -13.836  -6.733  1.00142.91    -0.171 OA
HETATM    2  C2  MIQ B 502      -5.399 -15.156  -7.188  1.00141.17     0.195 A 
HETATM    3  C3  MIQ B 502      -6.439 -16.256  -6.804  1.00141.71     0.035 A 
HETATM    4  C4  MIQ B 502      -7.635 -16.266  -5.928  1.00142.86     0.046 A 
HETATM    5  C5  MIQ B 502      -8.402 -17.449  -5.777  1.00139.53     0.031 A 
HETATM    6  C12 MIQ B 502      -8.013 -18.659  -6.486  1.00139.38     0.030 A 
HETATM    7  C13 MIQ B 502      -6.867 -18.649  -7.327  1.00141.18     0.019 A 
HETATM    8  C14 MIQ B 502      -6.067 -17.404  -7.484  1.00138.77     0.033 A 
HETATM    9  C15 MIQ B 502      -4.788 -17.015  -8.296  1.00142.10     0.195 A 
HETATM   10  N17 MIQ B 502      -4.556 -15.741  -8.022  1.00139.42    -0.288 N 
HETATM   11  O16 MIQ B 502      -4.045 -17.847  -9.134  1.00148.93    -0.171 OA
ENDROOT
BRANCH  10  12
HETATM   12  C18 MIQ B 502      -3.424 -15.038  -8.595  1.00139.82     0.187 C 
HETATM   13  C19 MIQ B 502      -3.446 -15.271 -10.111  1.00140.06     0.247 C 
HETATM   14  O25 MIQ B 502      -4.441 -15.066 -10.710  1.00143.95    -0.271 OA
HETATM   15  N20 MIQ B 502      -2.276 -15.732 -10.830  1.00140.02    -0.296 N 
HETATM   16  H13 MIQ B 502      -2.305 -15.887 -11.818  1.00142.77     0.171 HD
HETATM   17  C21 MIQ B 502      -1.076 -15.985 -10.074  1.00142.22     0.224 C 
HETATM   18  C22 MIQ B 502      -1.258 -16.509  -8.662  1.00139.52     0.106 C 
HETATM   19  O24 MIQ B 502      -0.005 -15.789 -10.532  1.00146.13    -0.273 OA
HETATM   20  C23 MIQ B 502      -2.124 -15.496  -7.935  1.00139.15     0.045 C 
ENDBRANCH  10  12
BRANCH   5  21
HETATM   21  N6  MIQ B 502      -9.562 -17.449  -4.904  1.00140.95    -0.377 N 
HETATM   22  C7  MIQ B 502     -10.799 -16.864  -5.392  1.00142.12     0.149 C 
HETATM   23  C8  MIQ B 502     -11.673 -16.351  -4.255  1.00144.10     0.187 C 
HETATM   24  O9  MIQ B 502     -11.819 -17.278  -3.221  1.00148.65    -0.388 OA
HETATM   25  C10 MIQ B 502     -11.032 -18.432  -3.189  1.00147.44     0.187 C 
HETATM   26  C11 MIQ B 502      -9.630 -18.376  -3.787  1.00144.08     0.149 C 
ENDBRANCH   5  21
TORSDOF 2
ENDMDL
MODEL 7
REMARK VINA RESULT:      -6.4      2.060      8.211
REMARK  2 active torsions:
REMARK  status: ('A' for Active; 'I' for Inactive)
REMARK    1  A    between atoms: C5_5  and  N6_21 
REMARK    2  A    between atoms: C18_14  and  N17_19 
ROOT
HETATM    1  O1  MIQ B 502      -5.034 -16.326  -9.619  1.00142.91    -0.171 OA
HETATM    2  C2  MIQ B 502      -4.659 -16.083  -8.296  1.00141.17     0.195 A 
HETATM    3  C3  MIQ B 502      -5.571 -16.230  -7.037  1.00141.71     0.035 A 
HETATM    4  C4  MIQ B 502      -6.983 -16.635  -6.843  1.00142.86     0.046 A 
HETATM    5  C5  MIQ B 502      -7.546 -16.674  -5.542  1.00139.53     0.031 A 
HETATM    6  C12 MIQ B 502      -6.730 -16.315  -4.391  1.00139.38     0.030 A 
HETATM    7  C13 MIQ B 502      -5.375 -15.928  -4.576  1.00141.18     0.019 A 
HETATM    8  C14 MIQ B 502      -4.789 -15.891  -5.944  1.00138.77     0.033 A 
HETATM    9  C15 MIQ B 502      -3.384 -15.532  -6.528  1.00142.10     0.195 A 
HETATM   10  N17 MIQ B 502      -3.482 -15.692  -7.838  1.00139.42    -0.288 N 
HETATM   11  O16 MIQ B 502      -2.260 -15.123  -5.810  1.00148.93    -0.171 OA
ENDROOT
BRANCH  10  12
HETATM   12  C18 MIQ B 502      -2.359 -15.430  -8.719  1.00139.82     0.187 C 
HETATM   13  C19 MIQ B 502      -2.837 -14.470  -9.814  1.00140.06     0.247 C 
HETATM   14  O25 MIQ B 502      -3.396 -13.478  -9.507  1.00143.95    -0.271 OA
HETATM   15  N20 MIQ B 502      -2.617 -14.744 -11.220  1.00140.02    -0.296 N 
HETATM   16  H13 MIQ B 502      -2.941 -14.112 -11.925  1.00142.77     0.171 HD
HETATM   17  C21 MIQ B 502      -1.942 -15.967 -11.571  1.00142.22     0.224 C 
HETATM   18  C22 MIQ B 502      -2.191 -17.164 -10.674  1.00139.52     0.106 C 
HETATM   19  O24 MIQ B 502      -1.226 -16.030 -12.509  1.00146.13    -0.273 OA
HETATM   20  C23 MIQ B 502      -1.799 -16.741  -9.270  1.00139.15     0.045 C 
ENDBRANCH  10  12
BRANCH   5  21
HETATM   21  N6  MIQ B 502      -8.935 -17.058  -5.369  1.00140.95    -0.377 N 
HETATM   22  C7  MIQ B 502      -9.277 -17.950  -4.274  1.00142.12     0.149 C 
HETATM   23  C8  MIQ B 502     -10.536 -18.756  -4.569  1.00144.10     0.187 C 
HETATM   24  O9  MIQ B 502     -11.585 -17.969  -5.048  1.00148.65    -0.388 OA
HETATM   25  C10 MIQ B 502     -11.361 -16.639  -5.416  1.00147.44     0.187 C 
HETATM   26  C11 MIQ B 502      -9.989 -16.254  -5.960  1.00144.08     0.149 C 
ENDBRANCH   5  21
TORSDOF 2
ENDMDL
MODEL 8
REMARK VINA RESULT:      -6.4      2.656      8.824
REMARK  2 active torsions:
REMARK  status: ('A' for Active; 'I' for Inactive)
REMARK    1  A    between atoms: C5_5  and  N6_21 
REMARK    2  A    between atoms: C18_14  and  N17_19 
ROOT
HETATM    1  O1  MIQ B 502      -4.584 -18.548 -10.382  1.00142.91    -0.171 OA
HETATM    2  C2  MIQ B 502      -4.249 -17.483  -9.543  1.00141.17     0.195 A 
HETATM    3  C3  MIQ B 502      -5.117 -16.923  -8.371  1.00141.71     0.035 A 
HETATM    4  C4  MIQ B 502      -6.440 -17.294  -7.816  1.00142.86     0.046 A 
HETATM    5  C5  MIQ B 502      -6.981 -16.581  -6.717  1.00139.53     0.031 A 
HETATM    6  C12 MIQ B 502      -6.232 -15.478  -6.132  1.00139.38     0.030 A 
HETATM    7  C13 MIQ B 502      -4.963 -15.122  -6.663  1.00141.18     0.019 A 
HETATM    8  C14 MIQ B 502      -4.399 -15.877  -7.816  1.00138.77     0.033 A 
HETATM    9  C15 MIQ B 502      -3.077 -15.787  -8.647  1.00142.10     0.195 A 
HETATM   10  N17 MIQ B 502      -3.152 -16.745  -9.557  1.00139.42    -0.288 N 
HETATM   11  O16 MIQ B 502      -2.034 -14.878  -8.463  1.00148.93    -0.171 OA
ENDROOT
BRANCH  10  12
HETATM   12  C18 MIQ B 502      -2.094 -16.952 -10.527  1.00139.82     0.187 C 
HETATM   13  C19 MIQ B 502      -0.799 -17.230  -9.755  1.00140.06     0.247 C 
HETATM   14  O25 MIQ B 502      -0.795 -18.059  -8.916  1.00143.95    -0.271 OA
HETATM   15  N20 MIQ B 502       0.425 -16.505 -10.030  1.00140.02    -0.296 N 
HETATM   16  H13 MIQ B 502       1.263 -16.692  -9.514  1.00142.77     0.171 HD
HETATM   17  C21 MIQ B 502       0.393 -15.491 -11.052  1.00142.22     0.224 C 
HETATM   18  C22 MIQ B 502      -0.904 -14.720 -11.206  1.00139.52     0.106 C 
HETATM   19  O24 MIQ B 502       1.331 -15.275 -11.738  1.00146.13    -0.273 OA
HETATM   20  C23 MIQ B 502      -1.989 -15.749 -11.464  1.00139.15     0.045 C 
ENDBRANCH  10  12
BRANCH   5  21
HETATM   21  N6  MIQ B 502      -8.284 -16.945  -6.192  1.00140.95    -0.377 N 
HETATM   22  C7  MIQ B 502      -8.371 -18.051  -5.253  1.00142.12     0.149 C 
HETATM   23  C8  MIQ B 502      -9.737 -18.723  -5.290  1.00144.10     0.187 C 
HETATM   24  O9  MIQ B 502     -10.793 -17.811  -5.237  1.00148.65    -0.388 OA
HETATM   25  C10 MIQ B 502     -10.553 -16.441  -5.376  1.00147.44     0.187 C 
HETATM   26  C11 MIQ B 502      -9.378 -15.990  -6.237  1.00144.08     0.149 C 
ENDBRANCH   5  21
TORSDOF 2
ENDMDL
MODEL 9
REMARK VINA RESULT:      -6.4      2.699      3.401
REMARK  2 active torsions:
REMARK  status: ('A' for Active; 'I' for Inactive)
REMARK    1  A    between atoms: C5_5  and  N6_21 
REMARK    2  A    between atoms: C18_14  and  N17_19 
ROOT
HETATM    1  O1  MIQ B 502      -6.410 -14.313  -6.642  1.00142.91    -0.171 OA
HETATM    2  C2  MIQ B 502      -6.675 -15.650  -6.946  1.00141.17     0.195 A 
HETATM    3  C3  MIQ B 502      -6.048 -16.471  -8.117  1.00141.71     0.035 A 
HETATM    4  C4  MIQ B 502      -5.068 -16.145  -9.181  1.00142.86     0.046 A 
HETATM    5  C5  MIQ B 502      -4.683 -17.129 -10.126  1.00139.53     0.031 A 
HETATM    6  C12 MIQ B 502      -5.253 -18.466 -10.051  1.00139.38     0.030 A 
HETATM    7  C13 MIQ B 502      -6.192 -18.779  -9.031  1.00141.18     0.019 A 
HETATM    8  C14 MIQ B 502      -6.591 -17.744  -8.040  1.00138.77     0.033 A 
HETATM    9  C15 MIQ B 502      -7.560 -17.712  -6.813  1.00142.10     0.195 A 
HETATM   10  N17 MIQ B 502      -7.486 -16.486  -6.321  1.00139.42    -0.288 N 
HETATM   11  O16 MIQ B 502      -8.343 -18.766  -6.339  1.00148.93    -0.171 OA
ENDROOT
BRANCH  10  12
HETATM   12  C18 MIQ B 502      -8.273 -16.083  -5.171  1.00139.82     0.187 C 
HETATM   13  C19 MIQ B 502      -8.036 -17.111  -4.058  1.00140.06     0.247 C 
HETATM   14  O25 MIQ B 502      -6.929 -17.390  -3.758  1.00143.95    -0.271 OA
HETATM   15  N20 MIQ B 502      -9.133 -17.747  -3.358  1.00140.02    -0.296 N 
HETATM   16  H13 MIQ B 502      -8.965 -18.421  -2.638  1.00142.77     0.171 HD
HETATM   17  C21 MIQ B 502     -10.475 -17.397  -3.749  1.00142.22     0.224 C 
HETATM   18  C22 MIQ B 502     -10.696 -17.077  -5.215  1.00139.52     0.106 C 
HETATM   19  O24 MIQ B 502     -11.357 -17.358  -2.963  1.00146.13    -0.273 OA
HETATM   20  C23 MIQ B 502      -9.745 -15.944  -5.556  1.00139.15     0.045 C 
ENDBRANCH  10  12
BRANCH   5  21
HETATM   21  N6  MIQ B 502      -3.734 -16.791 -11.171  1.00140.95    -0.377 N 
HETATM   22  C7  MIQ B 502      -2.416 -16.316 -10.786  1.00142.12     0.149 C 
HETATM   23  C8  MIQ B 502      -1.797 -15.426 -11.856  1.00144.10     0.187 C 
HETATM   24  O9  MIQ B 502      -1.881 -15.977 -13.136  1.00148.65    -0.388 OA
HETATM   25  C10 MIQ B 502      -2.668 -17.108 -13.369  1.00147.44     0.187 C 
HETATM   26  C11 MIQ B 502      -3.911 -17.321 -12.512  1.00144.08     0.149 C 
ENDBRANCH   5  21
TORSDOF 2
ENDMDL
