MODEL 1
REMARK VINA RESULT:      -6.8      0.000      0.000
REMARK  2 active torsions:
REMARK  status: ('A' for Active; 'I' for Inactive)
REMARK    1  A    between atoms: C5_5  and  N6_21 
REMARK    2  A    between atoms: C18_14  and  N17_19 
ROOT
HETATM    1  O1  MIQ B 502      -9.885   4.783 -13.996  1.00142.91    -0.171 OA
HETATM    2  C2  MIQ B 502     -10.857   5.105 -14.945  1.00141.17     0.195 A 
HETATM    3  C3  MIQ B 502     -10.699   5.011 -16.496  1.00141.71     0.035 A 
HETATM    4  C4  MIQ B 502      -9.588   4.592 -17.384  1.00142.86     0.046 A 
HETATM    5  C5  MIQ B 502      -9.748   4.614 -18.792  1.00139.53     0.031 A 
HETATM    6  C12 MIQ B 502     -11.012   5.050 -19.369  1.00139.38     0.030 A 
HETATM    7  C13 MIQ B 502     -12.077   5.451 -18.518  1.00141.18     0.019 A 
HETATM    8  C14 MIQ B 502     -11.904   5.424 -17.040  1.00138.77     0.033 A 
HETATM    9  C15 MIQ B 502     -12.816   5.775 -15.820  1.00142.10     0.195 A 
HETATM   10  N17 MIQ B 502     -12.088   5.542 -14.741  1.00139.42    -0.288 N 
HETATM   11  O16 MIQ B 502     -14.131   6.243 -15.866  1.00148.93    -0.171 OA
ENDROOT
BRANCH  10  12
HETATM   12  C18 MIQ B 502     -12.613   5.775 -13.408  1.00139.82     0.187 C 
HETATM   13  C19 MIQ B 502     -11.630   6.694 -12.673  1.00140.06     0.247 C 
HETATM   14  O25 MIQ B 502     -11.280   7.695 -13.190  1.00143.95    -0.271 OA
HETATM   15  N20 MIQ B 502     -11.121   6.370 -11.355  1.00140.02    -0.296 N 
HETATM   16  H13 MIQ B 502     -10.475   6.975 -10.889  1.00142.77     0.171 HD
HETATM   17  C21 MIQ B 502     -11.555   5.138 -10.749  1.00142.22     0.224 C 
HETATM   18  C22 MIQ B 502     -11.814   3.972 -11.685  1.00139.52     0.106 C 
HETATM   19  O24 MIQ B 502     -11.706   5.043  -9.581  1.00146.13    -0.273 OA
HETATM   20  C23 MIQ B 502     -12.848   4.447 -12.689  1.00139.15     0.045 C 
ENDBRANCH  10  12
BRANCH   5  21
HETATM   21  N6  MIQ B 502      -8.647   4.215 -19.649  1.00140.95    -0.377 N 
HETATM   22  C7  MIQ B 502      -8.366   5.008 -20.833  1.00142.12     0.149 C 
HETATM   23  C8  MIQ B 502      -7.689   4.185 -21.922  1.00144.10     0.187 C 
HETATM   24  O9  MIQ B 502      -6.619   3.426 -21.444  1.00148.65    -0.388 OA
HETATM   25  C10 MIQ B 502      -6.399   3.300 -20.070  1.00147.44     0.187 C 
HETATM   26  C11 MIQ B 502      -7.600   3.352 -19.131  1.00144.08     0.149 C 
ENDBRANCH   5  21
TORSDOF 2
ENDMDL
MODEL 2
REMARK VINA RESULT:      -6.8     16.147     20.327
REMARK  2 active torsions:
REMARK  status: ('A' for Active; 'I' for Inactive)
REMARK    1  A    between atoms: C5_5  and  N6_21 
REMARK    2  A    between atoms: C18_14  and  N17_19 
ROOT
HETATM    1  O1  MIQ B 502     -19.677   5.903   1.822  1.00142.91    -0.171 OA
HETATM    2  C2  MIQ B 502     -20.028   4.606   2.203  1.00141.17     0.195 A 
HETATM    3  C3  MIQ B 502     -19.262   3.296   1.834  1.00141.71     0.035 A 
HETATM    4  C4  MIQ B 502     -18.037   3.020   1.046  1.00142.86     0.046 A 
HETATM    5  C5  MIQ B 502     -17.574   1.690   0.884  1.00139.53     0.031 A 
HETATM    6  C12 MIQ B 502     -18.305   0.590   1.497  1.00139.38     0.030 A 
HETATM    7  C13 MIQ B 502     -19.478   0.855   2.254  1.00141.18     0.019 A 
HETATM    8  C14 MIQ B 502     -19.959   2.253   2.422  1.00138.77     0.033 A 
HETATM    9  C15 MIQ B 502     -21.165   2.920   3.161  1.00142.10     0.195 A 
HETATM   10  N17 MIQ B 502     -21.054   4.220   2.942  1.00139.42    -0.288 N 
HETATM   11  O16 MIQ B 502     -22.157   2.269   3.897  1.00148.93    -0.171 OA
ENDROOT
BRANCH  10  12
HETATM   12  C18 MIQ B 502     -22.023   5.162   3.471  1.00139.82     0.187 C 
HETATM   13  C19 MIQ B 502     -22.399   6.129   2.342  1.00140.06     0.247 C 
HETATM   14  O25 MIQ B 502     -22.733   5.694   1.298  1.00143.95    -0.271 OA
HETATM   15  N20 MIQ B 502     -22.361   7.566   2.523  1.00140.02    -0.296 N 
HETATM   16  H13 MIQ B 502     -22.603   8.187   1.776  1.00142.77     0.171 HD
HETATM   17  C21 MIQ B 502     -21.940   8.074   3.804  1.00142.22     0.224 C 
HETATM   18  C22 MIQ B 502     -20.893   7.266   4.546  1.00139.52     0.106 C 
HETATM   19  O24 MIQ B 502     -22.394   9.068   4.254  1.00146.13    -0.273 OA
HETATM   20  C23 MIQ B 502     -21.461   5.867   4.705  1.00139.15     0.045 C 
ENDBRANCH  10  12
BRANCH   5  21
HETATM   21  N6  MIQ B 502     -16.381   1.433   0.097  1.00140.95    -0.377 N 
HETATM   22  C7  MIQ B 502     -15.891   0.068   0.005  1.00142.12     0.149 C 
HETATM   23  C8  MIQ B 502     -14.391   0.019  -0.257  1.00144.10     0.187 C 
HETATM   24  O9  MIQ B 502     -13.992   0.868  -1.291  1.00148.65    -0.388 OA
HETATM   25  C10 MIQ B 502     -14.883   1.804  -1.822  1.00147.44     0.187 C 
HETATM   26  C11 MIQ B 502     -15.957   2.389  -0.910  1.00144.08     0.149 C 
ENDBRANCH   5  21
TORSDOF 2
ENDMDL
MODEL 3
REMARK VINA RESULT:      -6.5      1.344      2.521
REMARK  2 active torsions:
REMARK  status: ('A' for Active; 'I' for Inactive)
REMARK    1  A    between atoms: C5_5  and  N6_21 
REMARK    2  A    between atoms: C18_14  and  N17_19 
ROOT
HETATM    1  O1  MIQ B 502     -13.295   5.880 -16.452  1.00142.91    -0.171 OA
HETATM    2  C2  MIQ B 502     -11.951   5.727 -16.103  1.00141.17     0.195 A 
HETATM    3  C3  MIQ B 502     -10.753   5.570 -17.092  1.00141.71     0.035 A 
HETATM    4  C4  MIQ B 502     -10.650   5.539 -18.571  1.00142.86     0.046 A 
HETATM    5  C5  MIQ B 502      -9.389   5.381 -19.198  1.00139.53     0.031 A 
HETATM    6  C12 MIQ B 502      -8.188   5.250 -18.384  1.00139.38     0.030 A 
HETATM    7  C13 MIQ B 502      -8.287   5.282 -16.967  1.00141.18     0.019 A 
HETATM    8  C14 MIQ B 502      -9.614   5.450 -16.314  1.00138.77     0.033 A 
HETATM    9  C15 MIQ B 502     -10.107   5.533 -14.833  1.00142.10     0.195 A 
HETATM   10  N17 MIQ B 502     -11.419   5.688 -14.893  1.00139.42    -0.288 N 
HETATM   11  O16 MIQ B 502      -9.318   5.455 -13.684  1.00148.93    -0.171 OA
ENDROOT
BRANCH  10  12
HETATM   12  C18 MIQ B 502     -12.226   5.787 -13.691  1.00139.82     0.187 C 
HETATM   13  C19 MIQ B 502     -11.519   6.752 -12.732  1.00140.06     0.247 C 
HETATM   14  O25 MIQ B 502     -11.183   7.812 -13.125  1.00143.95    -0.271 OA
HETATM   15  N20 MIQ B 502     -11.257   6.401 -11.351  1.00140.02    -0.296 N 
HETATM   16  H13 MIQ B 502     -10.789   7.038 -10.736  1.00142.77     0.171 HD
HETATM   17  C21 MIQ B 502     -11.668   5.098 -10.897  1.00142.22     0.224 C 
HETATM   18  C22 MIQ B 502     -11.602   3.971 -11.910  1.00139.52     0.106 C 
HETATM   19  O24 MIQ B 502     -12.041   4.918  -9.790  1.00146.13    -0.273 OA
HETATM   20  C23 MIQ B 502     -12.456   4.402 -13.089  1.00139.15     0.045 C 
ENDBRANCH  10  12
BRANCH   5  21
HETATM   21  N6  MIQ B 502      -9.304   5.337 -20.646  1.00140.95    -0.377 N 
HETATM   22  C7  MIQ B 502      -8.099   4.801 -21.256  1.00142.12     0.149 C 
HETATM   23  C8  MIQ B 502      -7.859   5.379 -22.645  1.00144.10     0.187 C 
HETATM   24  O9  MIQ B 502      -9.000   5.348 -23.450  1.00148.65    -0.388 OA
HETATM   25  C10 MIQ B 502     -10.245   5.031 -22.902  1.00147.44     0.187 C 
HETATM   26  C11 MIQ B 502     -10.515   5.395 -21.446  1.00144.08     0.149 C 
ENDBRANCH   5  21
TORSDOF 2
ENDMDL
MODEL 4
REMARK VINA RESULT:      -6.4     15.417     20.269
REMARK  2 active torsions:
REMARK  status: ('A' for Active; 'I' for Inactive)
REMARK    1  A    between atoms: C5_5  and  N6_21 
REMARK    2  A    between atoms: C18_14  and  N17_19 
ROOT
HETATM    1  O1  MIQ B 502     -20.287  -0.604   1.349  1.00142.91    -0.171 OA
HETATM    2  C2  MIQ B 502     -19.648   0.387   2.097  1.00141.17     0.195 A 
HETATM    3  C3  MIQ B 502     -18.649   1.456   1.549  1.00141.71     0.035 A 
HETATM    4  C4  MIQ B 502     -18.107   1.748   0.200  1.00142.86     0.046 A 
HETATM    5  C5  MIQ B 502     -17.193   2.815   0.011  1.00139.53     0.031 A 
HETATM    6  C12 MIQ B 502     -16.786   3.628   1.148  1.00139.38     0.030 A 
HETATM    7  C13 MIQ B 502     -17.306   3.349   2.440  1.00141.18     0.019 A 
HETATM    8  C14 MIQ B 502     -18.268   2.229   2.633  1.00138.77     0.033 A 
HETATM    9  C15 MIQ B 502     -19.034   1.637   3.861  1.00142.10     0.195 A 
HETATM   10  N17 MIQ B 502     -19.752   0.630   3.392  1.00139.42    -0.288 N 
HETATM   11  O16 MIQ B 502     -18.968   2.084   5.181  1.00148.93    -0.171 OA
ENDROOT
BRANCH  10  12
HETATM   12  C18 MIQ B 502     -20.589  -0.174   4.263  1.00139.82     0.187 C 
HETATM   13  C19 MIQ B 502     -20.216  -1.645   4.044  1.00140.06     0.247 C 
HETATM   14  O25 MIQ B 502     -19.082  -1.967   4.103  1.00143.95    -0.271 OA
HETATM   15  N20 MIQ B 502     -21.218  -2.654   3.772  1.00140.02    -0.296 N 
HETATM   16  H13 MIQ B 502     -20.961  -3.610   3.624  1.00142.77     0.171 HD
HETATM   17  C21 MIQ B 502     -22.594  -2.235   3.694  1.00142.22     0.224 C 
HETATM   18  C22 MIQ B 502     -22.853  -0.850   3.136  1.00139.52     0.106 C 
HETATM   19  O24 MIQ B 502     -23.475  -2.937   4.054  1.00146.13    -0.273 OA
HETATM   20  C23 MIQ B 502     -22.065   0.118   4.000  1.00139.15     0.045 C 
ENDBRANCH  10  12
BRANCH   5  21
HETATM   21  N6  MIQ B 502     -16.659   3.080  -1.313  1.00140.95    -0.377 N 
HETATM   22  C7  MIQ B 502     -15.405   3.805  -1.423  1.00142.12     0.149 C 
HETATM   23  C8  MIQ B 502     -15.295   4.553  -2.745  1.00144.10     0.187 C 
HETATM   24  O9  MIQ B 502     -15.626   3.762  -3.847  1.00148.65    -0.388 OA
HETATM   25  C10 MIQ B 502     -16.212   2.506  -3.666  1.00147.44     0.187 C 
HETATM   26  C11 MIQ B 502     -17.099   2.284  -2.445  1.00144.08     0.149 C 
ENDBRANCH   5  21
TORSDOF 2
ENDMDL
MODEL 5
REMARK VINA RESULT:      -6.3     17.616     19.732
REMARK  2 active torsions:
REMARK  status: ('A' for Active; 'I' for Inactive)
REMARK    1  A    between atoms: C5_5  and  N6_21 
REMARK    2  A    between atoms: C18_14  and  N17_19 
ROOT
HETATM    1  O1  MIQ B 502     -20.965   2.804   2.075  1.00142.91    -0.171 OA
HETATM    2  C2  MIQ B 502     -19.893   2.514   1.227  1.00141.17     0.195 A 
HETATM    3  C3  MIQ B 502     -19.931   1.573  -0.019  1.00141.71     0.035 A 
HETATM    4  C4  MIQ B 502     -20.999   0.763  -0.652  1.00142.86     0.046 A 
HETATM    5  C5  MIQ B 502     -20.722  -0.009  -1.808  1.00139.53     0.031 A 
HETATM    6  C12 MIQ B 502     -19.381  -0.007  -2.375  1.00139.38     0.030 A 
HETATM    7  C13 MIQ B 502     -18.357   0.770  -1.769  1.00141.18     0.019 A 
HETATM    8  C14 MIQ B 502     -18.654   1.581  -0.557  1.00138.77     0.033 A 
HETATM    9  C15 MIQ B 502     -17.819   2.534   0.360  1.00142.10     0.195 A 
HETATM   10  N17 MIQ B 502     -18.652   2.965   1.293  1.00139.42    -0.288 N 
HETATM   11  O16 MIQ B 502     -16.469   2.857   0.219  1.00148.93    -0.171 OA
ENDROOT
BRANCH  10  12
HETATM   12  C18 MIQ B 502     -18.213   3.868   2.340  1.00139.82     0.187 C 
HETATM   13  C19 MIQ B 502     -18.637   3.266   3.685  1.00140.06     0.247 C 
HETATM   14  O25 MIQ B 502     -18.361   2.144   3.927  1.00143.95    -0.271 OA
HETATM   15  N20 MIQ B 502     -19.364   4.037   4.673  1.00140.02    -0.296 N 
HETATM   16  H13 MIQ B 502     -19.641   3.630   5.545  1.00142.77     0.171 HD
HETATM   17  C21 MIQ B 502     -19.698   5.401   4.351  1.00142.22     0.224 C 
HETATM   18  C22 MIQ B 502     -19.998   5.703   2.896  1.00139.52     0.106 C 
HETATM   19  O24 MIQ B 502     -19.732   6.241   5.181  1.00146.13    -0.273 OA
HETATM   20  C23 MIQ B 502     -18.777   5.269   2.105  1.00139.15     0.045 C 
ENDBRANCH  10  12
BRANCH   5  21
HETATM   21  N6  MIQ B 502     -21.774  -0.809  -2.410  1.00140.95    -0.377 N 
HETATM   22  C7  MIQ B 502     -22.076  -0.613  -3.817  1.00142.12     0.149 C 
HETATM   23  C8  MIQ B 502     -23.518  -0.980  -4.146  1.00144.10     0.187 C 
HETATM   24  O9  MIQ B 502     -23.897  -2.216  -3.620  1.00148.65    -0.388 OA
HETATM   25  C10 MIQ B 502     -23.074  -2.880  -2.706  1.00147.44     0.187 C 
HETATM   26  C11 MIQ B 502     -22.195  -2.047  -1.778  1.00144.08     0.149 C 
ENDBRANCH   5  21
TORSDOF 2
ENDMDL
MODEL 6
REMARK VINA RESULT:      -6.3      1.722      2.559
REMARK  2 active torsions:
REMARK  status: ('A' for Active; 'I' for Inactive)
REMARK    1  A    between atoms: C5_5  and  N6_21 
REMARK    2  A    between atoms: C18_14  and  N17_19 
ROOT
HETATM    1  O1  MIQ B 502     -11.993   2.191 -16.863  1.00142.91    -0.171 OA
HETATM    2  C2  MIQ B 502     -11.129   3.231 -16.514  1.00141.17     0.195 A 
HETATM    3  C3  MIQ B 502      -9.827   3.643 -17.273  1.00141.71     0.035 A 
HETATM    4  C4  MIQ B 502      -9.150   3.128 -18.487  1.00142.86     0.046 A 
HETATM    5  C5  MIQ B 502      -7.949   3.726 -18.946  1.00139.53     0.031 A 
HETATM    6  C12 MIQ B 502      -7.380   4.853 -18.220  1.00139.38     0.030 A 
HETATM    7  C13 MIQ B 502      -8.030   5.347 -17.057  1.00141.18     0.019 A 
HETATM    8  C14 MIQ B 502      -9.292   4.717 -16.582  1.00138.77     0.033 A 
HETATM    9  C15 MIQ B 502     -10.266   4.974 -15.386  1.00142.10     0.195 A 
HETATM   10  N17 MIQ B 502     -11.226   4.070 -15.497  1.00139.42    -0.288 N 
HETATM   11  O16 MIQ B 502     -10.142   5.957 -14.403  1.00148.93    -0.171 OA
ENDROOT
BRANCH  10  12
HETATM   12  C18 MIQ B 502     -12.312   3.997 -14.537  1.00139.82     0.187 C 
HETATM   13  C19 MIQ B 502     -12.840   5.420 -14.319  1.00140.06     0.247 C 
HETATM   14  O25 MIQ B 502     -13.123   6.079 -15.256  1.00143.95    -0.271 OA
HETATM   15  N20 MIQ B 502     -13.006   5.979 -12.993  1.00140.02    -0.296 N 
HETATM   16  H13 MIQ B 502     -13.345   6.912 -12.864  1.00142.77     0.171 HD
HETATM   17  C21 MIQ B 502     -12.643   5.159 -11.866  1.00142.22     0.224 C 
HETATM   18  C22 MIQ B 502     -11.480   4.206 -12.063  1.00139.52     0.106 C 
HETATM   19  O24 MIQ B 502     -13.228   5.224 -10.841  1.00146.13    -0.273 OA
HETATM   20  C23 MIQ B 502     -11.838   3.328 -13.248  1.00139.15     0.045 C 
ENDBRANCH  10  12
BRANCH   5  21
HETATM   21  N6  MIQ B 502      -7.288   3.202 -20.127  1.00140.95    -0.377 N 
HETATM   22  C7  MIQ B 502      -7.985   3.269 -21.400  1.00142.12     0.149 C 
HETATM   23  C8  MIQ B 502      -7.526   2.176 -22.357  1.00144.10     0.187 C 
HETATM   24  O9  MIQ B 502      -6.136   2.077 -22.443  1.00148.65    -0.388 OA
HETATM   25  C10 MIQ B 502      -5.321   2.771 -21.545  1.00147.44     0.187 C 
HETATM   26  C11 MIQ B 502      -5.845   3.036 -20.137  1.00144.08     0.149 C 
ENDBRANCH   5  21
TORSDOF 2
ENDMDL
MODEL 7
REMARK VINA RESULT:      -6.3     16.602     21.756
REMARK  2 active torsions:
REMARK  status: ('A' for Active; 'I' for Inactive)
REMARK    1  A    between atoms: C5_5  and  N6_21 
REMARK    2  A    between atoms: C18_14  and  N17_19 
ROOT
HETATM    1  O1  MIQ B 502     -18.973   1.907   0.050  1.00142.91    -0.171 OA
HETATM    2  C2  MIQ B 502     -18.925   1.895   1.445  1.00141.17     0.195 A 
HETATM    3  C3  MIQ B 502     -19.850   1.065   2.393  1.00141.71     0.035 A 
HETATM    4  C4  MIQ B 502     -20.962   0.115   2.155  1.00142.86     0.046 A 
HETATM    5  C5  MIQ B 502     -21.627  -0.498   3.247  1.00139.53     0.031 A 
HETATM    6  C12 MIQ B 502     -21.212  -0.192   4.609  1.00139.38     0.030 A 
HETATM    7  C13 MIQ B 502     -20.145   0.718   4.837  1.00141.18     0.019 A 
HETATM    8  C14 MIQ B 502     -19.450   1.357   3.687  1.00138.77     0.033 A 
HETATM    9  C15 MIQ B 502     -18.270   2.372   3.542  1.00142.10     0.195 A 
HETATM   10  N17 MIQ B 502     -18.107   2.560   2.242  1.00139.42    -0.288 N 
HETATM   11  O16 MIQ B 502     -17.541   2.961   4.577  1.00148.93    -0.171 OA
ENDROOT
BRANCH  10  12
HETATM   12  C18 MIQ B 502     -17.096   3.465   1.729  1.00139.82     0.187 C 
HETATM   13  C19 MIQ B 502     -17.814   4.580   0.958  1.00140.06     0.247 C 
HETATM   14  O25 MIQ B 502     -18.701   5.159   1.477  1.00143.95    -0.271 OA
HETATM   15  N20 MIQ B 502     -17.430   4.947  -0.389  1.00140.02    -0.296 N 
HETATM   16  H13 MIQ B 502     -17.911   5.672  -0.884  1.00142.77     0.171 HD
HETATM   17  C21 MIQ B 502     -16.351   4.219  -1.005  1.00142.22     0.224 C 
HETATM   18  C22 MIQ B 502     -16.218   2.754  -0.634  1.00139.52     0.106 C 
HETATM   19  O24 MIQ B 502     -15.604   4.740  -1.758  1.00146.13    -0.273 OA
HETATM   20  C23 MIQ B 502     -16.082   2.703   0.877  1.00139.15     0.045 C 
ENDBRANCH  10  12
BRANCH   5  21
HETATM   21  N6  MIQ B 502     -22.725  -1.415   3.001  1.00140.95    -0.377 N 
HETATM   22  C7  MIQ B 502     -22.612  -2.351   1.896  1.00142.12     0.149 C 
HETATM   23  C8  MIQ B 502     -23.977  -2.761   1.356  1.00144.10     0.187 C 
HETATM   24  O9  MIQ B 502     -24.871  -3.130   2.364  1.00148.65    -0.388 OA
HETATM   25  C10 MIQ B 502     -24.559  -2.900   3.706  1.00147.44     0.187 C 
HETATM   26  C11 MIQ B 502     -23.681  -1.703   4.056  1.00144.08     0.149 C 
ENDBRANCH   5  21
TORSDOF 2
ENDMDL
MODEL 8
REMARK VINA RESULT:      -6.2     14.781     20.178
REMARK  2 active torsions:
REMARK  status: ('A' for Active; 'I' for Inactive)
REMARK    1  A    between atoms: C5_5  and  N6_21 
REMARK    2  A    between atoms: C18_14  and  N17_19 
ROOT
HETATM    1  O1  MIQ B 502     -18.374   2.320  -0.819  1.00142.91    -0.171 OA
HETATM    2  C2  MIQ B 502     -17.706   1.231  -0.255  1.00141.17     0.195 A 
HETATM    3  C3  MIQ B 502     -18.351   0.100   0.608  1.00141.71     0.035 A 
HETATM    4  C4  MIQ B 502     -19.735  -0.169   1.065  1.00142.86     0.046 A 
HETATM    5  C5  MIQ B 502     -20.019  -1.310   1.858  1.00139.53     0.031 A 
HETATM    6  C12 MIQ B 502     -18.944  -2.221   2.224  1.00139.38     0.030 A 
HETATM    7  C13 MIQ B 502     -17.617  -1.964   1.785  1.00141.18     0.019 A 
HETATM    8  C14 MIQ B 502     -17.326  -0.766   0.951  1.00138.77     0.033 A 
HETATM    9  C15 MIQ B 502     -16.037  -0.170   0.297  1.00142.10     0.195 A 
HETATM   10  N17 MIQ B 502     -16.421   0.928  -0.333  1.00139.42    -0.288 N 
HETATM   11  O16 MIQ B 502     -14.744  -0.693   0.368  1.00148.93    -0.171 OA
ENDROOT
BRANCH  10  12
HETATM   12  C18 MIQ B 502     -15.474   1.762  -1.050  1.00139.82     0.187 C 
HETATM   13  C19 MIQ B 502     -15.647   3.202  -0.552  1.00140.06     0.247 C 
HETATM   14  O25 MIQ B 502     -15.632   3.415   0.608  1.00143.95    -0.271 OA
HETATM   15  N20 MIQ B 502     -15.824   4.310  -1.467  1.00140.02    -0.296 N 
HETATM   16  H13 MIQ B 502     -15.943   5.245  -1.129  1.00142.77     0.171 HD
HETATM   17  C21 MIQ B 502     -15.850   4.023  -2.878  1.00142.22     0.224 C 
HETATM   18  C22 MIQ B 502     -16.454   2.695  -3.292  1.00139.52     0.106 C 
HETATM   19  O24 MIQ B 502     -15.415   4.783  -3.672  1.00146.13    -0.273 OA
HETATM   20  C23 MIQ B 502     -15.675   1.619  -2.558  1.00139.15     0.045 C 
ENDBRANCH  10  12
BRANCH   5  21
HETATM   21  N6  MIQ B 502     -21.376  -1.553   2.311  1.00140.95    -0.377 N 
HETATM   22  C7  MIQ B 502     -21.949  -0.657   3.301  1.00142.12     0.149 C 
HETATM   23  C8  MIQ B 502     -23.028  -1.342   4.131  1.00144.10     0.187 C 
HETATM   24  O9  MIQ B 502     -23.952  -2.039   3.351  1.00148.65    -0.388 OA
HETATM   25  C10 MIQ B 502     -23.719  -2.243   1.989  1.00147.44     0.187 C 
HETATM   26  C11 MIQ B 502     -22.277  -2.359   1.505  1.00144.08     0.149 C 
ENDBRANCH   5  21
TORSDOF 2
ENDMDL
MODEL 9
REMARK VINA RESULT:      -6.1      4.294      4.894
REMARK  2 active torsions:
REMARK  status: ('A' for Active; 'I' for Inactive)
REMARK    1  A    between atoms: C5_5  and  N6_21 
REMARK    2  A    between atoms: C18_14  and  N17_19 
ROOT
HETATM    1  O1  MIQ B 502     -11.446   3.555 -13.398  1.00142.91    -0.171 OA
HETATM    2  C2  MIQ B 502     -11.498   3.801 -14.772  1.00141.17     0.195 A 
HETATM    3  C3  MIQ B 502     -11.698   2.733 -15.894  1.00141.71     0.035 A 
HETATM    4  C4  MIQ B 502     -11.881   1.262 -15.879  1.00142.86     0.046 A 
HETATM    5  C5  MIQ B 502     -12.043   0.548 -17.093  1.00139.53     0.031 A 
HETATM    6  C12 MIQ B 502     -12.030   1.265 -18.361  1.00139.38     0.030 A 
HETATM    7  C13 MIQ B 502     -11.855   2.675 -18.375  1.00141.18     0.019 A 
HETATM    8  C14 MIQ B 502     -11.688   3.419 -17.097  1.00138.77     0.033 A 
HETATM    9  C15 MIQ B 502     -11.482   4.923 -16.720  1.00142.10     0.195 A 
HETATM   10  N17 MIQ B 502     -11.399   4.960 -15.400  1.00139.42    -0.288 N 
HETATM   11  O16 MIQ B 502     -11.400   6.002 -17.602  1.00148.93    -0.171 OA
ENDROOT
BRANCH  10  12
HETATM   12  C18 MIQ B 502     -11.188   6.208 -14.690  1.00139.82     0.187 C 
HETATM   13  C19 MIQ B 502      -9.961   6.031 -13.788  1.00140.06     0.247 C 
HETATM   14  O25 MIQ B 502      -8.960   5.614 -14.253  1.00143.95    -0.271 OA
HETATM   15  N20 MIQ B 502      -9.993   6.366 -12.379  1.00140.02    -0.296 N 
HETATM   16  H13 MIQ B 502      -9.187   6.240 -11.799  1.00142.77     0.171 HD
HETATM   17  C21 MIQ B 502     -11.230   6.863 -11.832  1.00142.22     0.224 C 
HETATM   18  C22 MIQ B 502     -12.509   6.312 -12.431  1.00139.52     0.106 C 
HETATM   19  O24 MIQ B 502     -11.244   7.664 -10.964  1.00146.13    -0.273 OA
HETATM   20  C23 MIQ B 502     -12.448   6.600 -13.920  1.00139.15     0.045 C 
ENDBRANCH  10  12
BRANCH   5  21
HETATM   21  N6  MIQ B 502     -12.207  -0.894 -17.065  1.00140.95    -0.377 N 
HETATM   22  C7  MIQ B 502     -11.622  -1.681 -18.137  1.00142.12     0.149 C 
HETATM   23  C8  MIQ B 502     -12.367  -2.992 -18.353  1.00144.10     0.187 C 
HETATM   24  O9  MIQ B 502     -12.602  -3.685 -17.163  1.00148.65    -0.388 OA
HETATM   25  C10 MIQ B 502     -12.364  -3.074 -15.929  1.00147.44     0.187 C 
HETATM   26  C11 MIQ B 502     -12.537  -1.563 -15.819  1.00144.08     0.149 C 
ENDBRANCH   5  21
TORSDOF 2
ENDMDL
