MODEL 1
REMARK VINA RESULT:      -7.2      0.000      0.000
REMARK  2 active torsions:
REMARK  status: ('A' for Active; 'I' for Inactive)
REMARK    1  A    between atoms: C5_5  and  N6_21 
REMARK    2  A    between atoms: C18_14  and  N17_19 
ROOT
HETATM    1  O1  MIQ B 502      -4.863  16.304  -6.045  1.00142.91    -0.171 OA
HETATM    2  C2  MIQ B 502      -4.761  15.044  -6.640  1.00141.17     0.195 A 
HETATM    3  C3  MIQ B 502      -5.927  14.234  -7.290  1.00141.71     0.035 A 
HETATM    4  C4  MIQ B 502      -7.373  14.501  -7.476  1.00142.86     0.046 A 
HETATM    5  C5  MIQ B 502      -8.200  13.548  -8.123  1.00139.53     0.031 A 
HETATM    6  C12 MIQ B 502      -7.625  12.301  -8.607  1.00139.38     0.030 A 
HETATM    7  C13 MIQ B 502      -6.239  12.045  -8.429  1.00141.18     0.019 A 
HETATM    8  C14 MIQ B 502      -5.375  13.050  -7.751  1.00138.77     0.033 A 
HETATM    9  C15 MIQ B 502      -3.856  13.126  -7.386  1.00142.10     0.195 A 
HETATM   10  N17 MIQ B 502      -3.684  14.290  -6.781  1.00139.42    -0.288 N 
HETATM   11  O16 MIQ B 502      -2.884  12.159  -7.646  1.00148.93    -0.171 OA
ENDROOT
BRANCH  10  12
HETATM   12  C18 MIQ B 502      -2.384  14.699  -6.282  1.00139.82     0.187 C 
HETATM   13  C19 MIQ B 502      -2.556  15.122  -4.818  1.00140.06     0.247 C 
HETATM   14  O25 MIQ B 502      -3.106  14.394  -4.070  1.00143.95    -0.271 OA
HETATM   15  N20 MIQ B 502      -2.058  16.389  -4.325  1.00140.02    -0.296 N 
HETATM   16  H13 MIQ B 502      -2.183  16.656  -3.368  1.00142.77     0.171 HD
HETATM   17  C21 MIQ B 502      -1.400  17.265  -5.260  1.00142.22     0.224 C 
HETATM   18  C22 MIQ B 502      -1.909  17.243  -6.688  1.00139.52     0.106 C 
HETATM   19  O24 MIQ B 502      -0.505  17.962  -4.929  1.00146.13    -0.273 OA
HETATM   20  C23 MIQ B 502      -1.801  15.805  -7.162  1.00139.15     0.045 C 
ENDBRANCH  10  12
BRANCH   5  21
HETATM   21  N6  MIQ B 502      -9.618  13.816  -8.286  1.00140.95    -0.377 N 
HETATM   22  C7  MIQ B 502     -10.047  14.622  -9.416  1.00142.12     0.149 C 
HETATM   23  C8  MIQ B 502     -11.358  15.344  -9.135  1.00144.10     0.187 C 
HETATM   24  O9  MIQ B 502     -12.335  14.505  -8.595  1.00148.65    -0.388 OA
HETATM   25  C10 MIQ B 502     -12.004  13.217  -8.165  1.00147.44     0.187 C 
HETATM   26  C11 MIQ B 502     -10.597  12.966  -7.633  1.00144.08     0.149 C 
ENDBRANCH   5  21
TORSDOF 2
ENDMDL
MODEL 2
REMARK VINA RESULT:      -6.9      3.412      8.247
REMARK  2 active torsions:
REMARK  status: ('A' for Active; 'I' for Inactive)
REMARK    1  A    between atoms: C5_5  and  N6_21 
REMARK    2  A    between atoms: C18_14  and  N17_19 
ROOT
HETATM    1  O1  MIQ B 502      -2.216  12.861  -8.485  1.00142.91    -0.171 OA
HETATM    2  C2  MIQ B 502      -3.180  13.609  -7.806  1.00141.17     0.195 A 
HETATM    3  C3  MIQ B 502      -2.921  14.902  -6.967  1.00141.71     0.035 A 
HETATM    4  C4  MIQ B 502      -1.702  15.683  -6.649  1.00142.86     0.046 A 
HETATM    5  C5  MIQ B 502      -1.786  16.845  -5.841  1.00139.53     0.031 A 
HETATM    6  C12 MIQ B 502      -3.077  17.272  -5.322  1.00139.38     0.030 A 
HETATM    7  C13 MIQ B 502      -4.246  16.524  -5.627  1.00141.18     0.019 A 
HETATM    8  C14 MIQ B 502      -4.152  15.306  -6.478  1.00138.77     0.033 A 
HETATM    9  C15 MIQ B 502      -5.182  14.259  -7.017  1.00142.10     0.195 A 
HETATM   10  N17 MIQ B 502      -4.482  13.394  -7.732  1.00139.42    -0.288 N 
HETATM   11  O16 MIQ B 502      -6.558  14.245  -6.784  1.00148.93    -0.171 OA
ENDROOT
BRANCH  10  12
HETATM   12  C18 MIQ B 502      -5.115  12.260  -8.380  1.00139.82     0.187 C 
HETATM   13  C19 MIQ B 502      -4.320  11.004  -8.005  1.00140.06     0.247 C 
HETATM   14  O25 MIQ B 502      -4.086  10.788  -6.869  1.00143.95    -0.271 OA
HETATM   15  N20 MIQ B 502      -3.851  10.069  -9.008  1.00140.02    -0.296 N 
HETATM   16  H13 MIQ B 502      -3.327   9.256  -8.751  1.00142.77     0.171 HD
HETATM   17  C21 MIQ B 502      -4.140  10.360 -10.389  1.00142.22     0.224 C 
HETATM   18  C22 MIQ B 502      -4.173  11.824 -10.784  1.00139.52     0.106 C 
HETATM   19  O24 MIQ B 502      -4.347   9.499 -11.171  1.00146.13    -0.273 OA
HETATM   20  C23 MIQ B 502      -5.201  12.490  -9.888  1.00139.15     0.045 C 
ENDBRANCH  10  12
BRANCH   5  21
HETATM   21  N6  MIQ B 502      -0.582  17.592  -5.525  1.00140.95    -0.377 N 
HETATM   22  C7  MIQ B 502       0.449  16.945  -4.733  1.00142.12     0.149 C 
HETATM   23  C8  MIQ B 502       1.287  17.953  -3.957  1.00144.10     0.187 C 
HETATM   24  O9  MIQ B 502       1.722  19.020  -4.746  1.00148.65    -0.388 OA
HETATM   25  C10 MIQ B 502       1.211  19.202  -6.034  1.00147.44     0.187 C 
HETATM   26  C11 MIQ B 502      -0.216  18.749  -6.324  1.00144.08     0.149 C 
ENDBRANCH   5  21
TORSDOF 2
ENDMDL
MODEL 3
REMARK VINA RESULT:      -6.9      3.408      5.885
REMARK  2 active torsions:
REMARK  status: ('A' for Active; 'I' for Inactive)
REMARK    1  A    between atoms: C5_5  and  N6_21 
REMARK    2  A    between atoms: C18_14  and  N17_19 
ROOT
HETATM    1  O1  MIQ B 502      -9.118  13.322  -7.013  1.00142.91    -0.171 OA
HETATM    2  C2  MIQ B 502      -9.373  13.894  -8.262  1.00141.17     0.195 A 
HETATM    3  C3  MIQ B 502     -10.755  14.408  -8.776  1.00141.71     0.035 A 
HETATM    4  C4  MIQ B 502     -12.110  14.459  -8.178  1.00142.86     0.046 A 
HETATM    5  C5  MIQ B 502     -13.197  14.999  -8.910  1.00139.53     0.031 A 
HETATM    6  C12 MIQ B 502     -12.979  15.507 -10.257  1.00139.38     0.030 A 
HETATM    7  C13 MIQ B 502     -11.680  15.459 -10.831  1.00141.18     0.019 A 
HETATM    8  C14 MIQ B 502     -10.542  14.893 -10.056  1.00138.77     0.033 A 
HETATM    9  C15 MIQ B 502      -9.019  14.680 -10.338  1.00142.10     0.195 A 
HETATM   10  N17 MIQ B 502      -8.521  14.122  -9.247  1.00139.42    -0.288 N 
HETATM   11  O16 MIQ B 502      -8.331  15.011 -11.506  1.00148.93    -0.171 OA
ENDROOT
BRANCH  10  12
HETATM   12  C18 MIQ B 502      -7.118  13.762  -9.153  1.00139.82     0.187 C 
HETATM   13  C19 MIQ B 502      -7.040  12.273  -8.796  1.00140.06     0.247 C 
HETATM   14  O25 MIQ B 502      -7.652  11.494  -9.436  1.00143.95    -0.271 OA
HETATM   15  N20 MIQ B 502      -6.229  11.793  -7.695  1.00140.02    -0.296 N 
HETATM   16  H13 MIQ B 502      -6.192  10.819  -7.468  1.00142.77     0.171 HD
HETATM   17  C21 MIQ B 502      -5.499  12.764  -6.922  1.00142.22     0.224 C 
HETATM   18  C22 MIQ B 502      -6.148  14.124  -6.748  1.00139.52     0.106 C 
HETATM   19  O24 MIQ B 502      -4.444  12.513  -6.452  1.00146.13    -0.273 OA
HETATM   20  C23 MIQ B 502      -6.405  14.661  -8.144  1.00139.15     0.045 C 
ENDBRANCH  10  12
BRANCH   5  21
HETATM   21  N6  MIQ B 502     -14.522  15.029  -8.318  1.00140.95    -0.377 N 
HETATM   22  C7  MIQ B 502     -15.050  13.808  -7.734  1.00142.12     0.149 C 
HETATM   23  C8  MIQ B 502     -16.573  13.782  -7.751  1.00144.10     0.187 C 
HETATM   24  O9  MIQ B 502     -17.142  14.965  -7.276  1.00148.65    -0.388 OA
HETATM   25  C10 MIQ B 502     -16.348  16.092  -7.051  1.00147.44     0.187 C 
HETATM   26  C11 MIQ B 502     -15.109  16.296  -7.917  1.00144.08     0.149 C 
ENDBRANCH   5  21
TORSDOF 2
ENDMDL
MODEL 4
REMARK VINA RESULT:      -6.8      3.807      9.466
REMARK  2 active torsions:
REMARK  status: ('A' for Active; 'I' for Inactive)
REMARK    1  A    between atoms: C5_5  and  N6_21 
REMARK    2  A    between atoms: C18_14  and  N17_19 
ROOT
HETATM    1  O1  MIQ B 502     -11.112  10.371  -9.745  1.00142.91    -0.171 OA
HETATM    2  C2  MIQ B 502     -10.896  11.600  -9.117  1.00141.17     0.195 A 
HETATM    3  C3  MIQ B 502      -9.518  12.170  -8.654  1.00141.71     0.035 A 
HETATM    4  C4  MIQ B 502      -8.129  11.656  -8.721  1.00142.86     0.046 A 
HETATM    5  C5  MIQ B 502      -7.055  12.424  -8.203  1.00139.53     0.031 A 
HETATM    6  C12 MIQ B 502      -7.320  13.724  -7.604  1.00139.38     0.030 A 
HETATM    7  C13 MIQ B 502      -8.651  14.217  -7.541  1.00141.18     0.019 A 
HETATM    8  C14 MIQ B 502      -9.774  13.408  -8.088  1.00138.77     0.033 A 
HETATM    9  C15 MIQ B 502     -11.321  13.608  -8.200  1.00142.10     0.195 A 
HETATM   10  N17 MIQ B 502     -11.787  12.522  -8.794  1.00139.42    -0.288 N 
HETATM   11  O16 MIQ B 502     -12.055  14.710  -7.760  1.00148.93    -0.171 OA
ENDROOT
BRANCH  10  12
HETATM   12  C18 MIQ B 502     -13.205  12.350  -9.053  1.00139.82     0.187 C 
HETATM   13  C19 MIQ B 502     -13.713  13.625  -9.736  1.00140.06     0.247 C 
HETATM   14  O25 MIQ B 502     -13.141  14.040 -10.680  1.00143.95    -0.271 OA
HETATM   15  N20 MIQ B 502     -14.883  14.333  -9.258  1.00140.02    -0.296 N 
HETATM   16  H13 MIQ B 502     -15.201  15.168  -9.709  1.00142.77     0.171 HD
HETATM   17  C21 MIQ B 502     -15.559  13.813  -8.098  1.00142.22     0.224 C 
HETATM   18  C22 MIQ B 502     -14.694  13.141  -7.049  1.00139.52     0.106 C 
HETATM   19  O24 MIQ B 502     -16.731  13.901  -7.974  1.00146.13    -0.273 OA
HETATM   20  C23 MIQ B 502     -13.946  12.026  -7.757  1.00139.15     0.045 C 
ENDBRANCH  10  12
BRANCH   5  21
HETATM   21  N6  MIQ B 502      -5.702  11.902  -8.262  1.00140.95    -0.377 N 
HETATM   22  C7  MIQ B 502      -5.137  11.582  -9.561  1.00142.12     0.149 C 
HETATM   23  C8  MIQ B 502      -4.066  10.503  -9.465  1.00144.10     0.187 C 
HETATM   24  O9  MIQ B 502      -3.135  10.750  -8.454  1.00148.65    -0.388 OA
HETATM   25  C10 MIQ B 502      -3.357  11.765  -7.520  1.00147.44     0.187 C 
HETATM   26  C11 MIQ B 502      -4.795  12.111  -7.147  1.00144.08     0.149 C 
ENDBRANCH   5  21
TORSDOF 2
ENDMDL
MODEL 5
REMARK VINA RESULT:      -6.8      2.182      2.831
REMARK  2 active torsions:
REMARK  status: ('A' for Active; 'I' for Inactive)
REMARK    1  A    between atoms: C5_5  and  N6_21 
REMARK    2  A    between atoms: C18_14  and  N17_19 
ROOT
HETATM    1  O1  MIQ B 502      -5.316  14.209  -6.495  1.00142.91    -0.171 OA
HETATM    2  C2  MIQ B 502      -5.470  14.673  -7.803  1.00141.17     0.195 A 
HETATM    3  C3  MIQ B 502      -6.699  14.419  -8.733  1.00141.71     0.035 A 
HETATM    4  C4  MIQ B 502      -7.975  13.684  -8.558  1.00142.86     0.046 A 
HETATM    5  C5  MIQ B 502      -8.921  13.630  -9.613  1.00139.53     0.031 A 
HETATM    6  C12 MIQ B 502      -8.637  14.301 -10.873  1.00139.38     0.030 A 
HETATM    7  C13 MIQ B 502      -7.415  15.006 -11.041  1.00141.18     0.019 A 
HETATM    8  C14 MIQ B 502      -6.427  15.062  -9.930  1.00138.77     0.033 A 
HETATM    9  C15 MIQ B 502      -5.021  15.719  -9.741  1.00142.10     0.195 A 
HETATM   10  N17 MIQ B 502      -4.635  15.411  -8.514  1.00139.42    -0.288 N 
HETATM   11  O16 MIQ B 502      -4.318  16.475 -10.682  1.00148.93    -0.171 OA
ENDROOT
BRANCH  10  12
HETATM   12  C18 MIQ B 502      -3.353  15.846  -7.991  1.00139.82     0.187 C 
HETATM   13  C19 MIQ B 502      -2.591  14.600  -7.524  1.00140.06     0.247 C 
HETATM   14  O25 MIQ B 502      -2.480  13.684  -8.259  1.00143.95    -0.271 OA
HETATM   15  N20 MIQ B 502      -1.999  14.517  -6.204  1.00140.02    -0.296 N 
HETATM   16  H13 MIQ B 502      -1.510  13.695  -5.909  1.00142.77     0.171 HD
HETATM   17  C21 MIQ B 502      -2.158  15.644  -5.322  1.00142.22     0.224 C 
HETATM   18  C22 MIQ B 502      -3.453  16.424  -5.439  1.00139.52     0.106 C 
HETATM   19  O24 MIQ B 502      -1.317  15.947  -4.549  1.00146.13    -0.273 OA
HETATM   20  C23 MIQ B 502      -3.553  16.879  -6.884  1.00139.15     0.045 C 
ENDBRANCH  10  12
BRANCH   5  21
HETATM   21  N6  MIQ B 502     -10.159  12.895  -9.433  1.00140.95    -0.377 N 
HETATM   22  C7  MIQ B 502     -10.161  11.464  -9.686  1.00142.12     0.149 C 
HETATM   23  C8  MIQ B 502     -11.540  10.960 -10.090  1.00144.10     0.187 C 
HETATM   24  O9  MIQ B 502     -12.555  11.417  -9.247  1.00148.65    -0.388 OA
HETATM   25  C10 MIQ B 502     -12.294  12.413  -8.302  1.00147.44     0.187 C 
HETATM   26  C11 MIQ B 502     -11.222  13.452  -8.614  1.00144.08     0.149 C 
ENDBRANCH   5  21
TORSDOF 2
ENDMDL
MODEL 6
REMARK VINA RESULT:      -6.8      2.403      4.125
REMARK  2 active torsions:
REMARK  status: ('A' for Active; 'I' for Inactive)
REMARK    1  A    between atoms: C5_5  and  N6_21 
REMARK    2  A    between atoms: C18_14  and  N17_19 
ROOT
HETATM    1  O1  MIQ B 502      -7.303  13.573  -6.632  1.00142.91    -0.171 OA
HETATM    2  C2  MIQ B 502      -7.672  13.917  -7.935  1.00141.17     0.195 A 
HETATM    3  C3  MIQ B 502      -9.129  13.984  -8.493  1.00141.71     0.035 A 
HETATM    4  C4  MIQ B 502     -10.462  13.738  -7.894  1.00142.86     0.046 A 
HETATM    5  C5  MIQ B 502     -11.637  13.886  -8.674  1.00139.53     0.031 A 
HETATM    6  C12 MIQ B 502     -11.532  14.283 -10.070  1.00139.38     0.030 A 
HETATM    7  C13 MIQ B 502     -10.254  14.521 -10.645  1.00141.18     0.019 A 
HETATM    8  C14 MIQ B 502      -9.024  14.366  -9.820  1.00138.77     0.033 A 
HETATM    9  C15 MIQ B 502      -7.493  14.537 -10.088  1.00142.10     0.195 A 
HETATM   10  N17 MIQ B 502      -6.889  14.254  -8.945  1.00139.42    -0.288 N 
HETATM   11  O16 MIQ B 502      -6.891  14.909 -11.291  1.00148.93    -0.171 OA
ENDROOT
BRANCH  10  12
HETATM   12  C18 MIQ B 502      -5.444  14.293  -8.823  1.00139.82     0.187 C 
HETATM   13  C19 MIQ B 502      -4.998  13.003  -8.123  1.00140.06     0.247 C 
HETATM   14  O25 MIQ B 502      -5.377  11.965  -8.535  1.00143.95    -0.271 OA
HETATM   15  N20 MIQ B 502      -4.119  13.023  -6.972  1.00140.02    -0.296 N 
HETATM   16  H13 MIQ B 502      -3.841  12.174  -6.521  1.00142.77     0.171 HD
HETATM   17  C21 MIQ B 502      -3.678  14.303  -6.482  1.00142.22     0.224 C 
HETATM   18  C22 MIQ B 502      -4.655  15.456  -6.612  1.00139.52     0.106 C 
HETATM   19  O24 MIQ B 502      -2.606  14.447  -6.007  1.00146.13    -0.273 OA
HETATM   20  C23 MIQ B 502      -5.007  15.558  -8.085  1.00139.15     0.045 C 
ENDBRANCH  10  12
BRANCH   5  21
HETATM   21  N6  MIQ B 502     -12.935  13.627  -8.078  1.00140.95    -0.377 N 
HETATM   22  C7  MIQ B 502     -13.993  14.604  -8.266  1.00142.12     0.149 C 
HETATM   23  C8  MIQ B 502     -15.012  14.565  -7.134  1.00144.10     0.187 C 
HETATM   24  O9  MIQ B 502     -15.441  13.270  -6.835  1.00148.65    -0.388 OA
HETATM   25  C10 MIQ B 502     -14.792  12.163  -7.388  1.00147.44     0.187 C 
HETATM   26  C11 MIQ B 502     -13.304  12.273  -7.703  1.00144.08     0.149 C 
ENDBRANCH   5  21
TORSDOF 2
ENDMDL
MODEL 7
REMARK VINA RESULT:      -6.7      2.266      8.731
REMARK  2 active torsions:
REMARK  status: ('A' for Active; 'I' for Inactive)
REMARK    1  A    between atoms: C5_5  and  N6_21 
REMARK    2  A    between atoms: C18_14  and  N17_19 
ROOT
HETATM    1  O1  MIQ B 502     -10.599  13.661  -7.232  1.00142.91    -0.171 OA
HETATM    2  C2  MIQ B 502     -10.096  13.879  -8.517  1.00141.17     0.195 A 
HETATM    3  C3  MIQ B 502      -8.598  14.112  -8.893  1.00141.71     0.035 A 
HETATM    4  C4  MIQ B 502      -7.346  14.169  -8.102  1.00142.86     0.046 A 
HETATM    5  C5  MIQ B 502      -6.103  14.401  -8.743  1.00139.53     0.031 A 
HETATM    6  C12 MIQ B 502      -6.058  14.583 -10.187  1.00139.38     0.030 A 
HETATM    7  C13 MIQ B 502      -7.258  14.527 -10.946  1.00141.18     0.019 A 
HETATM    8  C14 MIQ B 502      -8.559  14.281 -10.267  1.00138.77     0.033 A 
HETATM    9  C15 MIQ B 502     -10.042  14.152 -10.747  1.00142.10     0.195 A 
HETATM   10  N17 MIQ B 502     -10.760  13.930  -9.659  1.00139.42    -0.288 N 
HETATM   11  O16 MIQ B 502     -10.508  14.255 -12.059  1.00148.93    -0.171 OA
ENDROOT
BRANCH  10  12
HETATM   12  C18 MIQ B 502     -12.201  13.772  -9.721  1.00139.82     0.187 C 
HETATM   13  C19 MIQ B 502     -12.827  14.822  -8.796  1.00140.06     0.247 C 
HETATM   14  O25 MIQ B 502     -12.503  15.951  -8.903  1.00143.95    -0.271 OA
HETATM   15  N20 MIQ B 502     -13.813  14.467  -7.794  1.00140.02    -0.296 N 
HETATM   16  H13 MIQ B 502     -14.209  15.161  -7.192  1.00142.77     0.171 HD
HETATM   17  C21 MIQ B 502     -14.184  13.081  -7.675  1.00142.22     0.224 C 
HETATM   18  C22 MIQ B 502     -13.101  12.058  -7.957  1.00139.52     0.106 C 
HETATM   19  O24 MIQ B 502     -15.282  12.759  -7.378  1.00146.13    -0.273 OA
HETATM   20  C23 MIQ B 502     -12.595  12.340  -9.360  1.00139.15     0.045 C 
ENDBRANCH  10  12
BRANCH   5  21
HETATM   21  N6  MIQ B 502      -4.886  14.469  -7.955  1.00140.95    -0.377 N 
HETATM   22  C7  MIQ B 502      -3.802  15.315  -8.422  1.00142.12     0.149 C 
HETATM   23  C8  MIQ B 502      -2.446  14.828  -7.927  1.00144.10     0.187 C 
HETATM   24  O9  MIQ B 502      -2.436  14.546  -6.559  1.00148.65    -0.388 OA
HETATM   25  C10 MIQ B 502      -3.631  14.510  -5.836  1.00147.44     0.187 C 
HETATM   26  C11 MIQ B 502      -4.907  14.083  -6.554  1.00144.08     0.149 C 
ENDBRANCH   5  21
TORSDOF 2
ENDMDL
MODEL 8
REMARK VINA RESULT:      -6.7      4.430     10.821
REMARK  2 active torsions:
REMARK  status: ('A' for Active; 'I' for Inactive)
REMARK    1  A    between atoms: C5_5  and  N6_21 
REMARK    2  A    between atoms: C18_14  and  N17_19 
ROOT
HETATM    1  O1  MIQ B 502      -1.131  15.848  -4.244  1.00142.91    -0.171 OA
HETATM    2  C2  MIQ B 502      -0.368  16.743  -4.997  1.00141.17     0.195 A 
HETATM    3  C3  MIQ B 502       1.049  17.286  -4.626  1.00141.71     0.035 A 
HETATM    4  C4  MIQ B 502       1.960  17.057  -3.480  1.00142.86     0.046 A 
HETATM    5  C5  MIQ B 502       3.217  17.710  -3.422  1.00139.53     0.031 A 
HETATM    6  C12 MIQ B 502       3.614  18.609  -4.496  1.00139.38     0.030 A 
HETATM    7  C13 MIQ B 502       2.741  18.828  -5.595  1.00141.18     0.019 A 
HETATM    8  C14 MIQ B 502       1.424  18.139  -5.652  1.00138.77     0.033 A 
HETATM    9  C15 MIQ B 502       0.233  18.124  -6.665  1.00142.10     0.195 A 
HETATM   10  N17 MIQ B 502      -0.670  17.303  -6.155  1.00139.42    -0.288 N 
HETATM   11  O16 MIQ B 502       0.146  18.837  -7.862  1.00148.93    -0.171 OA
ENDROOT
BRANCH  10  12
HETATM   12  C18 MIQ B 502      -1.932  17.054  -6.827  1.00139.82     0.187 C 
HETATM   13  C19 MIQ B 502      -3.058  17.303  -5.816  1.00140.06     0.247 C 
HETATM   14  O25 MIQ B 502      -3.074  18.315  -5.210  1.00143.95    -0.271 OA
HETATM   15  N20 MIQ B 502      -4.108  16.332  -5.587  1.00140.02    -0.296 N 
HETATM   16  H13 MIQ B 502      -4.833  16.504  -4.920  1.00142.77     0.171 HD
HETATM   17  C21 MIQ B 502      -4.060  15.100  -6.332  1.00142.22     0.224 C 
HETATM   18  C22 MIQ B 502      -2.684  14.552  -6.655  1.00139.52     0.106 C 
HETATM   19  O24 MIQ B 502      -5.047  14.548  -6.677  1.00146.13    -0.273 OA
HETATM   20  C23 MIQ B 502      -1.952  15.644  -7.414  1.00139.15     0.045 C 
ENDBRANCH  10  12
BRANCH   5  21
HETATM   21  N6  MIQ B 502       4.094  17.487  -2.286  1.00140.95    -0.377 N 
HETATM   22  C7  MIQ B 502       3.581  16.745  -1.148  1.00142.12     0.149 C 
HETATM   23  C8  MIQ B 502       4.290  17.124   0.145  1.00144.10     0.187 C 
HETATM   24  O9  MIQ B 502       5.681  17.136   0.018  1.00148.65    -0.388 OA
HETATM   25  C10 MIQ B 502       6.278  17.035  -1.241  1.00147.44     0.187 C 
HETATM   26  C11 MIQ B 502       5.533  17.596  -2.448  1.00144.08     0.149 C 
ENDBRANCH   5  21
TORSDOF 2
ENDMDL
MODEL 9
REMARK VINA RESULT:      -6.7      2.193      3.081
REMARK  2 active torsions:
REMARK  status: ('A' for Active; 'I' for Inactive)
REMARK    1  A    between atoms: C5_5  and  N6_21 
REMARK    2  A    between atoms: C18_14  and  N17_19 
ROOT
HETATM    1  O1  MIQ B 502      -6.401  15.305 -11.093  1.00142.91    -0.171 OA
HETATM    2  C2  MIQ B 502      -6.385  14.785  -9.797  1.00141.17     0.195 A 
HETATM    3  C3  MIQ B 502      -7.622  14.275  -8.992  1.00141.71     0.035 A 
HETATM    4  C4  MIQ B 502      -9.069  14.179  -9.300  1.00142.86     0.046 A 
HETATM    5  C5  MIQ B 502      -9.973  13.656  -8.341  1.00139.53     0.031 A 
HETATM    6  C12 MIQ B 502      -9.476  13.210  -7.047  1.00139.38     0.030 A 
HETATM    7  C13 MIQ B 502      -8.088  13.300  -6.753  1.00141.18     0.019 A 
HETATM    8  C14 MIQ B 502      -7.144  13.848  -7.764  1.00138.77     0.033 A 
HETATM    9  C15 MIQ B 502      -5.601  14.094  -7.807  1.00142.10     0.195 A 
HETATM   10  N17 MIQ B 502      -5.346  14.611  -8.998  1.00139.42    -0.288 N 
HETATM   11  O16 MIQ B 502      -4.683  13.823  -6.791  1.00148.93    -0.171 OA
ENDROOT
BRANCH  10  12
HETATM   12  C18 MIQ B 502      -4.000  14.986  -9.389  1.00139.82     0.187 C 
HETATM   13  C19 MIQ B 502      -3.084  13.785  -9.120  1.00140.06     0.247 C 
HETATM   14  O25 MIQ B 502      -3.386  12.725  -9.541  1.00143.95    -0.271 OA
HETATM   15  N20 MIQ B 502      -1.853  13.917  -8.369  1.00140.02    -0.296 N 
HETATM   16  H13 MIQ B 502      -1.267  13.124  -8.195  1.00142.77     0.171 HD
HETATM   17  C21 MIQ B 502      -1.511  15.219  -7.857  1.00142.22     0.224 C 
HETATM   18  C22 MIQ B 502      -2.664  16.111  -7.438  1.00139.52     0.106 C 
HETATM   19  O24 MIQ B 502      -0.387  15.575  -7.775  1.00146.13    -0.273 OA
HETATM   20  C23 MIQ B 502      -3.564  16.251  -8.652  1.00139.15     0.045 C 
ENDBRANCH  10  12
BRANCH   5  21
HETATM   21  N6  MIQ B 502     -11.389  13.582  -8.650  1.00140.95    -0.377 N 
HETATM   22  C7  MIQ B 502     -11.850  14.102  -9.926  1.00142.12     0.149 C 
HETATM   23  C8  MIQ B 502     -13.303  14.554  -9.865  1.00144.10     0.187 C 
HETATM   24  O9  MIQ B 502     -14.141  13.609  -9.268  1.00148.65    -0.388 OA
HETATM   25  C10 MIQ B 502     -13.602  12.501  -8.610  1.00147.44     0.187 C 
HETATM   26  C11 MIQ B 502     -12.239  12.642  -7.941  1.00144.08     0.149 C 
ENDBRANCH   5  21
TORSDOF 2
ENDMDL
