MODEL 1
REMARK VINA RESULT:      -6.7      0.000      0.000
REMARK  2 active torsions:
REMARK  status: ('A' for Active; 'I' for Inactive)
REMARK    1  A    between atoms: C5_5  and  N6_21 
REMARK    2  A    between atoms: C18_14  and  N17_19 
ROOT
HETATM    1  O1  MIQ B 502     -13.435  -6.079 -16.364  1.00142.91    -0.171 OA
HETATM    2  C2  MIQ B 502     -12.559  -5.334 -15.570  1.00141.17     0.195 A 
HETATM    3  C3  MIQ B 502     -11.390  -4.434 -16.083  1.00141.71     0.035 A 
HETATM    4  C4  MIQ B 502     -10.875  -4.102 -17.433  1.00142.86     0.046 A 
HETATM    5  C5  MIQ B 502      -9.768  -3.229 -17.583  1.00139.53     0.031 A 
HETATM    6  C12 MIQ B 502      -9.135  -2.656 -16.404  1.00139.38     0.030 A 
HETATM    7  C13 MIQ B 502      -9.628  -2.973 -15.110  1.00141.18     0.019 A 
HETATM    8  C14 MIQ B 502     -10.792  -3.888 -14.958  1.00138.77     0.033 A 
HETATM    9  C15 MIQ B 502     -11.596  -4.452 -13.741  1.00142.10     0.195 A 
HETATM   10  N17 MIQ B 502     -12.536  -5.229 -14.253  1.00139.42    -0.288 N 
HETATM   11  O16 MIQ B 502     -11.362  -4.187 -12.391  1.00148.93    -0.171 OA
ENDROOT
BRANCH  10  12
HETATM   12  C18 MIQ B 502     -13.473  -5.942 -13.405  1.00139.82     0.187 C 
HETATM   13  C19 MIQ B 502     -14.245  -4.902 -12.583  1.00140.06     0.247 C 
HETATM   14  O25 MIQ B 502     -14.755  -3.993 -13.137  1.00143.95    -0.271 OA
HETATM   15  N20 MIQ B 502     -14.371  -5.007 -11.144  1.00140.02    -0.296 N 
HETATM   16  H13 MIQ B 502     -14.872  -4.317 -10.618  1.00142.77     0.171 HD
HETATM   17  C21 MIQ B 502     -13.731  -6.119 -10.490  1.00142.22     0.224 C 
HETATM   18  C22 MIQ B 502     -12.432  -6.611 -11.098  1.00139.52     0.106 C 
HETATM   19  O24 MIQ B 502     -14.201  -6.625  -9.531  1.00146.13    -0.273 OA
HETATM   20  C23 MIQ B 502     -12.738  -6.965 -12.541  1.00139.15     0.045 C 
ENDBRANCH  10  12
BRANCH   5  21
HETATM   21  N6  MIQ B 502      -9.265  -2.925 -18.910  1.00140.95    -0.377 N 
HETATM   22  C7  MIQ B 502      -8.550  -1.677 -19.113  1.00142.12     0.149 C 
HETATM   23  C8  MIQ B 502      -8.653  -1.189 -20.552  1.00144.10     0.187 C 
HETATM   24  O9  MIQ B 502      -8.383  -2.190 -21.486  1.00148.65    -0.388 OA
HETATM   25  C10 MIQ B 502      -8.270  -3.523 -21.083  1.00147.44     0.187 C 
HETATM   26  C11 MIQ B 502      -9.081  -3.992 -19.879  1.00144.08     0.149 C 
ENDBRANCH   5  21
TORSDOF 2
ENDMDL
MODEL 2
REMARK VINA RESULT:      -6.6      1.457      2.116
REMARK  2 active torsions:
REMARK  status: ('A' for Active; 'I' for Inactive)
REMARK    1  A    between atoms: C5_5  and  N6_21 
REMARK    2  A    between atoms: C18_14  and  N17_19 
ROOT
HETATM    1  O1  MIQ B 502     -13.132  -5.717 -15.427  1.00142.91    -0.171 OA
HETATM    2  C2  MIQ B 502     -12.251  -4.768 -14.904  1.00141.17     0.195 A 
HETATM    3  C3  MIQ B 502     -11.135  -4.012 -15.693  1.00141.71     0.035 A 
HETATM    4  C4  MIQ B 502     -10.690  -4.039 -17.107  1.00142.86     0.046 A 
HETATM    5  C5  MIQ B 502      -9.621  -3.214 -17.538  1.00139.53     0.031 A 
HETATM    6  C12 MIQ B 502      -8.959  -2.333 -16.586  1.00139.38     0.030 A 
HETATM    7  C13 MIQ B 502      -9.386  -2.306 -15.231  1.00141.18     0.019 A 
HETATM    8  C14 MIQ B 502     -10.511  -3.173 -14.785  1.00138.77     0.033 A 
HETATM    9  C15 MIQ B 502     -11.243  -3.410 -13.423  1.00142.10     0.195 A 
HETATM   10  N17 MIQ B 502     -12.176  -4.317 -13.664  1.00139.42    -0.288 N 
HETATM   11  O16 MIQ B 502     -10.962  -2.791 -12.205  1.00148.93    -0.171 OA
ENDROOT
BRANCH  10  12
HETATM   12  C18 MIQ B 502     -13.052  -4.799 -12.612  1.00139.82     0.187 C 
HETATM   13  C19 MIQ B 502     -12.902  -6.323 -12.541  1.00140.06     0.247 C 
HETATM   14  O25 MIQ B 502     -11.822  -6.793 -12.465  1.00143.95    -0.271 OA
HETATM   15  N20 MIQ B 502     -14.050  -7.206 -12.559  1.00140.02    -0.296 N 
HETATM   16  H13 MIQ B 502     -13.939  -8.199 -12.518  1.00142.77     0.171 HD
HETATM   17  C21 MIQ B 502     -15.357  -6.609 -12.663  1.00142.22     0.224 C 
HETATM   18  C22 MIQ B 502     -15.462  -5.337 -13.482  1.00139.52     0.106 C 
HETATM   19  O24 MIQ B 502     -16.299  -7.086 -12.131  1.00146.13    -0.273 OA
HETATM   20  C23 MIQ B 502     -14.489  -4.347 -12.868  1.00139.15     0.045 C 
ENDBRANCH  10  12
BRANCH   5  21
HETATM   21  N6  MIQ B 502      -9.185  -3.262 -18.921  1.00140.95    -0.377 N 
HETATM   22  C7  MIQ B 502      -9.810  -4.224 -19.813  1.00142.12     0.149 C 
HETATM   23  C8  MIQ B 502      -8.887  -4.620 -20.959  1.00144.10     0.187 C 
HETATM   24  O9  MIQ B 502      -8.297  -3.520 -21.586  1.00148.65    -0.388 OA
HETATM   25  C10 MIQ B 502      -8.400  -2.246 -21.023  1.00147.44     0.187 C 
HETATM   26  C11 MIQ B 502      -8.498  -2.124 -19.506  1.00144.08     0.149 C 
ENDBRANCH   5  21
TORSDOF 2
ENDMDL
MODEL 3
REMARK VINA RESULT:      -6.3     13.572     17.377
REMARK  2 active torsions:
REMARK  status: ('A' for Active; 'I' for Inactive)
REMARK    1  A    between atoms: C5_5  and  N6_21 
REMARK    2  A    between atoms: C18_14  and  N17_19 
ROOT
HETATM    1  O1  MIQ B 502     -10.792 -15.084  -4.098  1.00142.91    -0.171 OA
HETATM    2  C2  MIQ B 502     -12.046 -14.576  -4.444  1.00141.17     0.195 A 
HETATM    3  C3  MIQ B 502     -13.114 -14.005  -3.458  1.00141.71     0.035 A 
HETATM    4  C4  MIQ B 502     -13.151 -13.826  -1.987  1.00142.86     0.046 A 
HETATM    5  C5  MIQ B 502     -14.291 -13.261  -1.362  1.00139.53     0.031 A 
HETATM    6  C12 MIQ B 502     -15.431 -12.854  -2.170  1.00139.38     0.030 A 
HETATM    7  C13 MIQ B 502     -15.396 -13.025  -3.581  1.00141.18     0.019 A 
HETATM    8  C14 MIQ B 502     -14.195 -13.616  -4.232  1.00138.77     0.033 A 
HETATM    9  C15 MIQ B 502     -13.796 -13.947  -5.707  1.00142.10     0.195 A 
HETATM   10  N17 MIQ B 502     -12.581 -14.468  -5.648  1.00139.42    -0.288 N 
HETATM   11  O16 MIQ B 502     -14.570 -13.737  -6.850  1.00148.93    -0.171 OA
ENDROOT
BRANCH  10  12
HETATM   12  C18 MIQ B 502     -11.890 -14.914  -6.843  1.00139.82     0.187 C 
HETATM   13  C19 MIQ B 502     -11.484 -16.377  -6.631  1.00140.06     0.247 C 
HETATM   14  O25 MIQ B 502     -12.298 -17.155  -6.277  1.00143.95    -0.271 OA
HETATM   15  N20 MIQ B 502     -10.129 -16.835  -6.858  1.00140.02    -0.296 N 
HETATM   16  H13 MIQ B 502      -9.875 -17.792  -6.709  1.00142.77     0.171 HD
HETATM   17  C21 MIQ B 502      -9.151 -15.865  -7.279  1.00142.22     0.224 C 
HETATM   18  C22 MIQ B 502      -9.313 -14.456  -6.742  1.00139.52     0.106 C 
HETATM   19  O24 MIQ B 502      -8.270 -16.154  -8.012  1.00146.13    -0.273 OA
HETATM   20  C23 MIQ B 502     -10.704 -13.999  -7.144  1.00139.15     0.045 C 
ENDBRANCH  10  12
BRANCH   5  21
HETATM   21  N6  MIQ B 502     -14.319 -13.106   0.081  1.00140.95    -0.377 N 
HETATM   22  C7  MIQ B 502     -14.574 -14.278   0.901  1.00142.12     0.149 C 
HETATM   23  C8  MIQ B 502     -15.200 -13.909   2.240  1.00144.10     0.187 C 
HETATM   24  O9  MIQ B 502     -14.534 -12.865   2.883  1.00148.65    -0.388 OA
HETATM   25  C10 MIQ B 502     -13.556 -12.128   2.209  1.00147.44     0.187 C 
HETATM   26  C11 MIQ B 502     -13.684 -11.955   0.699  1.00144.08     0.149 C 
ENDBRANCH   5  21
TORSDOF 2
ENDMDL
MODEL 4
REMARK VINA RESULT:      -6.2     13.647     16.360
REMARK  2 active torsions:
REMARK  status: ('A' for Active; 'I' for Inactive)
REMARK    1  A    between atoms: C5_5  and  N6_21 
REMARK    2  A    between atoms: C18_14  and  N17_19 
ROOT
HETATM    1  O1  MIQ B 502     -12.238 -14.261  -0.544  1.00142.91    -0.171 OA
HETATM    2  C2  MIQ B 502     -13.245 -13.860  -1.425  1.00141.17     0.195 A 
HETATM    3  C3  MIQ B 502     -13.168 -13.882  -2.985  1.00141.71     0.035 A 
HETATM    4  C4  MIQ B 502     -12.119 -14.294  -3.948  1.00142.86     0.046 A 
HETATM    5  C5  MIQ B 502     -12.350 -14.196  -5.343  1.00139.53     0.031 A 
HETATM    6  C12 MIQ B 502     -13.625 -13.690  -5.832  1.00139.38     0.030 A 
HETATM    7  C13 MIQ B 502     -14.631 -13.296  -4.909  1.00141.18     0.019 A 
HETATM    8  C14 MIQ B 502     -14.384 -13.403  -3.445  1.00138.77     0.033 A 
HETATM    9  C15 MIQ B 502     -15.220 -13.082  -2.163  1.00142.10     0.195 A 
HETATM   10  N17 MIQ B 502     -14.447 -13.393  -1.135  1.00139.42    -0.288 N 
HETATM   11  O16 MIQ B 502     -16.518 -12.569  -2.118  1.00148.93    -0.171 OA
ENDROOT
BRANCH  10  12
HETATM   12  C18 MIQ B 502     -14.895 -13.209   0.232  1.00139.82     0.187 C 
HETATM   13  C19 MIQ B 502     -13.820 -12.405   0.972  1.00140.06     0.247 C 
HETATM   14  O25 MIQ B 502     -13.425 -11.399   0.499  1.00143.95    -0.271 OA
HETATM   15  N20 MIQ B 502     -13.277 -12.842   2.242  1.00140.02    -0.296 N 
HETATM   16  H13 MIQ B 502     -12.570 -12.312   2.712  1.00142.77     0.171 HD
HETATM   17  C21 MIQ B 502     -13.767 -14.079   2.795  1.00142.22     0.224 C 
HETATM   18  C22 MIQ B 502     -14.147 -15.164   1.806  1.00139.52     0.106 C 
HETATM   19  O24 MIQ B 502     -13.873 -14.235   3.961  1.00146.13    -0.273 OA
HETATM   20  C23 MIQ B 502     -15.190 -14.560   0.882  1.00139.15     0.045 C 
ENDBRANCH  10  12
BRANCH   5  21
HETATM   21  N6  MIQ B 502     -11.308 -14.589  -6.275  1.00140.95    -0.377 N 
HETATM   22  C7  MIQ B 502     -11.537 -14.392  -7.696  1.00142.12     0.149 C 
HETATM   23  C8  MIQ B 502     -10.738 -15.374  -8.543  1.00144.10     0.187 C 
HETATM   24  O9  MIQ B 502      -9.398 -15.457  -8.160  1.00148.65    -0.388 OA
HETATM   25  C10 MIQ B 502      -8.962 -14.858  -6.975  1.00147.44     0.187 C 
HETATM   26  C11 MIQ B 502      -9.941 -14.746  -5.811  1.00144.08     0.149 C 
ENDBRANCH   5  21
TORSDOF 2
ENDMDL
MODEL 5
REMARK VINA RESULT:      -6.2     14.151     19.438
REMARK  2 active torsions:
REMARK  status: ('A' for Active; 'I' for Inactive)
REMARK    1  A    between atoms: C5_5  and  N6_21 
REMARK    2  A    between atoms: C18_14  and  N17_19 
ROOT
HETATM    1  O1  MIQ B 502     -14.849 -12.649  -2.239  1.00142.91    -0.171 OA
HETATM    2  C2  MIQ B 502     -14.157 -13.670  -1.584  1.00141.17     0.195 A 
HETATM    3  C3  MIQ B 502     -13.979 -13.820  -0.040  1.00141.71     0.035 A 
HETATM    4  C4  MIQ B 502     -14.438 -13.021   1.121  1.00142.86     0.046 A 
HETATM    5  C5  MIQ B 502     -14.112 -13.422   2.441  1.00139.53     0.031 A 
HETATM    6  C12 MIQ B 502     -13.322 -14.626   2.656  1.00139.38     0.030 A 
HETATM    7  C13 MIQ B 502     -12.883 -15.393   1.544  1.00141.18     0.019 A 
HETATM    8  C14 MIQ B 502     -13.231 -14.968   0.160  1.00138.77     0.033 A 
HETATM    9  C15 MIQ B 502     -12.942 -15.534  -1.269  1.00142.10     0.195 A 
HETATM   10  N17 MIQ B 502     -13.525 -14.702  -2.116  1.00139.42    -0.288 N 
HETATM   11  O16 MIQ B 502     -12.214 -16.684  -1.581  1.00148.93    -0.171 OA
ENDROOT
BRANCH  10  12
HETATM   12  C18 MIQ B 502     -13.451 -14.907  -3.550  1.00139.82     0.187 C 
HETATM   13  C19 MIQ B 502     -12.812 -13.657  -4.169  1.00140.06     0.247 C 
HETATM   14  O25 MIQ B 502     -11.795 -13.252  -3.729  1.00143.95    -0.271 OA
HETATM   15  N20 MIQ B 502     -13.420 -12.961  -5.284  1.00140.02    -0.296 N 
HETATM   16  H13 MIQ B 502     -12.996 -12.142  -5.675  1.00142.77     0.171 HD
HETATM   17  C21 MIQ B 502     -14.667 -13.468  -5.797  1.00142.22     0.224 C 
HETATM   18  C22 MIQ B 502     -15.611 -14.099  -4.792  1.00139.52     0.106 C 
HETATM   19  O24 MIQ B 502     -14.936 -13.399  -6.946  1.00146.13    -0.273 OA
HETATM   20  C23 MIQ B 502     -14.836 -15.216  -4.115  1.00139.15     0.045 C 
ENDBRANCH  10  12
BRANCH   5  21
HETATM   21  N6  MIQ B 502     -14.555 -12.622   3.568  1.00140.95    -0.377 N 
HETATM   22  C7  MIQ B 502     -15.303 -13.272   4.630  1.00142.12     0.149 C 
HETATM   23  C8  MIQ B 502     -16.220 -12.298   5.359  1.00144.10     0.187 C 
HETATM   24  O9  MIQ B 502     -15.577 -11.113   5.721  1.00148.65    -0.388 OA
HETATM   25  C10 MIQ B 502     -14.301 -10.822   5.231  1.00147.44     0.187 C 
HETATM   26  C11 MIQ B 502     -13.910 -11.352   3.855  1.00144.08     0.149 C 
ENDBRANCH   5  21
TORSDOF 2
ENDMDL
MODEL 6
REMARK VINA RESULT:      -6.0     25.632     26.964
REMARK  2 active torsions:
REMARK  status: ('A' for Active; 'I' for Inactive)
REMARK    1  A    between atoms: C5_5  and  N6_21 
REMARK    2  A    between atoms: C18_14  and  N17_19 
ROOT
HETATM    1  O1  MIQ B 502     -28.108   5.961   3.606  1.00142.91    -0.171 OA
HETATM    2  C2  MIQ B 502     -27.057   5.520   4.413  1.00141.17     0.195 A 
HETATM    3  C3  MIQ B 502     -25.656   6.195   4.554  1.00141.71     0.035 A 
HETATM    4  C4  MIQ B 502     -25.039   7.399   3.948  1.00142.86     0.046 A 
HETATM    5  C5  MIQ B 502     -23.712   7.770   4.282  1.00139.53     0.031 A 
HETATM    6  C12 MIQ B 502     -22.952   6.963   5.226  1.00139.38     0.030 A 
HETATM    7  C13 MIQ B 502     -23.543   5.809   5.807  1.00141.18     0.019 A 
HETATM    8  C14 MIQ B 502     -24.938   5.426   5.455  1.00138.77     0.033 A 
HETATM    9  C15 MIQ B 502     -25.899   4.267   5.876  1.00142.10     0.195 A 
HETATM   10  N17 MIQ B 502     -27.026   4.468   5.213  1.00139.42    -0.288 N 
HETATM   11  O16 MIQ B 502     -25.618   3.231   6.769  1.00148.93    -0.171 OA
ENDROOT
BRANCH  10  12
HETATM   12  C18 MIQ B 502     -28.154   3.566   5.347  1.00139.82     0.187 C 
HETATM   13  C19 MIQ B 502     -28.422   3.369   6.844  1.00140.06     0.247 C 
HETATM   14  O25 MIQ B 502     -28.531   4.317   7.539  1.00143.95    -0.271 OA
HETATM   15  N20 MIQ B 502     -28.550   2.051   7.431  1.00140.02    -0.296 N 
HETATM   16  H13 MIQ B 502     -28.718   1.936   8.411  1.00142.77     0.171 HD
HETATM   17  C21 MIQ B 502     -28.403   0.910   6.564  1.00142.22     0.224 C 
HETATM   18  C22 MIQ B 502     -27.426   1.051   5.413  1.00139.52     0.106 C 
HETATM   19  O24 MIQ B 502     -29.017  -0.084   6.741  1.00146.13    -0.273 OA
HETATM   20  C23 MIQ B 502     -27.879   2.257   4.609  1.00139.15     0.045 C 
ENDBRANCH  10  12
BRANCH   5  21
HETATM   21  N6  MIQ B 502     -23.116   8.943   3.670  1.00140.95    -0.377 N 
HETATM   22  C7  MIQ B 502     -23.632  10.253   4.030  1.00142.12     0.149 C 
HETATM   23  C8  MIQ B 502     -23.415  11.274   2.921  1.00144.10     0.187 C 
HETATM   24  O9  MIQ B 502     -22.112  11.264   2.419  1.00148.65    -0.388 OA
HETATM   25  C10 MIQ B 502     -21.226  10.244   2.775  1.00147.44     0.187 C 
HETATM   26  C11 MIQ B 502     -21.790   8.861   3.083  1.00144.08     0.149 C 
ENDBRANCH   5  21
TORSDOF 2
ENDMDL
MODEL 7
REMARK VINA RESULT:      -6.0     26.248     27.574
REMARK  2 active torsions:
REMARK  status: ('A' for Active; 'I' for Inactive)
REMARK    1  A    between atoms: C5_5  and  N6_21 
REMARK    2  A    between atoms: C18_14  and  N17_19 
ROOT
HETATM    1  O1  MIQ B 502     -25.792   2.083   5.515  1.00142.91    -0.171 OA
HETATM    2  C2  MIQ B 502     -25.775   2.854   6.680  1.00141.17     0.195 A 
HETATM    3  C3  MIQ B 502     -25.305   4.339   6.796  1.00141.71     0.035 A 
HETATM    4  C4  MIQ B 502     -24.780   5.321   5.817  1.00142.86     0.046 A 
HETATM    5  C5  MIQ B 502     -24.430   6.630   6.233  1.00139.53     0.031 A 
HETATM    6  C12 MIQ B 502     -24.589   7.012   7.629  1.00139.38     0.030 A 
HETATM    7  C13 MIQ B 502     -25.093   6.071   8.567  1.00141.18     0.019 A 
HETATM    8  C14 MIQ B 502     -25.460   4.698   8.124  1.00138.77     0.033 A 
HETATM    9  C15 MIQ B 502     -26.031   3.429   8.838  1.00142.10     0.195 A 
HETATM   10  N17 MIQ B 502     -26.148   2.504   7.899  1.00139.42    -0.288 N 
HETATM   11  O16 MIQ B 502     -26.349   3.303  10.191  1.00148.93    -0.171 OA
ENDROOT
BRANCH  10  12
HETATM   12  C18 MIQ B 502     -26.638   1.173   8.204  1.00139.82     0.187 C 
HETATM   13  C19 MIQ B 502     -25.576   0.166   7.746  1.00140.06     0.247 C 
HETATM   14  O25 MIQ B 502     -24.457   0.313   8.091  1.00143.95    -0.271 OA
HETATM   15  N20 MIQ B 502     -25.908  -0.965   6.905  1.00140.02    -0.296 N 
HETATM   16  H13 MIQ B 502     -25.204  -1.612   6.608  1.00142.77     0.171 HD
HETATM   17  C21 MIQ B 502     -27.279  -1.117   6.489  1.00142.22     0.224 C 
HETATM   18  C22 MIQ B 502     -28.065   0.159   6.257  1.00139.52     0.106 C 
HETATM   19  O24 MIQ B 502     -27.765  -2.184   6.342  1.00146.13    -0.273 OA
HETATM   20  C23 MIQ B 502     -28.002   0.947   7.553  1.00139.15     0.045 C 
ENDBRANCH  10  12
BRANCH   5  21
HETATM   21  N6  MIQ B 502     -23.904   7.577   5.267  1.00140.95    -0.377 N 
HETATM   22  C7  MIQ B 502     -22.463   7.689   5.118  1.00142.12     0.149 C 
HETATM   23  C8  MIQ B 502     -22.049   9.067   4.617  1.00144.10     0.187 C 
HETATM   24  O9  MIQ B 502     -22.797   9.493   3.518  1.00148.65    -0.388 OA
HETATM   25  C10 MIQ B 502     -23.938   8.790   3.123  1.00147.44     0.187 C 
HETATM   26  C11 MIQ B 502     -24.749   8.059   4.188  1.00144.08     0.149 C 
ENDBRANCH   5  21
TORSDOF 2
ENDMDL
MODEL 8
REMARK VINA RESULT:      -6.0      4.274      6.197
REMARK  2 active torsions:
REMARK  status: ('A' for Active; 'I' for Inactive)
REMARK    1  A    between atoms: C5_5  and  N6_21 
REMARK    2  A    between atoms: C18_14  and  N17_19 
ROOT
HETATM    1  O1  MIQ B 502     -14.540  -7.828 -13.295  1.00142.91    -0.171 OA
HETATM    2  C2  MIQ B 502     -14.300  -6.763 -14.166  1.00141.17     0.195 A 
HETATM    3  C3  MIQ B 502     -14.639  -6.724 -15.691  1.00141.71     0.035 A 
HETATM    4  C4  MIQ B 502     -15.263  -7.694 -16.621  1.00142.86     0.046 A 
HETATM    5  C5  MIQ B 502     -15.444  -7.363 -17.987  1.00139.53     0.031 A 
HETATM    6  C12 MIQ B 502     -15.015  -6.061 -18.478  1.00139.38     0.030 A 
HETATM    7  C13 MIQ B 502     -14.417  -5.130 -17.586  1.00141.18     0.019 A 
HETATM    8  C14 MIQ B 502     -14.232  -5.483 -16.152  1.00138.77     0.033 A 
HETATM    9  C15 MIQ B 502     -13.637  -4.747 -14.907  1.00142.10     0.195 A 
HETATM   10  N17 MIQ B 502     -13.754  -5.590 -13.895  1.00139.42    -0.288 N 
HETATM   11  O16 MIQ B 502     -13.093  -3.462 -14.877  1.00148.93    -0.171 OA
ENDROOT
BRANCH  10  12
HETATM   12  C18 MIQ B 502     -13.285  -5.246 -12.565  1.00139.82     0.187 C 
HETATM   13  C19 MIQ B 502     -12.353  -6.369 -12.093  1.00140.06     0.247 C 
HETATM   14  O25 MIQ B 502     -11.471  -6.719 -12.793  1.00143.95    -0.271 OA
HETATM   15  N20 MIQ B 502     -12.522  -7.010 -10.805  1.00140.02    -0.296 N 
HETATM   16  H13 MIQ B 502     -11.911  -7.746 -10.510  1.00142.77     0.171 HD
HETATM   17  C21 MIQ B 502     -13.612  -6.572  -9.971  1.00142.22     0.224 C 
HETATM   18  C22 MIQ B 502     -14.876  -6.127 -10.681  1.00139.52     0.106 C 
HETATM   19  O24 MIQ B 502     -13.522  -6.558  -8.793  1.00146.13    -0.273 OA
HETATM   20  C23 MIQ B 502     -14.469  -5.013 -11.628  1.00139.15     0.045 C 
ENDBRANCH  10  12
BRANCH   5  21
HETATM   21  N6  MIQ B 502     -16.044  -8.328 -18.890  1.00140.95    -0.377 N 
HETATM   22  C7  MIQ B 502     -17.386  -8.806 -18.605  1.00142.12     0.149 C 
HETATM   23  C8  MIQ B 502     -17.630 -10.195 -19.180  1.00144.10     0.187 C 
HETATM   24  O9  MIQ B 502     -17.225 -10.311 -20.511  1.00148.65    -0.388 OA
HETATM   25  C10 MIQ B 502     -16.472  -9.300 -21.113  1.00147.44     0.187 C 
HETATM   26  C11 MIQ B 502     -15.531  -8.474 -20.241  1.00144.08     0.149 C 
ENDBRANCH   5  21
TORSDOF 2
ENDMDL
MODEL 9
REMARK VINA RESULT:      -5.9     25.461     27.014
REMARK  2 active torsions:
REMARK  status: ('A' for Active; 'I' for Inactive)
REMARK    1  A    between atoms: C5_5  and  N6_21 
REMARK    2  A    between atoms: C18_14  and  N17_19 
ROOT
HETATM    1  O1  MIQ B 502     -27.582   4.836   3.911  1.00142.91    -0.171 OA
HETATM    2  C2  MIQ B 502     -26.663   4.845   4.962  1.00141.17     0.195 A 
HETATM    3  C3  MIQ B 502     -25.448   5.815   5.116  1.00141.71     0.035 A 
HETATM    4  C4  MIQ B 502     -24.922   6.929   4.291  1.00142.86     0.046 A 
HETATM    5  C5  MIQ B 502     -23.769   7.643   4.704  1.00139.53     0.031 A 
HETATM    6  C12 MIQ B 502     -23.099   7.280   5.944  1.00139.38     0.030 A 
HETATM    7  C13 MIQ B 502     -23.603   6.213   6.736  1.00141.18     0.019 A 
HETATM    8  C14 MIQ B 502     -24.816   5.468   6.299  1.00138.77     0.033 A 
HETATM    9  C15 MIQ B 502     -25.643   4.277   6.883  1.00142.10     0.195 A 
HETATM   10  N17 MIQ B 502     -26.628   4.061   6.026  1.00139.42    -0.288 N 
HETATM   11  O16 MIQ B 502     -25.389   3.584   8.068  1.00148.93    -0.171 OA
ENDROOT
BRANCH  10  12
HETATM   12  C18 MIQ B 502     -27.599   3.005   6.239  1.00139.82     0.187 C 
HETATM   13  C19 MIQ B 502     -27.623   2.131   4.979  1.00140.06     0.247 C 
HETATM   14  O25 MIQ B 502     -26.608   1.715   4.547  1.00143.95    -0.271 OA
HETATM   15  N20 MIQ B 502     -28.861   1.796   4.305  1.00140.02    -0.296 N 
HETATM   16  H13 MIQ B 502     -28.863   1.230   3.479  1.00142.77     0.171 HD
HETATM   17  C21 MIQ B 502     -30.087   2.325   4.845  1.00142.22     0.224 C 
HETATM   18  C22 MIQ B 502     -30.012   3.695   5.492  1.00139.52     0.106 C 
HETATM   19  O24 MIQ B 502     -31.099   1.717   4.791  1.00146.13    -0.273 OA
HETATM   20  C23 MIQ B 502     -28.964   3.599   6.585  1.00139.15     0.045 C 
ENDBRANCH  10  12
BRANCH   5  21
HETATM   21  N6  MIQ B 502     -23.256   8.722   3.879  1.00140.95    -0.377 N 
HETATM   22  C7  MIQ B 502     -22.012   8.515   3.158  1.00142.12     0.149 C 
HETATM   23  C8  MIQ B 502     -21.283   9.825   2.893  1.00144.10     0.187 C 
HETATM   24  O9  MIQ B 502     -22.118  10.816   2.371  1.00148.65    -0.388 OA
HETATM   25  C10 MIQ B 502     -23.502  10.632   2.343  1.00147.44     0.187 C 
HETATM   26  C11 MIQ B 502     -24.147   9.778   3.430  1.00144.08     0.149 C 
ENDBRANCH   5  21
TORSDOF 2
ENDMDL
