MODEL 1
REMARK VINA RESULT:      -7.2      0.000      0.000
REMARK  2 active torsions:
REMARK  status: ('A' for Active; 'I' for Inactive)
REMARK    1  A    between atoms: C5_5  and  N6_21 
REMARK    2  A    between atoms: C18_14  and  N17_19 
ROOT
HETATM    1  O1  MIQ B 502      -0.643  21.611  -3.066  1.00142.91    -0.171 OA
HETATM    2  C2  MIQ B 502       0.749  21.573  -2.960  1.00141.17     0.195 A 
HETATM    3  C3  MIQ B 502       1.578  20.618  -2.043  1.00141.71     0.035 A 
HETATM    4  C4  MIQ B 502       1.208  19.548  -1.087  1.00142.86     0.046 A 
HETATM    5  C5  MIQ B 502       2.213  18.836  -0.384  1.00139.53     0.031 A 
HETATM    6  C12 MIQ B 502       3.615  19.159  -0.605  1.00139.38     0.030 A 
HETATM    7  C13 MIQ B 502       3.970  20.184  -1.522  1.00141.18     0.019 A 
HETATM    8  C14 MIQ B 502       2.911  20.926  -2.259  1.00138.77     0.033 A 
HETATM    9  C15 MIQ B 502       2.910  22.078  -3.316  1.00142.10     0.195 A 
HETATM   10  N17 MIQ B 502       1.639  22.313  -3.598  1.00139.42    -0.288 N 
HETATM   11  O16 MIQ B 502       4.026  22.726  -3.848  1.00148.93    -0.171 OA
ENDROOT
BRANCH  10  12
HETATM   12  C18 MIQ B 502       1.251  23.344  -4.543  1.00139.82     0.187 C 
HETATM   13  C19 MIQ B 502       0.285  24.295  -3.827  1.00140.06     0.247 C 
HETATM   14  O25 MIQ B 502       0.592  24.749  -2.782  1.00143.95    -0.271 OA
HETATM   15  N20 MIQ B 502      -0.995  24.659  -4.400  1.00140.02    -0.296 N 
HETATM   16  H13 MIQ B 502      -1.620  25.276  -3.919  1.00142.77     0.171 HD
HETATM   17  C21 MIQ B 502      -1.352  24.084  -5.672  1.00142.22     0.224 C 
HETATM   18  C22 MIQ B 502      -0.857  22.677  -5.946  1.00139.52     0.106 C 
HETATM   19  O24 MIQ B 502      -1.994  24.684  -6.462  1.00146.13    -0.273 OA
HETATM   20  C23 MIQ B 502       0.653  22.715  -5.801  1.00139.15     0.045 C 
ENDBRANCH  10  12
BRANCH   5  21
HETATM   21  N6  MIQ B 502       1.836  17.801   0.560  1.00140.95    -0.377 N 
HETATM   22  C7  MIQ B 502       0.572  17.930   1.265  1.00142.12     0.149 C 
HETATM   23  C8  MIQ B 502       0.592  17.209   2.606  1.00144.10     0.187 C 
HETATM   24  O9  MIQ B 502       1.095  15.909   2.517  1.00148.65    -0.388 OA
HETATM   25  C10 MIQ B 502       1.713  15.469   1.344  1.00147.44     0.187 C 
HETATM   26  C11 MIQ B 502       2.451  16.487   0.482  1.00144.08     0.149 C 
ENDBRANCH   5  21
TORSDOF 2
ENDMDL
MODEL 2
REMARK VINA RESULT:      -6.7      2.701      4.740
REMARK  2 active torsions:
REMARK  status: ('A' for Active; 'I' for Inactive)
REMARK    1  A    between atoms: C5_5  and  N6_21 
REMARK    2  A    between atoms: C18_14  and  N17_19 
ROOT
HETATM    1  O1  MIQ B 502       1.950  22.777  -4.330  1.00142.91    -0.171 OA
HETATM    2  C2  MIQ B 502       1.660  21.798  -3.377  1.00141.17     0.195 A 
HETATM    3  C3  MIQ B 502       2.681  21.130  -2.401  1.00141.71     0.035 A 
HETATM    4  C4  MIQ B 502       4.138  21.295  -2.181  1.00142.86     0.046 A 
HETATM    5  C5  MIQ B 502       4.805  20.527  -1.193  1.00139.53     0.031 A 
HETATM    6  C12 MIQ B 502       4.053  19.572  -0.392  1.00139.38     0.030 A 
HETATM    7  C13 MIQ B 502       2.657  19.414  -0.602  1.00141.18     0.019 A 
HETATM    8  C14 MIQ B 502       1.961  20.225  -1.638  1.00138.77     0.033 A 
HETATM    9  C15 MIQ B 502       0.485  20.332  -2.142  1.00142.10     0.195 A 
HETATM   10  N17 MIQ B 502       0.492  21.245  -3.100  1.00139.42    -0.288 N 
HETATM   11  O16 MIQ B 502      -0.612  19.607  -1.676  1.00148.93    -0.171 OA
ENDROOT
BRANCH  10  12
HETATM   12  C18 MIQ B 502      -0.719  21.600  -3.816  1.00139.82     0.187 C 
HETATM   13  C19 MIQ B 502      -0.463  21.368  -5.311  1.00140.06     0.247 C 
HETATM   14  O25 MIQ B 502      -0.028  20.330  -5.666  1.00143.95    -0.271 OA
HETATM   15  N20 MIQ B 502      -0.745  22.387  -6.301  1.00140.02    -0.296 N 
HETATM   16  H13 MIQ B 502      -0.568  22.225  -7.273  1.00142.77     0.171 HD
HETATM   17  C21 MIQ B 502      -1.266  23.648  -5.841  1.00142.22     0.224 C 
HETATM   18  C22 MIQ B 502      -0.785  24.130  -4.486  1.00139.52     0.106 C 
HETATM   19  O24 MIQ B 502      -2.033  24.273  -6.488  1.00146.13    -0.273 OA
HETATM   20  C23 MIQ B 502      -1.128  23.036  -3.492  1.00139.15     0.045 C 
ENDBRANCH  10  12
BRANCH   5  21
HETATM   21  N6  MIQ B 502       6.234  20.688  -0.999  1.00140.95    -0.377 N 
HETATM   22  C7  MIQ B 502       7.044  21.123  -2.124  1.00142.12     0.149 C 
HETATM   23  C8  MIQ B 502       8.485  20.645  -2.005  1.00144.10     0.187 C 
HETATM   24  O9  MIQ B 502       9.036  20.886  -0.745  1.00148.65    -0.388 OA
HETATM   25  C10 MIQ B 502       8.225  21.305   0.313  1.00147.44     0.187 C 
HETATM   26  C11 MIQ B 502       6.770  20.850   0.341  1.00144.08     0.149 C 
ENDBRANCH   5  21
TORSDOF 2
ENDMDL
MODEL 3
REMARK VINA RESULT:      -6.6      2.198      2.722
REMARK  2 active torsions:
REMARK  status: ('A' for Active; 'I' for Inactive)
REMARK    1  A    between atoms: C5_5  and  N6_21 
REMARK    2  A    between atoms: C18_14  and  N17_19 
ROOT
HETATM    1  O1  MIQ B 502      -1.076  19.203  -1.636  1.00142.91    -0.171 OA
HETATM    2  C2  MIQ B 502       0.085  19.901  -1.977  1.00141.17     0.195 A 
HETATM    3  C3  MIQ B 502       1.469  19.794  -1.262  1.00141.71     0.035 A 
HETATM    4  C4  MIQ B 502       1.963  19.000  -0.112  1.00142.86     0.046 A 
HETATM    5  C5  MIQ B 502       3.310  19.119   0.315  1.00139.53     0.031 A 
HETATM    6  C12 MIQ B 502       4.211  20.026  -0.381  1.00139.38     0.030 A 
HETATM    7  C13 MIQ B 502       3.738  20.786  -1.485  1.00141.18     0.019 A 
HETATM    8  C14 MIQ B 502       2.324  20.655  -1.930  1.00138.77     0.033 A 
HETATM    9  C15 MIQ B 502       1.466  21.300  -3.067  1.00142.10     0.195 A 
HETATM   10  N17 MIQ B 502       0.257  20.775  -2.954  1.00139.42    -0.288 N 
HETATM   11  O16 MIQ B 502       1.893  22.242  -4.004  1.00148.93    -0.171 OA
ENDROOT
BRANCH  10  12
HETATM   12  C18 MIQ B 502      -0.821  21.159  -3.846  1.00139.82     0.187 C 
HETATM   13  C19 MIQ B 502      -0.327  20.972  -5.286  1.00140.06     0.247 C 
HETATM   14  O25 MIQ B 502       0.159  19.943  -5.599  1.00143.95    -0.271 OA
HETATM   15  N20 MIQ B 502      -0.444  22.022  -6.276  1.00140.02    -0.296 N 
HETATM   16  H13 MIQ B 502      -0.111  21.890  -7.211  1.00142.77     0.171 HD
HETATM   17  C21 MIQ B 502      -1.031  23.272  -5.867  1.00142.22     0.224 C 
HETATM   18  C22 MIQ B 502      -0.775  23.709  -4.438  1.00139.52     0.106 C 
HETATM   19  O24 MIQ B 502      -1.683  23.921  -6.609  1.00146.13    -0.273 OA
HETATM   20  C23 MIQ B 502      -1.276  22.586  -3.547  1.00139.15     0.045 C 
ENDBRANCH  10  12
BRANCH   5  21
HETATM   21  N6  MIQ B 502       3.776  18.347   1.453  1.00140.95    -0.377 N 
HETATM   22  C7  MIQ B 502       4.539  19.025   2.487  1.00142.12     0.149 C 
HETATM   23  C8  MIQ B 502       5.473  18.072   3.221  1.00144.10     0.187 C 
HETATM   24  O9  MIQ B 502       4.842  16.893   3.621  1.00148.65    -0.388 OA
HETATM   25  C10 MIQ B 502       3.560  16.585   3.160  1.00147.44     0.187 C 
HETATM   26  C11 MIQ B 502       3.143  17.082   1.779  1.00144.08     0.149 C 
ENDBRANCH   5  21
TORSDOF 2
ENDMDL
MODEL 4
REMARK VINA RESULT:      -6.6      1.934      3.671
REMARK  2 active torsions:
REMARK  status: ('A' for Active; 'I' for Inactive)
REMARK    1  A    between atoms: C5_5  and  N6_21 
REMARK    2  A    between atoms: C18_14  and  N17_19 
ROOT
HETATM    1  O1  MIQ B 502       3.807  22.331  -1.665  1.00142.91    -0.171 OA
HETATM    2  C2  MIQ B 502       2.551  21.995  -2.175  1.00141.17     0.195 A 
HETATM    3  C3  MIQ B 502       1.660  20.797  -1.717  1.00141.71     0.035 A 
HETATM    4  C4  MIQ B 502       1.827  19.735  -0.697  1.00142.86     0.046 A 
HETATM    5  C5  MIQ B 502       0.815  18.760  -0.505  1.00139.53     0.031 A 
HETATM    6  C12 MIQ B 502      -0.394  18.805  -1.314  1.00139.38     0.030 A 
HETATM    7  C13 MIQ B 502      -0.555  19.825  -2.291  1.00141.18     0.019 A 
HETATM    8  C14 MIQ B 502       0.509  20.847  -2.486  1.00138.77     0.033 A 
HETATM    9  C15 MIQ B 502       0.687  22.083  -3.428  1.00142.10     0.195 A 
HETATM   10  N17 MIQ B 502       1.864  22.605  -3.125  1.00139.42    -0.288 N 
HETATM   11  O16 MIQ B 502      -0.216  22.536  -4.391  1.00148.93    -0.171 OA
ENDROOT
BRANCH  10  12
HETATM   12  C18 MIQ B 502       2.375  23.773  -3.820  1.00139.82     0.187 C 
HETATM   13  C19 MIQ B 502       3.787  23.440  -4.318  1.00140.06     0.247 C 
HETATM   14  O25 MIQ B 502       3.962  22.450  -4.934  1.00143.95    -0.271 OA
HETATM   15  N20 MIQ B 502       4.913  24.312  -4.057  1.00140.02    -0.296 N 
HETATM   16  H13 MIQ B 502       5.831  24.081  -4.382  1.00142.77     0.171 HD
HETATM   17  C21 MIQ B 502       4.677  25.510  -3.293  1.00142.22     0.224 C 
HETATM   18  C22 MIQ B 502       3.612  25.432  -2.216  1.00139.52     0.106 C 
HETATM   19  O24 MIQ B 502       5.280  26.505  -3.502  1.00146.13    -0.273 OA
HETATM   20  C23 MIQ B 502       2.332  24.996  -2.905  1.00139.15     0.045 C 
ENDBRANCH  10  12
BRANCH   5  21
HETATM   21  N6  MIQ B 502       0.999  17.716   0.486  1.00140.95    -0.377 N 
HETATM   22  C7  MIQ B 502      -0.107  17.399   1.373  1.00142.12     0.149 C 
HETATM   23  C8  MIQ B 502       0.374  16.818   2.697  1.00144.10     0.187 C 
HETATM   24  O9  MIQ B 502       1.319  15.803   2.534  1.00148.65    -0.388 OA
HETATM   25  C10 MIQ B 502       1.889  15.562   1.281  1.00147.44     0.187 C 
HETATM   26  C11 MIQ B 502       2.053  16.731   0.316  1.00144.08     0.149 C 
ENDBRANCH   5  21
TORSDOF 2
ENDMDL
MODEL 5
REMARK VINA RESULT:      -6.5      1.328      2.287
REMARK  2 active torsions:
REMARK  status: ('A' for Active; 'I' for Inactive)
REMARK    1  A    between atoms: C5_5  and  N6_21 
REMARK    2  A    between atoms: C18_14  and  N17_19 
ROOT
HETATM    1  O1  MIQ B 502       2.951  22.717  -1.826  1.00142.91    -0.171 OA
HETATM    2  C2  MIQ B 502       1.775  22.010  -2.089  1.00141.17     0.195 A 
HETATM    3  C3  MIQ B 502       1.326  20.681  -1.402  1.00141.71     0.035 A 
HETATM    4  C4  MIQ B 502       1.926  19.821  -0.355  1.00142.86     0.046 A 
HETATM    5  C5  MIQ B 502       1.262  18.645   0.075  1.00139.53     0.031 A 
HETATM    6  C12 MIQ B 502      -0.018  18.281  -0.516  1.00139.38     0.030 A 
HETATM    7  C13 MIQ B 502      -0.595  19.106  -1.519  1.00141.18     0.019 A 
HETATM    8  C14 MIQ B 502       0.106  20.340  -1.965  1.00138.77     0.033 A 
HETATM    9  C15 MIQ B 502      -0.203  21.465  -3.007  1.00142.10     0.195 A 
HETATM   10  N17 MIQ B 502       0.815  22.307  -2.948  1.00139.42    -0.288 N 
HETATM   11  O16 MIQ B 502      -1.326  21.554  -3.831  1.00148.93    -0.171 OA
ENDROOT
BRANCH  10  12
HETATM   12  C18 MIQ B 502       0.877  23.481  -3.799  1.00139.82     0.187 C 
HETATM   13  C19 MIQ B 502      -0.319  24.375  -3.451  1.00140.06     0.247 C 
HETATM   14  O25 MIQ B 502      -0.516  24.659  -2.323  1.00143.95    -0.271 OA
HETATM   15  N20 MIQ B 502      -1.212  24.887  -4.470  1.00140.02    -0.296 N 
HETATM   16  H13 MIQ B 502      -1.993  25.465  -4.229  1.00142.77     0.171 HD
HETATM   17  C21 MIQ B 502      -0.956  24.518  -5.838  1.00142.22     0.224 C 
HETATM   18  C22 MIQ B 502      -0.374  23.138  -6.074  1.00139.52     0.106 C 
HETATM   19  O24 MIQ B 502      -1.185  25.258  -6.731  1.00146.13    -0.273 OA
HETATM   20  C23 MIQ B 502       0.912  23.069  -5.270  1.00139.15     0.045 C 
ENDBRANCH  10  12
BRANCH   5  21
HETATM   21  N6  MIQ B 502       1.869  17.805   1.091  1.00140.95    -0.377 N 
HETATM   22  C7  MIQ B 502       1.241  16.533   1.407  1.00142.12     0.149 C 
HETATM   23  C8  MIQ B 502       1.545  16.087   2.832  1.00144.10     0.187 C 
HETATM   24  O9  MIQ B 502       2.900  16.179   3.152  1.00148.65    -0.388 OA
HETATM   25  C10 MIQ B 502       3.787  16.838   2.296  1.00147.44     0.187 C 
HETATM   26  C11 MIQ B 502       3.262  17.995   1.453  1.00144.08     0.149 C 
ENDBRANCH   5  21
TORSDOF 2
ENDMDL
MODEL 6
REMARK VINA RESULT:      -6.4      2.236      8.129
REMARK  2 active torsions:
REMARK  status: ('A' for Active; 'I' for Inactive)
REMARK    1  A    between atoms: C5_5  and  N6_21 
REMARK    2  A    between atoms: C18_14  and  N17_19 
ROOT
HETATM    1  O1  MIQ B 502      -0.734  18.640   1.397  1.00142.91    -0.171 OA
HETATM    2  C2  MIQ B 502       0.606  18.869   1.080  1.00141.17     0.195 A 
HETATM    3  C3  MIQ B 502       1.146  19.494  -0.246  1.00141.71     0.035 A 
HETATM    4  C4  MIQ B 502       0.489  20.001  -1.475  1.00142.86     0.046 A 
HETATM    5  C5  MIQ B 502       1.266  20.525  -2.538  1.00139.53     0.031 A 
HETATM    6  C12 MIQ B 502       2.717  20.567  -2.421  1.00139.38     0.030 A 
HETATM    7  C13 MIQ B 502       3.346  20.083  -1.243  1.00141.18     0.019 A 
HETATM    8  C14 MIQ B 502       2.525  19.535  -0.129  1.00138.77     0.033 A 
HETATM    9  C15 MIQ B 502       2.844  18.933   1.279  1.00142.10     0.195 A 
HETATM   10  N17 MIQ B 502       1.676  18.619   1.815  1.00139.42    -0.288 N 
HETATM   11  O16 MIQ B 502       4.107  18.761   1.847  1.00148.93    -0.171 OA
ENDROOT
BRANCH  10  12
HETATM   12  C18 MIQ B 502       1.585  18.013   3.130  1.00139.82     0.187 C 
HETATM   13  C19 MIQ B 502       0.713  16.757   3.007  1.00140.06     0.247 C 
HETATM   14  O25 MIQ B 502       0.962  15.962   2.172  1.00143.95    -0.271 OA
HETATM   15  N20 MIQ B 502      -0.408  16.516   3.892  1.00140.02    -0.296 N 
HETATM   16  H13 MIQ B 502      -0.974  15.696   3.797  1.00142.77     0.171 HD
HETATM   17  C21 MIQ B 502      -0.700  17.507   4.896  1.00142.22     0.224 C 
HETATM   18  C22 MIQ B 502      -0.419  18.951   4.530  1.00139.52     0.106 C 
HETATM   19  O24 MIQ B 502      -1.131  17.205   5.955  1.00146.13    -0.273 OA
HETATM   20  C23 MIQ B 502       1.047  19.022   4.144  1.00139.15     0.045 C 
ENDBRANCH  10  12
BRANCH   5  21
HETATM   21  N6  MIQ B 502       0.611  21.004  -3.742  1.00140.95    -0.377 N 
HETATM   22  C7  MIQ B 502      -0.716  20.505  -4.056  1.00142.12     0.149 C 
HETATM   23  C8  MIQ B 502      -1.001  20.546  -5.552  1.00144.10     0.187 C 
HETATM   24  O9  MIQ B 502      -0.671  21.772  -6.134  1.00148.65    -0.388 OA
HETATM   25  C10 MIQ B 502       0.054  22.725  -5.414  1.00147.44     0.187 C 
HETATM   26  C11 MIQ B 502       1.047  22.244  -4.361  1.00144.08     0.149 C 
ENDBRANCH   5  21
TORSDOF 2
ENDMDL
MODEL 7
REMARK VINA RESULT:      -6.2      6.777      9.126
REMARK  2 active torsions:
REMARK  status: ('A' for Active; 'I' for Inactive)
REMARK    1  A    between atoms: C5_5  and  N6_21 
REMARK    2  A    between atoms: C18_14  and  N17_19 
ROOT
HETATM    1  O1  MIQ B 502       2.402  18.765   4.678  1.00142.91    -0.171 OA
HETATM    2  C2  MIQ B 502       1.657  17.968   3.805  1.00141.17     0.195 A 
HETATM    3  C3  MIQ B 502       0.122  17.692   3.891  1.00141.71     0.035 A 
HETATM    4  C4  MIQ B 502      -0.943  18.135   4.821  1.00142.86     0.046 A 
HETATM    5  C5  MIQ B 502      -2.281  17.706   4.636  1.00139.53     0.031 A 
HETATM    6  C12 MIQ B 502      -2.610  16.825   3.524  1.00139.38     0.030 A 
HETATM    7  C13 MIQ B 502      -1.589  16.401   2.631  1.00141.18     0.019 A 
HETATM    8  C14 MIQ B 502      -0.186  16.857   2.829  1.00138.77     0.033 A 
HETATM    9  C15 MIQ B 502       1.165  16.614   2.080  1.00142.10     0.195 A 
HETATM   10  N17 MIQ B 502       2.080  17.300   2.746  1.00139.42    -0.288 N 
HETATM   11  O16 MIQ B 502       1.360  15.830   0.942  1.00148.93    -0.171 OA
ENDROOT
BRANCH  10  12
HETATM   12  C18 MIQ B 502       3.473  17.296   2.340  1.00139.82     0.187 C 
HETATM   13  C19 MIQ B 502       4.322  17.014   3.586  1.00140.06     0.247 C 
HETATM   14  O25 MIQ B 502       4.058  16.086   4.264  1.00143.95    -0.271 OA
HETATM   15  N20 MIQ B 502       5.445  17.853   3.951  1.00140.02    -0.296 N 
HETATM   16  H13 MIQ B 502       5.987  17.663   4.770  1.00142.77     0.171 HD
HETATM   17  C21 MIQ B 502       5.740  18.987   3.112  1.00142.22     0.224 C 
HETATM   18  C22 MIQ B 502       4.559  19.676   2.457  1.00139.52     0.106 C 
HETATM   19  O24 MIQ B 502       6.850  19.355   2.941  1.00146.13    -0.273 OA
HETATM   20  C23 MIQ B 502       3.831  18.613   1.654  1.00139.15     0.045 C 
ENDBRANCH  10  12
BRANCH   5  21
HETATM   21  N6  MIQ B 502      -3.311  18.136   5.563  1.00140.95    -0.377 N 
HETATM   22  C7  MIQ B 502      -4.703  17.949   5.191  1.00142.12     0.149 C 
HETATM   23  C8  MIQ B 502      -5.615  18.962   5.872  1.00144.10     0.187 C 
HETATM   24  O9  MIQ B 502      -5.374  19.074   7.243  1.00148.65    -0.388 OA
HETATM   25  C10 MIQ B 502      -4.250  18.473   7.815  1.00147.44     0.187 C 
HETATM   26  C11 MIQ B 502      -2.991  18.323   6.968  1.00144.08     0.149 C 
ENDBRANCH   5  21
TORSDOF 2
ENDMDL
MODEL 8
REMARK VINA RESULT:      -6.2      2.428      8.480
REMARK  2 active torsions:
REMARK  status: ('A' for Active; 'I' for Inactive)
REMARK    1  A    between atoms: C5_5  and  N6_21 
REMARK    2  A    between atoms: C18_14  and  N17_19 
ROOT
HETATM    1  O1  MIQ B 502       2.900  19.397   1.058  1.00142.91    -0.171 OA
HETATM    2  C2  MIQ B 502       1.680  18.815   0.707  1.00141.17     0.195 A 
HETATM    3  C3  MIQ B 502       0.823  19.158  -0.553  1.00141.71     0.035 A 
HETATM    4  C4  MIQ B 502       0.998  20.109  -1.676  1.00142.86     0.046 A 
HETATM    5  C5  MIQ B 502       0.022  20.195  -2.701  1.00139.53     0.031 A 
HETATM    6  C12 MIQ B 502      -1.158  19.343  -2.649  1.00139.38     0.030 A 
HETATM    7  C13 MIQ B 502      -1.325  18.430  -1.573  1.00141.18     0.019 A 
HETATM    8  C14 MIQ B 502      -0.297  18.343  -0.501  1.00138.77     0.033 A 
HETATM    9  C15 MIQ B 502      -0.133  17.489   0.799  1.00142.10     0.195 A 
HETATM   10  N17 MIQ B 502       1.009  17.870   1.345  1.00139.42    -0.288 N 
HETATM   11  O16 MIQ B 502      -1.018  16.522   1.280  1.00148.93    -0.171 OA
ENDROOT
BRANCH  10  12
HETATM   12  C18 MIQ B 502       1.484  17.294   2.590  1.00139.82     0.187 C 
HETATM   13  C19 MIQ B 502       1.819  18.448   3.542  1.00140.06     0.247 C 
HETATM   14  O25 MIQ B 502       1.018  19.294   3.726  1.00143.95    -0.271 OA
HETATM   15  N20 MIQ B 502       3.092  18.526   4.229  1.00140.02    -0.296 N 
HETATM   16  H13 MIQ B 502       3.301  19.289   4.843  1.00142.77     0.171 HD
HETATM   17  C21 MIQ B 502       4.057  17.487   3.980  1.00142.22     0.224 C 
HETATM   18  C22 MIQ B 502       4.071  16.889   2.587  1.00139.52     0.106 C 
HETATM   19  O24 MIQ B 502       4.798  17.117   4.824  1.00146.13    -0.273 OA
HETATM   20  C23 MIQ B 502       2.669  16.366   2.328  1.00139.15     0.045 C 
ENDBRANCH  10  12
BRANCH   5  21
HETATM   21  N6  MIQ B 502       0.199  21.141  -3.788  1.00140.95    -0.377 N 
HETATM   22  C7  MIQ B 502      -0.982  21.677  -4.442  1.00142.12     0.149 C 
HETATM   23  C8  MIQ B 502      -0.697  22.094  -5.879  1.00144.10     0.187 C 
HETATM   24  O9  MIQ B 502       0.457  22.872  -6.000  1.00148.65    -0.388 OA
HETATM   25  C10 MIQ B 502       1.332  23.013  -4.919  1.00147.44     0.187 C 
HETATM   26  C11 MIQ B 502       1.452  21.864  -3.923  1.00144.08     0.149 C 
ENDBRANCH   5  21
TORSDOF 2
ENDMDL
MODEL 9
REMARK VINA RESULT:      -6.2      3.894      7.869
REMARK  2 active torsions:
REMARK  status: ('A' for Active; 'I' for Inactive)
REMARK    1  A    between atoms: C5_5  and  N6_21 
REMARK    2  A    between atoms: C18_14  and  N17_19 
ROOT
HETATM    1  O1  MIQ B 502       4.125  18.425   1.997  1.00142.91    -0.171 OA
HETATM    2  C2  MIQ B 502       3.276  18.814   0.959  1.00141.17     0.195 A 
HETATM    3  C3  MIQ B 502       3.638  19.776  -0.217  1.00141.71     0.035 A 
HETATM    4  C4  MIQ B 502       4.868  20.514  -0.589  1.00142.86     0.046 A 
HETATM    5  C5  MIQ B 502       4.893  21.330  -1.748  1.00139.53     0.031 A 
HETATM    6  C12 MIQ B 502       3.702  21.442  -2.578  1.00139.38     0.030 A 
HETATM    7  C13 MIQ B 502       2.522  20.733  -2.223  1.00141.18     0.019 A 
HETATM    8  C14 MIQ B 502       2.503  19.876  -1.006  1.00138.77     0.033 A 
HETATM    9  C15 MIQ B 502       1.431  18.972  -0.315  1.00142.10     0.195 A 
HETATM   10  N17 MIQ B 502       2.020  18.458   0.752  1.00139.42    -0.288 N 
HETATM   11  O16 MIQ B 502       0.119  18.756  -0.742  1.00148.93    -0.171 OA
ENDROOT
BRANCH  10  12
HETATM   12  C18 MIQ B 502       1.311  17.569   1.654  1.00139.82     0.187 C 
HETATM   13  C19 MIQ B 502       0.625  16.491   0.805  1.00140.06     0.247 C 
HETATM   14  O25 MIQ B 502       1.260  15.896   0.009  1.00143.95    -0.271 OA
HETATM   15  N20 MIQ B 502      -0.781  16.178   0.958  1.00140.02    -0.296 N 
HETATM   16  H13 MIQ B 502      -1.217  15.476   0.393  1.00142.77     0.171 HD
HETATM   17  C21 MIQ B 502      -1.536  16.926   1.930  1.00142.22     0.224 C 
HETATM   18  C22 MIQ B 502      -1.134  18.373   2.139  1.00139.52     0.106 C 
HETATM   19  O24 MIQ B 502      -2.422  16.432   2.536  1.00146.13    -0.273 OA
HETATM   20  C23 MIQ B 502       0.334  18.361   2.522  1.00139.15     0.045 C 
ENDBRANCH  10  12
BRANCH   5  21
HETATM   21  N6  MIQ B 502       6.100  22.059  -2.091  1.00140.95    -0.377 N 
HETATM   22  C7  MIQ B 502       6.042  23.509  -2.154  1.00142.12     0.149 C 
HETATM   23  C8  MIQ B 502       7.090  24.080  -3.100  1.00144.10     0.187 C 
HETATM   24  O9  MIQ B 502       8.361  23.542  -2.891  1.00148.65    -0.388 OA
HETATM   25  C10 MIQ B 502       8.534  22.437  -2.053  1.00147.44     0.187 C 
HETATM   26  C11 MIQ B 502       7.398  21.425  -1.938  1.00144.08     0.149 C 
ENDBRANCH   5  21
TORSDOF 2
ENDMDL
