MODEL 1
REMARK VINA RESULT:      -6.7      0.000      0.000
REMARK  2 active torsions:
REMARK  status: ('A' for Active; 'I' for Inactive)
REMARK    1  A    between atoms: C5_5  and  N6_21 
REMARK    2  A    between atoms: C18_14  and  N17_19 
ROOT
HETATM    1  O1  MIQ B 502      11.105  12.926  -4.663  1.00142.91    -0.171 OA
HETATM    2  C2  MIQ B 502      11.857  13.945  -5.252  1.00141.17     0.195 A 
HETATM    3  C3  MIQ B 502      11.509  15.468  -5.247  1.00141.71     0.035 A 
HETATM    4  C4  MIQ B 502      10.391  16.256  -4.676  1.00142.86     0.046 A 
HETATM    5  C5  MIQ B 502      10.350  17.664  -4.839  1.00139.53     0.031 A 
HETATM    6  C12 MIQ B 502      11.413  18.338  -5.571  1.00139.38     0.030 A 
HETATM    7  C13 MIQ B 502      12.485  17.583  -6.117  1.00141.18     0.019 A 
HETATM    8  C14 MIQ B 502      12.525  16.105  -5.941  1.00138.77     0.033 A 
HETATM    9  C15 MIQ B 502      13.509  14.972  -6.379  1.00142.10     0.195 A 
HETATM   10  N17 MIQ B 502      12.995  13.844  -5.917  1.00139.42    -0.288 N 
HETATM   11  O16 MIQ B 502      14.687  15.125  -7.111  1.00148.93    -0.171 OA
ENDROOT
BRANCH  10  12
HETATM   12  C18 MIQ B 502      13.641  12.566  -6.151  1.00139.82     0.187 C 
HETATM   13  C19 MIQ B 502      12.611  11.632  -6.798  1.00140.06     0.247 C 
HETATM   14  O25 MIQ B 502      12.013  12.003  -7.745  1.00143.95    -0.271 OA
HETATM   15  N20 MIQ B 502      12.355  10.303  -6.283  1.00140.02    -0.296 N 
HETATM   16  H13 MIQ B 502      11.675   9.705  -6.711  1.00142.77     0.171 HD
HETATM   17  C21 MIQ B 502      13.090   9.877  -5.120  1.00142.22     0.224 C 
HETATM   18  C22 MIQ B 502      13.435  10.947  -4.103  1.00139.52     0.106 C 
HETATM   19  O24 MIQ B 502      13.412   8.750  -4.971  1.00146.13    -0.273 OA
HETATM   20  C23 MIQ B 502      14.217  12.014  -4.847  1.00139.15     0.045 C 
ENDBRANCH  10  12
BRANCH   5  21
HETATM   21  N6  MIQ B 502       9.241  18.421  -4.288  1.00140.95    -0.377 N 
HETATM   22  C7  MIQ B 502       8.875  19.677  -4.920  1.00142.12     0.149 C 
HETATM   23  C8  MIQ B 502       8.205  20.632  -3.941  1.00144.10     0.187 C 
HETATM   24  O9  MIQ B 502       7.195  20.024  -3.194  1.00148.65    -0.388 OA
HETATM   25  C10 MIQ B 502       7.031  18.637  -3.222  1.00147.44     0.187 C 
HETATM   26  C11 MIQ B 502       8.260  17.761  -3.444  1.00144.08     0.149 C 
ENDBRANCH   5  21
TORSDOF 2
ENDMDL
MODEL 2
REMARK VINA RESULT:      -6.3     28.836     30.855
REMARK  2 active torsions:
REMARK  status: ('A' for Active; 'I' for Inactive)
REMARK    1  A    between atoms: C5_5  and  N6_21 
REMARK    2  A    between atoms: C18_14  and  N17_19 
ROOT
HETATM    1  O1  MIQ B 502      19.809  -3.346  15.507  1.00142.91    -0.171 OA
HETATM    2  C2  MIQ B 502      19.285  -4.562  15.951  1.00141.17     0.195 A 
HETATM    3  C3  MIQ B 502      19.065  -5.843  15.085  1.00141.71     0.035 A 
HETATM    4  C4  MIQ B 502      19.313  -6.164  13.659  1.00142.86     0.046 A 
HETATM    5  C5  MIQ B 502      19.003  -7.450  13.150  1.00139.53     0.031 A 
HETATM    6  C12 MIQ B 502      18.439  -8.460  14.033  1.00139.38     0.030 A 
HETATM    7  C13 MIQ B 502      18.201  -8.153  15.400  1.00141.18     0.019 A 
HETATM    8  C14 MIQ B 502      18.531  -6.802  15.930  1.00138.77     0.033 A 
HETATM    9  C15 MIQ B 502      18.420  -6.113  17.329  1.00142.10     0.195 A 
HETATM   10  N17 MIQ B 502      18.879  -4.883  17.168  1.00139.42    -0.288 N 
HETATM   11  O16 MIQ B 502      17.931  -6.684  18.505  1.00148.93    -0.171 OA
ENDROOT
BRANCH  10  12
HETATM   12  C18 MIQ B 502      18.912  -3.937  18.267  1.00139.82     0.187 C 
HETATM   13  C19 MIQ B 502      18.189  -2.664  17.811  1.00140.06     0.247 C 
HETATM   14  O25 MIQ B 502      17.112  -2.751  17.338  1.00143.95    -0.271 OA
HETATM   15  N20 MIQ B 502      18.790  -1.353  17.950  1.00140.02    -0.296 N 
HETATM   16  H13 MIQ B 502      18.311  -0.530  17.642  1.00142.77     0.171 HD
HETATM   17  C21 MIQ B 502      20.110  -1.273  18.521  1.00142.22     0.224 C 
HETATM   18  C22 MIQ B 502      21.051  -2.426  18.227  1.00139.52     0.106 C 
HETATM   19  O24 MIQ B 502      20.439  -0.356  19.190  1.00146.13    -0.273 OA
HETATM   20  C23 MIQ B 502      20.353  -3.685  18.709  1.00139.15     0.045 C 
ENDBRANCH  10  12
BRANCH   5  21
HETATM   21  N6  MIQ B 502      19.238  -7.746  11.748  1.00140.95    -0.377 N 
HETATM   22  C7  MIQ B 502      20.458  -8.444  11.380  1.00142.12     0.149 C 
HETATM   23  C8  MIQ B 502      20.886  -8.126   9.953  1.00144.10     0.187 C 
HETATM   24  O9  MIQ B 502      19.839  -8.231   9.035  1.00148.65    -0.388 OA
HETATM   25  C10 MIQ B 502      18.523  -8.381   9.478  1.00147.44     0.187 C 
HETATM   26  C11 MIQ B 502      18.126  -7.759  10.813  1.00144.08     0.149 C 
ENDBRANCH   5  21
TORSDOF 2
ENDMDL
MODEL 3
REMARK VINA RESULT:      -6.0     18.085     20.212
REMARK  2 active torsions:
REMARK  status: ('A' for Active; 'I' for Inactive)
REMARK    1  A    between atoms: C5_5  and  N6_21 
REMARK    2  A    between atoms: C18_14  and  N17_19 
ROOT
HETATM    1  O1  MIQ B 502       5.073  10.205  11.694  1.00142.91    -0.171 OA
HETATM    2  C2  MIQ B 502       5.277  11.552  12.001  1.00141.17     0.195 A 
HETATM    3  C3  MIQ B 502       5.473  12.152  13.430  1.00141.71     0.035 A 
HETATM    4  C4  MIQ B 502       5.509  11.560  14.788  1.00142.86     0.046 A 
HETATM    5  C5  MIQ B 502       5.712  12.383  15.924  1.00139.53     0.031 A 
HETATM    6  C12 MIQ B 502       5.887  13.819  15.754  1.00139.38     0.030 A 
HETATM    7  C13 MIQ B 502       5.853  14.387  14.452  1.00141.18     0.019 A 
HETATM    8  C14 MIQ B 502       5.642  13.517  13.263  1.00138.77     0.033 A 
HETATM    9  C15 MIQ B 502       5.551  13.765  11.722  1.00142.10     0.195 A 
HETATM   10  N17 MIQ B 502       5.350  12.579  11.172  1.00139.42    -0.288 N 
HETATM   11  O16 MIQ B 502       5.657  14.993  11.065  1.00148.93    -0.171 OA
ENDROOT
BRANCH  10  12
HETATM   12  C18 MIQ B 502       5.198  12.425   9.737  1.00139.82     0.187 C 
HETATM   13  C19 MIQ B 502       6.408  13.085   9.065  1.00140.06     0.247 C 
HETATM   14  O25 MIQ B 502       7.494  12.799   9.426  1.00143.95    -0.271 OA
HETATM   15  N20 MIQ B 502       6.256  14.048   7.994  1.00140.02    -0.296 N 
HETATM   16  H13 MIQ B 502       7.054  14.476   7.567  1.00142.77     0.171 HD
HETATM   17  C21 MIQ B 502       4.920  14.388   7.578  1.00142.22     0.224 C 
HETATM   18  C22 MIQ B 502       3.852  14.393   8.654  1.00139.52     0.106 C 
HETATM   19  O24 MIQ B 502       4.670  14.646   6.452  1.00146.13    -0.273 OA
HETATM   20  C23 MIQ B 502       3.863  13.009   9.279  1.00139.15     0.045 C 
ENDBRANCH  10  12
BRANCH   5  21
HETATM   21  N6  MIQ B 502       5.731  11.792  17.250  1.00140.95    -0.377 N 
HETATM   22  C7  MIQ B 502       6.718  12.261  18.206  1.00142.12     0.149 C 
HETATM   23  C8  MIQ B 502       7.060  11.195  19.240  1.00144.10     0.187 C 
HETATM   24  O9  MIQ B 502       5.928  10.595  19.796  1.00148.65    -0.388 OA
HETATM   25  C10 MIQ B 502       4.664  10.826  19.248  1.00147.44     0.187 C 
HETATM   26  C11 MIQ B 502       4.556  11.101  17.752  1.00144.08     0.149 C 
ENDBRANCH   5  21
TORSDOF 2
ENDMDL
MODEL 4
REMARK VINA RESULT:      -6.0      4.487      8.215
REMARK  2 active torsions:
REMARK  status: ('A' for Active; 'I' for Inactive)
REMARK    1  A    between atoms: C5_5  and  N6_21 
REMARK    2  A    between atoms: C18_14  and  N17_19 
ROOT
HETATM    1  O1  MIQ B 502      15.315  12.915  -5.967  1.00142.91    -0.171 OA
HETATM    2  C2  MIQ B 502      14.865  12.698  -4.662  1.00141.17     0.195 A 
HETATM    3  C3  MIQ B 502      15.719  12.821  -3.360  1.00141.71     0.035 A 
HETATM    4  C4  MIQ B 502      17.135  13.173  -3.099  1.00142.86     0.046 A 
HETATM    5  C5  MIQ B 502      17.634  13.202  -1.773  1.00139.53     0.031 A 
HETATM    6  C12 MIQ B 502      16.749  12.885  -0.661  1.00139.38     0.030 A 
HETATM    7  C13 MIQ B 502      15.391  12.549  -0.910  1.00141.18     0.019 A 
HETATM    8  C14 MIQ B 502      14.872  12.522  -2.305  1.00138.77     0.033 A 
HETATM    9  C15 MIQ B 502      13.485  12.213  -2.956  1.00142.10     0.195 A 
HETATM   10  N17 MIQ B 502      13.653  12.358  -4.260  1.00139.42    -0.288 N 
HETATM   11  O16 MIQ B 502      12.311  11.855  -2.291  1.00148.93    -0.171 OA
ENDROOT
BRANCH  10  12
HETATM   12  C18 MIQ B 502      12.565  12.132  -5.193  1.00139.82     0.187 C 
HETATM   13  C19 MIQ B 502      12.999  11.020  -6.157  1.00140.06     0.247 C 
HETATM   14  O25 MIQ B 502      13.420  10.010  -5.718  1.00143.95    -0.271 OA
HETATM   15  N20 MIQ B 502      12.901  11.174  -7.594  1.00140.02    -0.296 N 
HETATM   16  H13 MIQ B 502      13.194  10.444  -8.213  1.00142.77     0.171 HD
HETATM   17  C21 MIQ B 502      12.394  12.421  -8.106  1.00142.22     0.224 C 
HETATM   18  C22 MIQ B 502      12.721  13.669  -7.308  1.00139.52     0.106 C 
HETATM   19  O24 MIQ B 502      11.750  12.467  -9.096  1.00146.13    -0.273 OA
HETATM   20  C23 MIQ B 502      12.195  13.433  -5.904  1.00139.15     0.045 C 
ENDBRANCH  10  12
BRANCH   5  21
HETATM   21  N6  MIQ B 502      19.027  13.534  -1.533  1.00140.95    -0.377 N 
HETATM   22  C7  MIQ B 502      19.818  12.647  -0.698  1.00142.12     0.149 C 
HETATM   23  C8  MIQ B 502      20.968  13.381  -0.019  1.00144.10     0.187 C 
HETATM   24  O9  MIQ B 502      21.698  14.180  -0.900  1.00148.65    -0.388 OA
HETATM   25  C10 MIQ B 502      21.228  14.419  -2.194  1.00147.44     0.187 C 
HETATM   26  C11 MIQ B 502      19.722  14.440  -2.431  1.00144.08     0.149 C 
ENDBRANCH   5  21
TORSDOF 2
ENDMDL
MODEL 5
REMARK VINA RESULT:      -6.0      4.883      7.924
REMARK  2 active torsions:
REMARK  status: ('A' for Active; 'I' for Inactive)
REMARK    1  A    between atoms: C5_5  and  N6_21 
REMARK    2  A    between atoms: C18_14  and  N17_19 
ROOT
HETATM    1  O1  MIQ B 502      14.930  12.042  -4.529  1.00142.91    -0.171 OA
HETATM    2  C2  MIQ B 502      14.337  12.855  -3.560  1.00141.17     0.195 A 
HETATM    3  C3  MIQ B 502      14.982  13.298  -2.208  1.00141.71     0.035 A 
HETATM    4  C4  MIQ B 502      16.294  13.036  -1.570  1.00142.86     0.046 A 
HETATM    5  C5  MIQ B 502      16.598  13.593  -0.302  1.00139.53     0.031 A 
HETATM    6  C12 MIQ B 502      15.616  14.427   0.375  1.00139.38     0.030 A 
HETATM    7  C13 MIQ B 502      14.358  14.679  -0.236  1.00141.18     0.019 A 
HETATM    8  C14 MIQ B 502      14.045  14.093  -1.568  1.00138.77     0.033 A 
HETATM    9  C15 MIQ B 502      12.813  14.145  -2.529  1.00142.10     0.195 A 
HETATM   10  N17 MIQ B 502      13.139  13.413  -3.582  1.00139.42    -0.288 N 
HETATM   11  O16 MIQ B 502      11.613  14.826  -2.314  1.00148.93    -0.171 OA
ENDROOT
BRANCH  10  12
HETATM   12  C18 MIQ B 502      12.218  13.220  -4.686  1.00139.82     0.187 C 
HETATM   13  C19 MIQ B 502      12.128  11.715  -4.963  1.00140.06     0.247 C 
HETATM   14  O25 MIQ B 502      11.905  10.977  -4.070  1.00143.95    -0.271 OA
HETATM   15  N20 MIQ B 502      12.303  11.171  -6.294  1.00140.02    -0.296 N 
HETATM   16  H13 MIQ B 502      12.249  10.186  -6.461  1.00142.77     0.171 HD
HETATM   17  C21 MIQ B 502      12.584  12.091  -7.366  1.00142.22     0.224 C 
HETATM   18  C22 MIQ B 502      13.409  13.315  -7.016  1.00139.52     0.106 C 
HETATM   19  O24 MIQ B 502      12.186  11.902  -8.463  1.00146.13    -0.273 OA
HETATM   20  C23 MIQ B 502      12.667  14.030  -5.901  1.00139.15     0.045 C 
ENDBRANCH  10  12
BRANCH   5  21
HETATM   21  N6  MIQ B 502      17.881  13.316   0.317  1.00140.95    -0.377 N 
HETATM   22  C7  MIQ B 502      19.081  13.418  -0.496  1.00142.12     0.149 C 
HETATM   23  C8  MIQ B 502      20.200  12.526   0.028  1.00144.10     0.187 C 
HETATM   24  O9  MIQ B 502      20.399  12.655   1.404  1.00148.65    -0.388 OA
HETATM   25  C10 MIQ B 502      19.483  13.362   2.188  1.00147.44     0.187 C 
HETATM   26  C11 MIQ B 502      18.018  13.379   1.762  1.00144.08     0.149 C 
ENDBRANCH   5  21
TORSDOF 2
ENDMDL
MODEL 6
REMARK VINA RESULT:      -5.9     17.022     19.607
REMARK  2 active torsions:
REMARK  status: ('A' for Active; 'I' for Inactive)
REMARK    1  A    between atoms: C5_5  and  N6_21 
REMARK    2  A    between atoms: C18_14  and  N17_19 
ROOT
HETATM    1  O1  MIQ B 502       3.633  14.168  10.132  1.00142.91    -0.171 OA
HETATM    2  C2  MIQ B 502       3.268  13.149  11.016  1.00141.17     0.195 A 
HETATM    3  C3  MIQ B 502       1.818  12.635  11.283  1.00141.71     0.035 A 
HETATM    4  C4  MIQ B 502       0.488  13.012  10.747  1.00142.86     0.046 A 
HETATM    5  C5  MIQ B 502      -0.680  12.344  11.194  1.00139.53     0.031 A 
HETATM    6  C12 MIQ B 502      -0.571  11.283  12.185  1.00139.38     0.030 A 
HETATM    7  C13 MIQ B 502       0.703  10.921  12.698  1.00141.18     0.019 A 
HETATM    8  C14 MIQ B 502       1.926  11.624  12.223  1.00138.77     0.033 A 
HETATM    9  C15 MIQ B 502       3.453  11.509  12.541  1.00142.10     0.195 A 
HETATM   10  N17 MIQ B 502       4.052  12.418  11.789  1.00139.42    -0.288 N 
HETATM   11  O16 MIQ B 502       4.056  10.626  13.439  1.00148.93    -0.171 OA
ENDROOT
BRANCH  10  12
HETATM   12  C18 MIQ B 502       5.489  12.610  11.834  1.00139.82     0.187 C 
HETATM   13  C19 MIQ B 502       5.755  14.104  12.054  1.00140.06     0.247 C 
HETATM   14  O25 MIQ B 502       5.209  14.663  12.938  1.00143.95    -0.271 OA
HETATM   15  N20 MIQ B 502       6.665  14.851  11.209  1.00140.02    -0.296 N 
HETATM   16  H13 MIQ B 502       6.824  15.828  11.359  1.00142.77     0.171 HD
HETATM   17  C21 MIQ B 502       7.312  14.150  10.130  1.00142.22     0.224 C 
HETATM   18  C22 MIQ B 502       6.519  13.041   9.465  1.00139.52     0.106 C 
HETATM   19  O24 MIQ B 502       8.409  14.423   9.786  1.00146.13    -0.273 OA
HETATM   20  C23 MIQ B 502       6.139  12.065  10.563  1.00139.15     0.045 C 
ENDBRANCH  10  12
BRANCH   5  21
HETATM   21  N6  MIQ B 502      -1.977  12.733  10.671  1.00140.95    -0.377 N 
HETATM   22  C7  MIQ B 502      -2.901  13.427  11.551  1.00142.12     0.149 C 
HETATM   23  C8  MIQ B 502      -4.352  13.202  11.145  1.00144.10     0.187 C 
HETATM   24  O9  MIQ B 502      -4.569  13.395   9.779  1.00148.65    -0.388 OA
HETATM   25  C10 MIQ B 502      -3.490  13.544   8.904  1.00147.44     0.187 C 
HETATM   26  C11 MIQ B 502      -2.180  12.838   9.237  1.00144.08     0.149 C 
ENDBRANCH   5  21
TORSDOF 2
ENDMDL
MODEL 7
REMARK VINA RESULT:      -5.9      6.091      9.003
REMARK  2 active torsions:
REMARK  status: ('A' for Active; 'I' for Inactive)
REMARK    1  A    between atoms: C5_5  and  N6_21 
REMARK    2  A    between atoms: C18_14  and  N17_19 
ROOT
HETATM    1  O1  MIQ B 502      15.732  13.643  -3.193  1.00142.91    -0.171 OA
HETATM    2  C2  MIQ B 502      15.078  13.273  -2.016  1.00141.17     0.195 A 
HETATM    3  C3  MIQ B 502      15.714  13.200  -0.591  1.00141.71     0.035 A 
HETATM    4  C4  MIQ B 502      17.074  13.473  -0.067  1.00142.86     0.046 A 
HETATM    5  C5  MIQ B 502      17.354  13.315   1.314  1.00139.53     0.031 A 
HETATM    6  C12 MIQ B 502      16.300  12.883   2.221  1.00139.38     0.030 A 
HETATM    7  C13 MIQ B 502      14.997  12.622   1.719  1.00141.18     0.019 A 
HETATM    8  C14 MIQ B 502      14.707  12.792   0.269  1.00138.77     0.033 A 
HETATM    9  C15 MIQ B 502      13.439  12.611  -0.627  1.00142.10     0.195 A 
HETATM   10  N17 MIQ B 502      13.814  12.919  -1.858  1.00139.42    -0.288 N 
HETATM   11  O16 MIQ B 502      12.171  12.205  -0.209  1.00148.93    -0.171 OA
ENDROOT
BRANCH  10  12
HETATM   12  C18 MIQ B 502      12.887  12.848  -2.972  1.00139.82     0.187 C 
HETATM   13  C19 MIQ B 502      13.566  12.055  -4.096  1.00140.06     0.247 C 
HETATM   14  O25 MIQ B 502      14.043  11.004  -3.852  1.00143.95    -0.271 OA
HETATM   15  N20 MIQ B 502      13.635  12.559  -5.452  1.00140.02    -0.296 N 
HETATM   16  H13 MIQ B 502      14.087  12.034  -6.175  1.00142.77     0.171 HD
HETATM   17  C21 MIQ B 502      13.055  13.849  -5.723  1.00142.22     0.224 C 
HETATM   18  C22 MIQ B 502      13.131  14.877  -4.610  1.00139.52     0.106 C 
HETATM   19  O24 MIQ B 502      12.542  14.091  -6.760  1.00146.13    -0.273 OA
HETATM   20  C23 MIQ B 502      12.462  14.252  -3.400  1.00139.15     0.045 C 
ENDBRANCH  10  12
BRANCH   5  21
HETATM   21  N6  MIQ B 502      18.694  13.571   1.811  1.00140.95    -0.377 N 
HETATM   22  C7  MIQ B 502      19.297  14.866   1.547  1.00142.12     0.149 C 
HETATM   23  C8  MIQ B 502      20.818  14.790   1.523  1.00144.10     0.187 C 
HETATM   24  O9  MIQ B 502      21.345  14.098   2.616  1.00148.65    -0.388 OA
HETATM   25  C10 MIQ B 502      20.505  13.378   3.469  1.00147.44     0.187 C 
HETATM   26  C11 MIQ B 502      19.232  12.766   2.894  1.00144.08     0.149 C 
ENDBRANCH   5  21
TORSDOF 2
ENDMDL
MODEL 8
REMARK VINA RESULT:      -5.9     29.094     30.965
REMARK  2 active torsions:
REMARK  status: ('A' for Active; 'I' for Inactive)
REMARK    1  A    between atoms: C5_5  and  N6_21 
REMARK    2  A    between atoms: C18_14  and  N17_19 
ROOT
HETATM    1  O1  MIQ B 502      20.309  -2.450  14.747  1.00142.91    -0.171 OA
HETATM    2  C2  MIQ B 502      19.853  -3.499  15.548  1.00141.17     0.195 A 
HETATM    3  C3  MIQ B 502      19.465  -4.931  15.058  1.00141.71     0.035 A 
HETATM    4  C4  MIQ B 502      19.453  -5.584  13.727  1.00142.86     0.046 A 
HETATM    5  C5  MIQ B 502      19.039  -6.934  13.595  1.00139.53     0.031 A 
HETATM    6  C12 MIQ B 502      18.623  -7.681  14.774  1.00139.38     0.030 A 
HETATM    7  C13 MIQ B 502      18.635  -7.055  16.050  1.00141.18     0.019 A 
HETATM    8  C14 MIQ B 502      19.073  -5.638  16.182  1.00138.77     0.033 A 
HETATM    9  C15 MIQ B 502      19.220  -4.641  17.378  1.00142.10     0.195 A 
HETATM   10  N17 MIQ B 502      19.663  -3.509  16.856  1.00139.42    -0.288 N 
HETATM   11  O16 MIQ B 502      18.938  -4.898  18.720  1.00148.93    -0.171 OA
ENDROOT
BRANCH  10  12
HETATM   12  C18 MIQ B 502      19.904  -2.339  17.679  1.00139.82     0.187 C 
HETATM   13  C19 MIQ B 502      20.864  -2.747  18.803  1.00140.06     0.247 C 
HETATM   14  O25 MIQ B 502      21.866  -3.307  18.530  1.00143.95    -0.271 OA
HETATM   15  N20 MIQ B 502      20.578  -2.459  20.194  1.00140.02    -0.296 N 
HETATM   16  H13 MIQ B 502      21.210  -2.737  20.919  1.00142.77     0.171 HD
HETATM   17  C21 MIQ B 502      19.344  -1.784  20.503  1.00142.22     0.224 C 
HETATM   18  C22 MIQ B 502      18.156  -2.096  19.614  1.00139.52     0.106 C 
HETATM   19  O24 MIQ B 502      19.266  -1.022  21.403  1.00146.13    -0.273 OA
HETATM   20  C23 MIQ B 502      18.583  -1.770  18.194  1.00139.15     0.045 C 
ENDBRANCH  10  12
BRANCH   5  21
HETATM   21  N6  MIQ B 502      19.019  -7.557  12.285  1.00140.95    -0.377 N 
HETATM   22  C7  MIQ B 502      20.241  -8.160  11.783  1.00142.12     0.149 C 
HETATM   23  C8  MIQ B 502      20.284  -8.178  10.260  1.00144.10     0.187 C 
HETATM   24  O9  MIQ B 502      19.103  -8.659   9.690  1.00148.65    -0.388 OA
HETATM   25  C10 MIQ B 502      17.967  -8.859  10.478  1.00147.44     0.187 C 
HETATM   26  C11 MIQ B 502      17.755  -7.963  11.694  1.00144.08     0.149 C 
ENDBRANCH   5  21
TORSDOF 2
ENDMDL
MODEL 9
REMARK VINA RESULT:      -5.9      6.356      8.957
REMARK  2 active torsions:
REMARK  status: ('A' for Active; 'I' for Inactive)
REMARK    1  A    between atoms: C5_5  and  N6_21 
REMARK    2  A    between atoms: C18_14  and  N17_19 
ROOT
HETATM    1  O1  MIQ B 502      18.358  13.418  -1.344  1.00142.91    -0.171 OA
HETATM    2  C2  MIQ B 502      17.207  13.401  -0.553  1.00141.17     0.195 A 
HETATM    3  C3  MIQ B 502      15.761  13.060  -1.035  1.00141.71     0.035 A 
HETATM    4  C4  MIQ B 502      15.188  12.679  -2.348  1.00142.86     0.046 A 
HETATM    5  C5  MIQ B 502      13.799  12.423  -2.476  1.00139.53     0.031 A 
HETATM    6  C12 MIQ B 502      12.933  12.536  -1.312  1.00139.38     0.030 A 
HETATM    7  C13 MIQ B 502      13.482  12.900  -0.053  1.00141.18     0.019 A 
HETATM    8  C14 MIQ B 502      14.941  13.165   0.077  1.00138.77     0.033 A 
HETATM    9  C15 MIQ B 502      15.884  13.573   1.256  1.00142.10     0.195 A 
HETATM   10  N17 MIQ B 502      17.099  13.658   0.739  1.00139.42    -0.288 N 
HETATM   11  O16 MIQ B 502      15.512  13.802   2.582  1.00148.93    -0.171 OA
ENDROOT
BRANCH  10  12
HETATM   12  C18 MIQ B 502      18.241  14.035   1.550  1.00139.82     0.187 C 
HETATM   13  C19 MIQ B 502      18.942  15.208   0.854  1.00140.06     0.247 C 
HETATM   14  O25 MIQ B 502      18.306  16.146   0.527  1.00143.95    -0.271 OA
HETATM   15  N20 MIQ B 502      20.367  15.201   0.592  1.00140.02    -0.296 N 
HETATM   16  H13 MIQ B 502      20.811  15.970   0.131  1.00142.77     0.171 HD
HETATM   17  C21 MIQ B 502      21.120  14.040   0.992  1.00142.22     0.224 C 
HETATM   18  C22 MIQ B 502      20.406  12.705   0.914  1.00139.52     0.106 C 
HETATM   19  O24 MIQ B 502      22.237  14.128   1.367  1.00146.13    -0.273 OA
HETATM   20  C23 MIQ B 502      19.158  12.832   1.769  1.00139.15     0.045 C 
ENDBRANCH  10  12
BRANCH   5  21
HETATM   21  N6  MIQ B 502      13.249  12.065  -3.771  1.00140.95    -0.377 N 
HETATM   22  C7  MIQ B 502      12.665  10.745  -3.937  1.00142.12     0.149 C 
HETATM   23  C8  MIQ B 502      12.730  10.273  -5.383  1.00144.10     0.187 C 
HETATM   24  O9  MIQ B 502      12.289  11.238  -6.291  1.00148.65    -0.388 OA
HETATM   25  C10 MIQ B 502      12.055  12.550  -5.870  1.00147.44     0.187 C 
HETATM   26  C11 MIQ B 502      12.884  13.105  -4.717  1.00144.08     0.149 C 
ENDBRANCH   5  21
TORSDOF 2
ENDMDL
