MODEL 1
REMARK VINA RESULT:      -7.9      0.000      0.000
REMARK  2 active torsions:
REMARK  status: ('A' for Active; 'I' for Inactive)
REMARK    1  A    between atoms: C5_5  and  N6_21 
REMARK    2  A    between atoms: C18_14  and  N17_19 
ROOT
HETATM    1  O1  MIQ B 502      23.053   3.253   4.230  1.00142.91    -0.171 OA
HETATM    2  C2  MIQ B 502      24.090   2.717   3.462  1.00141.17     0.195 A 
HETATM    3  C3  MIQ B 502      24.080   2.513   1.913  1.00141.71     0.035 A 
HETATM    4  C4  MIQ B 502      23.080   2.791   0.855  1.00142.86     0.046 A 
HETATM    5  C5  MIQ B 502      23.367   2.489  -0.500  1.00139.53     0.031 A 
HETATM    6  C12 MIQ B 502      24.653   1.904  -0.853  1.00139.38     0.030 A 
HETATM    7  C13 MIQ B 502      25.613   1.639   0.161  1.00141.18     0.019 A 
HETATM    8  C14 MIQ B 502      25.306   1.960   1.582  1.00138.77     0.033 A 
HETATM    9  C15 MIQ B 502      26.082   1.820   2.932  1.00142.10     0.195 A 
HETATM   10  N17 MIQ B 502      25.271   2.286   3.869  1.00139.42    -0.288 N 
HETATM   11  O16 MIQ B 502      27.367   1.306   3.109  1.00148.93    -0.171 OA
ENDROOT
BRANCH  10  12
HETATM   12  C18 MIQ B 502      25.658   2.298   5.267  1.00139.82     0.187 C 
HETATM   13  C19 MIQ B 502      24.601   1.510   6.051  1.00140.06     0.247 C 
HETATM   14  O25 MIQ B 502      24.301   0.429   5.687  1.00143.95    -0.271 OA
HETATM   15  N20 MIQ B 502      23.964   2.054   7.233  1.00140.02    -0.296 N 
HETATM   16  H13 MIQ B 502      23.270   1.532   7.732  1.00142.77     0.171 HD
HETATM   17  C21 MIQ B 502      24.339   3.380   7.652  1.00142.22     0.224 C 
HETATM   18  C22 MIQ B 502      24.697   4.365   6.556  1.00139.52     0.106 C 
HETATM   19  O24 MIQ B 502      24.372   3.680   8.795  1.00146.13    -0.273 OA
HETATM   20  C23 MIQ B 502      25.825   3.734   5.760  1.00139.15     0.045 C 
ENDBRANCH  10  12
BRANCH   5  21
HETATM   21  N6  MIQ B 502      22.373   2.753  -1.524  1.00140.95    -0.377 N 
HETATM   22  C7  MIQ B 502      21.210   3.550  -1.174  1.00142.12     0.149 C 
HETATM   23  C8  MIQ B 502      20.010   3.221  -2.053  1.00144.10     0.187 C 
HETATM   24  O9  MIQ B 502      20.324   3.189  -3.413  1.00148.65    -0.388 OA
HETATM   25  C10 MIQ B 502      21.657   3.229  -3.832  1.00147.44     0.187 C 
HETATM   26  C11 MIQ B 502      22.724   2.623  -2.927  1.00144.08     0.149 C 
ENDBRANCH   5  21
TORSDOF 2
ENDMDL
MODEL 2
REMARK VINA RESULT:      -7.7      1.493      2.003
REMARK  2 active torsions:
REMARK  status: ('A' for Active; 'I' for Inactive)
REMARK    1  A    between atoms: C5_5  and  N6_21 
REMARK    2  A    between atoms: C18_14  and  N17_19 
ROOT
HETATM    1  O1  MIQ B 502      25.174   5.157   2.431  1.00142.91    -0.171 OA
HETATM    2  C2  MIQ B 502      24.667   3.895   2.748  1.00141.17     0.195 A 
HETATM    3  C3  MIQ B 502      23.807   2.986   1.813  1.00141.71     0.035 A 
HETATM    4  C4  MIQ B 502      23.299   3.138   0.429  1.00142.86     0.046 A 
HETATM    5  C5  MIQ B 502      22.524   2.112  -0.167  1.00139.53     0.031 A 
HETATM    6  C12 MIQ B 502      22.227   0.901   0.585  1.00139.38     0.030 A 
HETATM    7  C13 MIQ B 502      22.715   0.754   1.912  1.00141.18     0.019 A 
HETATM    8  C14 MIQ B 502      23.530   1.834   2.532  1.00138.77     0.033 A 
HETATM    9  C15 MIQ B 502      24.222   2.029   3.920  1.00142.10     0.195 A 
HETATM   10  N17 MIQ B 502      24.807   3.215   3.873  1.00139.42    -0.288 N 
HETATM   11  O16 MIQ B 502      24.219   1.132   4.989  1.00148.93    -0.171 OA
ENDROOT
BRANCH  10  12
HETATM   12  C18 MIQ B 502      25.542   3.743   5.008  1.00139.82     0.187 C 
HETATM   13  C19 MIQ B 502      26.494   2.646   5.499  1.00140.06     0.247 C 
HETATM   14  O25 MIQ B 502      27.204   2.110   4.725  1.00143.95    -0.271 OA
HETATM   15  N20 MIQ B 502      26.550   2.251   6.892  1.00140.02    -0.296 N 
HETATM   16  H13 MIQ B 502      27.171   1.529   7.199  1.00142.77     0.171 HD
HETATM   17  C21 MIQ B 502      25.665   2.912   7.816  1.00142.22     0.224 C 
HETATM   18  C22 MIQ B 502      24.309   3.330   7.281  1.00139.52     0.106 C 
HETATM   19  O24 MIQ B 502      25.984   3.121   8.935  1.00146.13    -0.273 OA
HETATM   20  C23 MIQ B 502      24.576   4.229   6.087  1.00139.15     0.045 C 
ENDBRANCH  10  12
BRANCH   5  21
HETATM   21  N6  MIQ B 502      22.021   2.281  -1.518  1.00140.95    -0.377 N 
HETATM   22  C7  MIQ B 502      20.621   2.626  -1.700  1.00142.12     0.149 C 
HETATM   23  C8  MIQ B 502      20.089   2.152  -3.046  1.00144.10     0.187 C 
HETATM   24  O9  MIQ B 502      20.928   2.486  -4.110  1.00148.65    -0.388 OA
HETATM   25  C10 MIQ B 502      22.210   2.988  -3.870  1.00147.44     0.187 C 
HETATM   26  C11 MIQ B 502      22.943   2.542  -2.609  1.00144.08     0.149 C 
ENDBRANCH   5  21
TORSDOF 2
ENDMDL
MODEL 3
REMARK VINA RESULT:      -7.5      2.378      8.065
REMARK  2 active torsions:
REMARK  status: ('A' for Active; 'I' for Inactive)
REMARK    1  A    between atoms: C5_5  and  N6_21 
REMARK    2  A    between atoms: C18_14  and  N17_19 
ROOT
HETATM    1  O1  MIQ B 502      23.140   3.529   0.060  1.00142.91    -0.171 OA
HETATM    2  C2  MIQ B 502      23.004   2.223   0.537  1.00141.17     0.195 A 
HETATM    3  C3  MIQ B 502      23.376   1.721   1.968  1.00141.71     0.035 A 
HETATM    4  C4  MIQ B 502      23.934   2.387   3.169  1.00142.86     0.046 A 
HETATM    5  C5  MIQ B 502      24.168   1.647   4.356  1.00139.53     0.031 A 
HETATM    6  C12 MIQ B 502      23.858   0.225   4.394  1.00139.38     0.030 A 
HETATM    7  C13 MIQ B 502      23.322  -0.414   3.243  1.00141.18     0.019 A 
HETATM    8  C14 MIQ B 502      23.076   0.369   2.001  1.00138.77     0.033 A 
HETATM    9  C15 MIQ B 502      22.513   0.030   0.582  1.00142.10     0.195 A 
HETATM   10  N17 MIQ B 502      22.538   1.163  -0.101  1.00139.42    -0.288 N 
HETATM   11  O16 MIQ B 502      22.077  -1.217   0.132  1.00148.93    -0.171 OA
ENDROOT
BRANCH  10  12
HETATM   12  C18 MIQ B 502      22.097   1.224  -1.482  1.00139.82     0.187 C 
HETATM   13  C19 MIQ B 502      23.302   1.628  -2.340  1.00140.06     0.247 C 
HETATM   14  O25 MIQ B 502      24.315   1.034  -2.228  1.00143.95    -0.271 OA
HETATM   15  N20 MIQ B 502      23.231   2.718  -3.292  1.00140.02    -0.296 N 
HETATM   16  H13 MIQ B 502      24.027   2.976  -3.841  1.00142.77     0.171 HD
HETATM   17  C21 MIQ B 502      21.987   3.436  -3.403  1.00142.22     0.224 C 
HETATM   18  C22 MIQ B 502      21.170   3.585  -2.134  1.00139.52     0.106 C 
HETATM   19  O24 MIQ B 502      21.621   3.881  -4.435  1.00146.13    -0.273 OA
HETATM   20  C23 MIQ B 502      20.913   2.180  -1.619  1.00139.15     0.045 C 
ENDBRANCH  10  12
BRANCH   5  21
HETATM   21  N6  MIQ B 502      24.729   2.309   5.519  1.00140.95    -0.377 N 
HETATM   22  C7  MIQ B 502      26.174   2.414   5.630  1.00142.12     0.149 C 
HETATM   23  C8  MIQ B 502      26.628   2.511   7.081  1.00144.10     0.187 C 
HETATM   24  O9  MIQ B 502      25.903   3.451   7.815  1.00148.65    -0.388 OA
HETATM   25  C10 MIQ B 502      24.750   4.031   7.280  1.00147.44     0.187 C 
HETATM   26  C11 MIQ B 502      23.909   3.216   6.304  1.00144.08     0.149 C 
ENDBRANCH   5  21
TORSDOF 2
ENDMDL
MODEL 4
REMARK VINA RESULT:      -7.4     25.653     29.189
REMARK  2 active torsions:
REMARK  status: ('A' for Active; 'I' for Inactive)
REMARK    1  A    between atoms: C5_5  and  N6_21 
REMARK    2  A    between atoms: C18_14  and  N17_19 
ROOT
HETATM    1  O1  MIQ B 502       2.584  17.839  -5.527  1.00142.91    -0.171 OA
HETATM    2  C2  MIQ B 502       3.111  19.074  -5.909  1.00141.17     0.195 A 
HETATM    3  C3  MIQ B 502       2.916  20.431  -5.160  1.00141.71     0.035 A 
HETATM    4  C4  MIQ B 502       2.191  20.820  -3.927  1.00142.86     0.046 A 
HETATM    5  C5  MIQ B 502       2.199  22.167  -3.485  1.00139.53     0.031 A 
HETATM    6  C12 MIQ B 502       2.924  23.173  -4.248  1.00139.38     0.030 A 
HETATM    7  C13 MIQ B 502       3.620  22.801  -5.429  1.00141.18     0.019 A 
HETATM    8  C14 MIQ B 502       3.611  21.384  -5.887  1.00138.77     0.033 A 
HETATM    9  C15 MIQ B 502       4.240  20.615  -7.094  1.00142.10     0.195 A 
HETATM   10  N17 MIQ B 502       3.870  19.352  -6.955  1.00139.42    -0.288 N 
HETATM   11  O16 MIQ B 502       5.029  21.156  -8.110  1.00148.93    -0.171 OA
ENDROOT
BRANCH  10  12
HETATM   12  C18 MIQ B 502       4.263  18.338  -7.915  1.00139.82     0.187 C 
HETATM   13  C19 MIQ B 502       3.002  17.565  -8.321  1.00140.06     0.247 C 
HETATM   14  O25 MIQ B 502       2.049  18.163  -8.677  1.00143.95    -0.271 OA
HETATM   15  N20 MIQ B 502       2.949  16.118  -8.285  1.00140.02    -0.296 N 
HETATM   16  H13 MIQ B 502       2.117  15.625  -8.547  1.00142.77     0.171 HD
HETATM   17  C21 MIQ B 502       4.120  15.411  -7.837  1.00142.22     0.224 C 
HETATM   18  C22 MIQ B 502       4.958  16.088  -6.770  1.00139.52     0.106 C 
HETATM   19  O24 MIQ B 502       4.415  14.357  -8.285  1.00146.13    -0.273 OA
HETATM   20  C23 MIQ B 502       5.353  17.443  -7.328  1.00139.15     0.045 C 
ENDBRANCH  10  12
BRANCH   5  21
HETATM   21  N6  MIQ B 502       1.472  22.536  -2.284  1.00140.95    -0.377 N 
HETATM   22  C7  MIQ B 502       1.448  21.602  -1.172  1.00142.12     0.149 C 
HETATM   23  C8  MIQ B 502       0.207  21.779  -0.307  1.00144.10     0.187 C 
HETATM   24  O9  MIQ B 502      -0.035  23.113   0.029  1.00148.65    -0.388 OA
HETATM   25  C10 MIQ B 502       0.683  24.140  -0.589  1.00147.44     0.187 C 
HETATM   26  C11 MIQ B 502       1.168  23.932  -2.020  1.00144.08     0.149 C 
ENDBRANCH   5  21
TORSDOF 2
ENDMDL
MODEL 5
REMARK VINA RESULT:      -7.2      2.149      8.228
REMARK  2 active torsions:
REMARK  status: ('A' for Active; 'I' for Inactive)
REMARK    1  A    between atoms: C5_5  and  N6_21 
REMARK    2  A    between atoms: C18_14  and  N17_19 
ROOT
HETATM    1  O1  MIQ B 502      23.276  -0.543   1.545  1.00142.91    -0.171 OA
HETATM    2  C2  MIQ B 502      23.248   0.853   1.549  1.00141.17     0.195 A 
HETATM    3  C3  MIQ B 502      23.554   1.778   2.770  1.00141.71     0.035 A 
HETATM    4  C4  MIQ B 502      23.938   1.514   4.177  1.00142.86     0.046 A 
HETATM    5  C5  MIQ B 502      24.155   2.590   5.075  1.00139.53     0.031 A 
HETATM    6  C12 MIQ B 502      24.001   3.961   4.610  1.00139.38     0.030 A 
HETATM    7  C13 MIQ B 502      23.634   4.214   3.261  1.00141.18     0.019 A 
HETATM    8  C14 MIQ B 502      23.409   3.081   2.322  1.00138.77     0.033 A 
HETATM    9  C15 MIQ B 502      23.012   2.964   0.815  1.00142.10     0.195 A 
HETATM   10  N17 MIQ B 502      22.969   1.669   0.547  1.00139.42    -0.288 N 
HETATM   11  O16 MIQ B 502      22.753   4.017  -0.065  1.00148.93    -0.171 OA
ENDROOT
BRANCH  10  12
HETATM   12  C18 MIQ B 502      22.614   1.180  -0.772  1.00139.82     0.187 C 
HETATM   13  C19 MIQ B 502      23.687   1.662  -1.755  1.00140.06     0.247 C 
HETATM   14  O25 MIQ B 502      24.824   1.469  -1.506  1.00143.95    -0.271 OA
HETATM   15  N20 MIQ B 502      23.345   2.343  -2.987  1.00140.02    -0.296 N 
HETATM   16  H13 MIQ B 502      24.056   2.658  -3.617  1.00142.77     0.171 HD
HETATM   17  C21 MIQ B 502      21.951   2.575  -3.264  1.00142.22     0.224 C 
HETATM   18  C22 MIQ B 502      21.053   2.834  -2.069  1.00139.52     0.106 C 
HETATM   19  O24 MIQ B 502      21.529   2.558  -4.368  1.00146.13    -0.273 OA
HETATM   20  C23 MIQ B 502      21.205   1.638  -1.147  1.00139.15     0.045 C 
ENDBRANCH  10  12
BRANCH   5  21
HETATM   21  N6  MIQ B 502      24.516   2.317   6.454  1.00140.95    -0.377 N 
HETATM   22  C7  MIQ B 502      24.375   3.381   7.433  1.00142.12     0.149 C 
HETATM   23  C8  MIQ B 502      25.335   3.209   8.602  1.00144.10     0.187 C 
HETATM   24  O9  MIQ B 502      25.331   1.914   9.124  1.00148.65    -0.388 OA
HETATM   25  C10 MIQ B 502      24.672   0.882   8.450  1.00147.44     0.187 C 
HETATM   26  C11 MIQ B 502      24.581   0.946   6.929  1.00144.08     0.149 C 
ENDBRANCH   5  21
TORSDOF 2
ENDMDL
MODEL 6
REMARK VINA RESULT:      -7.2      1.767      2.507
REMARK  2 active torsions:
REMARK  status: ('A' for Active; 'I' for Inactive)
REMARK    1  A    between atoms: C5_5  and  N6_21 
REMARK    2  A    between atoms: C18_14  and  N17_19 
ROOT
HETATM    1  O1  MIQ B 502      23.829   0.021   4.156  1.00142.91    -0.171 OA
HETATM    2  C2  MIQ B 502      23.989   1.408   4.205  1.00141.17     0.195 A 
HETATM    3  C3  MIQ B 502      23.620   2.419   3.073  1.00141.71     0.035 A 
HETATM    4  C4  MIQ B 502      23.037   2.266   1.719  1.00142.86     0.046 A 
HETATM    5  C5  MIQ B 502      22.811   3.403   0.903  1.00139.53     0.031 A 
HETATM    6  C12 MIQ B 502      23.153   4.728   1.399  1.00139.38     0.030 A 
HETATM    7  C13 MIQ B 502      23.711   4.876   2.697  1.00141.18     0.019 A 
HETATM    8  C14 MIQ B 502      23.944   3.679   3.551  1.00138.77     0.033 A 
HETATM    9  C15 MIQ B 502      24.517   3.448   4.987  1.00142.10     0.195 A 
HETATM   10  N17 MIQ B 502      24.469   2.142   5.193  1.00139.42    -0.288 N 
HETATM   11  O16 MIQ B 502      24.984   4.425   5.868  1.00148.93    -0.171 OA
ENDROOT
BRANCH  10  12
HETATM   12  C18 MIQ B 502      24.942   1.553   6.433  1.00139.82     0.187 C 
HETATM   13  C19 MIQ B 502      24.352   2.367   7.591  1.00140.06     0.247 C 
HETATM   14  O25 MIQ B 502      23.191   2.575   7.617  1.00143.95    -0.271 OA
HETATM   15  N20 MIQ B 502      25.181   2.884   8.661  1.00140.02    -0.296 N 
HETATM   16  H13 MIQ B 502      24.785   3.420   9.408  1.00142.77     0.171 HD
HETATM   17  C21 MIQ B 502      26.597   2.626   8.602  1.00142.22     0.224 C 
HETATM   18  C22 MIQ B 502      27.222   2.570   7.222  1.00139.52     0.106 C 
HETATM   19  O24 MIQ B 502      27.236   2.461   9.582  1.00146.13    -0.273 OA
HETATM   20  C23 MIQ B 502      26.469   1.503   6.450  1.00139.15     0.045 C 
ENDBRANCH  10  12
BRANCH   5  21
HETATM   21  N6  MIQ B 502      22.253   3.236  -0.427  1.00140.95    -0.377 N 
HETATM   22  C7  MIQ B 502      21.125   4.065  -0.816  1.00142.12     0.149 C 
HETATM   23  C8  MIQ B 502      20.267   3.395  -1.881  1.00144.10     0.187 C 
HETATM   24  O9  MIQ B 502      21.019   2.875  -2.937  1.00148.65    -0.388 OA
HETATM   25  C10 MIQ B 502      22.411   2.804  -2.847  1.00147.44     0.187 C 
HETATM   26  C11 MIQ B 502      23.044   2.611  -1.472  1.00144.08     0.149 C 
ENDBRANCH   5  21
TORSDOF 2
ENDMDL
MODEL 7
REMARK VINA RESULT:      -7.1      2.189      7.929
REMARK  2 active torsions:
REMARK  status: ('A' for Active; 'I' for Inactive)
REMARK    1  A    between atoms: C5_5  and  N6_21 
REMARK    2  A    between atoms: C18_14  and  N17_19 
ROOT
HETATM    1  O1  MIQ B 502      22.114   2.681   0.559  1.00142.91    -0.171 OA
HETATM    2  C2  MIQ B 502      23.027   1.652   0.798  1.00141.17     0.195 A 
HETATM    3  C3  MIQ B 502      23.735   1.344   2.157  1.00141.71     0.035 A 
HETATM    4  C4  MIQ B 502      23.679   1.970   3.499  1.00142.86     0.046 A 
HETATM    5  C5  MIQ B 502      24.457   1.451   4.564  1.00139.53     0.031 A 
HETATM    6  C12 MIQ B 502      25.315   0.297   4.337  1.00139.38     0.030 A 
HETATM    7  C13 MIQ B 502      25.368  -0.303   3.050  1.00141.18     0.019 A 
HETATM    8  C14 MIQ B 502      24.547   0.244   1.936  1.00138.77     0.033 A 
HETATM    9  C15 MIQ B 502      24.342  -0.134   0.433  1.00142.10     0.195 A 
HETATM   10  N17 MIQ B 502      23.472   0.739  -0.048  1.00139.42    -0.288 N 
HETATM   11  O16 MIQ B 502      24.958  -1.180  -0.257  1.00148.93    -0.171 OA
ENDROOT
BRANCH  10  12
HETATM   12  C18 MIQ B 502      23.051   0.702  -1.436  1.00139.82     0.187 C 
HETATM   13  C19 MIQ B 502      23.264   2.101  -2.026  1.00140.06     0.247 C 
HETATM   14  O25 MIQ B 502      24.312   2.627  -1.898  1.00143.95    -0.271 OA
HETATM   15  N20 MIQ B 502      22.215   2.795  -2.744  1.00140.02    -0.296 N 
HETATM   16  H13 MIQ B 502      22.364   3.711  -3.119  1.00142.77     0.171 HD
HETATM   17  C21 MIQ B 502      20.941   2.137  -2.879  1.00142.22     0.224 C 
HETATM   18  C22 MIQ B 502      20.507   1.250  -1.728  1.00139.52     0.106 C 
HETATM   19  O24 MIQ B 502      20.271   2.279  -3.842  1.00146.13    -0.273 OA
HETATM   20  C23 MIQ B 502      21.606   0.219  -1.540  1.00139.15     0.045 C 
ENDBRANCH  10  12
BRANCH   5  21
HETATM   21  N6  MIQ B 502      24.404   2.083   5.870  1.00140.95    -0.377 N 
HETATM   22  C7  MIQ B 502      24.030   3.484   5.949  1.00142.12     0.149 C 
HETATM   23  C8  MIQ B 502      24.615   4.160   7.183  1.00144.10     0.187 C 
HETATM   24  O9  MIQ B 502      24.416   3.423   8.352  1.00148.65    -0.388 OA
HETATM   25  C10 MIQ B 502      23.938   2.112   8.289  1.00147.44     0.187 C 
HETATM   26  C11 MIQ B 502      24.283   1.267   7.066  1.00144.08     0.149 C 
ENDBRANCH   5  21
TORSDOF 2
ENDMDL
MODEL 8
REMARK VINA RESULT:      -6.6      2.138      8.065
REMARK  2 active torsions:
REMARK  status: ('A' for Active; 'I' for Inactive)
REMARK    1  A    between atoms: C5_5  and  N6_21 
REMARK    2  A    between atoms: C18_14  and  N17_19 
ROOT
HETATM    1  O1  MIQ B 502      22.440   1.790   2.733  1.00142.91    -0.171 OA
HETATM    2  C2  MIQ B 502      23.835   1.762   2.797  1.00141.17     0.195 A 
HETATM    3  C3  MIQ B 502      24.696   1.565   4.085  1.00141.71     0.035 A 
HETATM    4  C4  MIQ B 502      24.360   1.360   5.514  1.00142.86     0.046 A 
HETATM    5  C5  MIQ B 502      25.388   1.207   6.478  1.00139.53     0.031 A 
HETATM    6  C12 MIQ B 502      26.782   1.250   6.060  1.00139.38     0.030 A 
HETATM    7  C13 MIQ B 502      27.105   1.445   4.690  1.00141.18     0.019 A 
HETATM    8  C14 MIQ B 502      26.021   1.603   3.682  1.00138.77     0.033 A 
HETATM    9  C15 MIQ B 502      25.982   1.825   2.135  1.00142.10     0.195 A 
HETATM   10  N17 MIQ B 502      24.702   1.888   1.807  1.00139.42    -0.288 N 
HETATM   11  O16 MIQ B 502      27.079   1.936   1.279  1.00148.93    -0.171 OA
ENDROOT
BRANCH  10  12
HETATM   12  C18 MIQ B 502      24.282   2.105   0.435  1.00139.82     0.187 C 
HETATM   13  C19 MIQ B 502      23.315   3.296   0.425  1.00140.06     0.247 C 
HETATM   14  O25 MIQ B 502      23.635   4.302   0.953  1.00143.95    -0.271 OA
HETATM   15  N20 MIQ B 502      22.020   3.223  -0.219  1.00140.02    -0.296 N 
HETATM   16  H13 MIQ B 502      21.395   4.005  -0.213  1.00142.77     0.171 HD
HETATM   17  C21 MIQ B 502      21.648   1.981  -0.847  1.00142.22     0.224 C 
HETATM   18  C22 MIQ B 502      22.158   0.710  -0.197  1.00139.52     0.106 C 
HETATM   19  O24 MIQ B 502      20.983   1.957  -1.823  1.00146.13    -0.273 OA
HETATM   20  C23 MIQ B 502      23.670   0.830  -0.142  1.00139.15     0.045 C 
ENDBRANCH  10  12
BRANCH   5  21
HETATM   21  N6  MIQ B 502      25.045   1.022   7.876  1.00140.95    -0.377 N 
HETATM   22  C7  MIQ B 502      26.043   1.334   8.884  1.00142.12     0.149 C 
HETATM   23  C8  MIQ B 502      25.832   0.531  10.161  1.00144.10     0.187 C 
HETATM   24  O9  MIQ B 502      24.509   0.554  10.605  1.00148.65    -0.388 OA
HETATM   25  C10 MIQ B 502      23.499   1.076   9.793  1.00147.44     0.187 C 
HETATM   26  C11 MIQ B 502      23.650   0.966   8.279  1.00144.08     0.149 C 
ENDBRANCH   5  21
TORSDOF 2
ENDMDL
MODEL 9
REMARK VINA RESULT:      -6.6     17.994     20.221
REMARK  2 active torsions:
REMARK  status: ('A' for Active; 'I' for Inactive)
REMARK    1  A    between atoms: C5_5  and  N6_21 
REMARK    2  A    between atoms: C18_14  and  N17_19 
ROOT
HETATM    1  O1  MIQ B 502      16.451   2.985 -13.720  1.00142.91    -0.171 OA
HETATM    2  C2  MIQ B 502      16.215   3.467 -15.010  1.00141.17     0.195 A 
HETATM    3  C3  MIQ B 502      15.464   4.785 -15.379  1.00141.71     0.035 A 
HETATM    4  C4  MIQ B 502      14.822   5.852 -14.574  1.00142.86     0.046 A 
HETATM    5  C5  MIQ B 502      14.204   6.957 -15.211  1.00139.53     0.031 A 
HETATM    6  C12 MIQ B 502      14.201   7.044 -16.665  1.00139.38     0.030 A 
HETATM    7  C13 MIQ B 502      14.817   6.022 -17.437  1.00141.18     0.019 A 
HETATM    8  C14 MIQ B 502      15.466   4.865 -16.762  1.00138.77     0.033 A 
HETATM    9  C15 MIQ B 502      16.224   3.589 -17.254  1.00142.10     0.195 A 
HETATM   10  N17 MIQ B 502      16.572   2.928 -16.163  1.00139.42    -0.288 N 
HETATM   11  O16 MIQ B 502      16.476   3.226 -18.578  1.00148.93    -0.171 OA
ENDROOT
BRANCH  10  12
HETATM   12  C18 MIQ B 502      17.288   1.668 -16.238  1.00139.82     0.187 C 
HETATM   13  C19 MIQ B 502      16.589   0.676 -15.300  1.00140.06     0.247 C 
HETATM   14  O25 MIQ B 502      15.422   0.525 -15.389  1.00143.95    -0.271 OA
HETATM   15  N20 MIQ B 502      17.322  -0.087 -14.311  1.00140.02    -0.296 N 
HETATM   16  H13 MIQ B 502      16.852  -0.727 -13.701  1.00142.77     0.171 HD
HETATM   17  C21 MIQ B 502      18.743   0.122 -14.215  1.00142.22     0.224 C 
HETATM   18  C22 MIQ B 502      19.247   1.523 -14.505  1.00139.52     0.106 C 
HETATM   19  O24 MIQ B 502      19.479  -0.758 -13.930  1.00146.13    -0.273 OA
HETATM   20  C23 MIQ B 502      18.764   1.875 -15.900  1.00139.15     0.045 C 
ENDBRANCH  10  12
BRANCH   5  21
HETATM   21  N6  MIQ B 502      13.567   7.987 -14.411  1.00140.95    -0.377 N 
HETATM   22  C7  MIQ B 502      14.359   9.132 -13.994  1.00142.12     0.149 C 
HETATM   23  C8  MIQ B 502      13.827   9.752 -12.708  1.00144.10     0.187 C 
HETATM   24  O9  MIQ B 502      12.446   9.959 -12.735  1.00148.65    -0.388 OA
HETATM   25  C10 MIQ B 502      11.669   9.417 -13.762  1.00147.44     0.187 C 
HETATM   26  C11 MIQ B 502      12.120   8.109 -14.405  1.00144.08     0.149 C 
ENDBRANCH   5  21
TORSDOF 2
ENDMDL
