MODEL 1
REMARK VINA RESULT:      -6.9      0.000      0.000
REMARK  2 active torsions:
REMARK  status: ('A' for Active; 'I' for Inactive)
REMARK    1  A    between atoms: C5_5  and  N6_21 
REMARK    2  A    between atoms: C18_14  and  N17_19 
ROOT
HETATM    1  O1  MIQ B 502       0.666 -11.455  21.732  1.00142.91    -0.171 OA
HETATM    2  C2  MIQ B 502       1.578 -10.956  20.798  1.00141.17     0.195 A 
HETATM    3  C3  MIQ B 502       2.957 -10.297  21.118  1.00141.71     0.035 A 
HETATM    4  C4  MIQ B 502       3.683 -10.013  22.378  1.00142.86     0.046 A 
HETATM    5  C5  MIQ B 502       4.955  -9.387  22.348  1.00139.53     0.031 A 
HETATM    6  C12 MIQ B 502       5.550  -9.023  21.070  1.00139.38     0.030 A 
HETATM    7  C13 MIQ B 502       4.855  -9.296  19.861  1.00141.18     0.019 A 
HETATM    8  C14 MIQ B 502       3.521  -9.955  19.899  1.00138.77     0.033 A 
HETATM    9  C15 MIQ B 502       2.486 -10.406  18.817  1.00142.10     0.195 A 
HETATM   10  N17 MIQ B 502       1.474 -10.941  19.480  1.00139.42    -0.288 N 
HETATM   11  O16 MIQ B 502       2.609 -10.267  17.434  1.00148.93    -0.171 OA
ENDROOT
BRANCH  10  12
HETATM   12  C18 MIQ B 502       0.307 -11.460  18.792  1.00139.82     0.187 C 
HETATM   13  C19 MIQ B 502      -0.937 -10.903  19.493  1.00140.06     0.247 C 
HETATM   14  O25 MIQ B 502      -1.019  -9.742  19.684  1.00143.95    -0.271 OA
HETATM   15  N20 MIQ B 502      -2.020 -11.763  19.925  1.00140.02    -0.296 N 
HETATM   16  H13 MIQ B 502      -2.824 -11.387  20.388  1.00142.77     0.171 HD
HETATM   17  C21 MIQ B 502      -1.892 -13.178  19.690  1.00142.22     0.224 C 
HETATM   18  C22 MIQ B 502      -0.492 -13.757  19.763  1.00139.52     0.106 C 
HETATM   19  O24 MIQ B 502      -2.832 -13.852  19.448  1.00146.13    -0.273 OA
HETATM   20  C23 MIQ B 502       0.346 -12.987  18.758  1.00139.15     0.045 C 
ENDBRANCH  10  12
BRANCH   5  21
HETATM   21  N6  MIQ B 502       5.648  -9.101  23.590  1.00140.95    -0.377 N 
HETATM   22  C7  MIQ B 502       5.267  -9.838  24.783  1.00142.12     0.149 C 
HETATM   23  C8  MIQ B 502       5.558  -9.051  26.055  1.00144.10     0.187 C 
HETATM   24  O9  MIQ B 502       6.844  -8.507  26.075  1.00148.65    -0.388 OA
HETATM   25  C10 MIQ B 502       7.636  -8.520  24.924  1.00147.44     0.187 C 
HETATM   26  C11 MIQ B 502       6.948  -8.455  23.564  1.00144.08     0.149 C 
ENDBRANCH   5  21
TORSDOF 2
ENDMDL
MODEL 2
REMARK VINA RESULT:      -6.8     18.778     20.242
REMARK  2 active torsions:
REMARK  status: ('A' for Active; 'I' for Inactive)
REMARK    1  A    between atoms: C5_5  and  N6_21 
REMARK    2  A    between atoms: C18_14  and  N17_19 
ROOT
HETATM    1  O1  MIQ B 502      15.044 -10.292   8.560  1.00142.91    -0.171 OA
HETATM    2  C2  MIQ B 502      15.889  -9.626   7.669  1.00141.17     0.195 A 
HETATM    3  C3  MIQ B 502      17.065  -8.672   8.051  1.00141.71     0.035 A 
HETATM    4  C4  MIQ B 502      17.621  -8.207   9.344  1.00142.86     0.046 A 
HETATM    5  C5  MIQ B 502      18.725  -7.318   9.371  1.00139.53     0.031 A 
HETATM    6  C12 MIQ B 502      19.315  -6.860   8.122  1.00139.38     0.030 A 
HETATM    7  C13 MIQ B 502      18.783  -7.307   6.882  1.00141.18     0.019 A 
HETATM    8  C14 MIQ B 502      17.625  -8.242   6.860  1.00138.77     0.033 A 
HETATM    9  C15 MIQ B 502      16.793  -8.934   5.731  1.00142.10     0.195 A 
HETATM   10  N17 MIQ B 502      15.877  -9.663   6.347  1.00139.42    -0.288 N 
HETATM   11  O16 MIQ B 502      16.980  -8.802   4.354  1.00148.93    -0.171 OA
ENDROOT
BRANCH  10  12
HETATM   12  C18 MIQ B 502      14.904 -10.442   5.605  1.00139.82     0.187 C 
HETATM   13  C19 MIQ B 502      15.665 -11.282   4.573  1.00140.06     0.247 C 
HETATM   14  O25 MIQ B 502      16.578 -11.940   4.927  1.00143.95    -0.271 OA
HETATM   15  N20 MIQ B 502      15.292 -11.295   3.173  1.00140.02    -0.296 N 
HETATM   16  H13 MIQ B 502      15.801 -11.843   2.508  1.00142.77     0.171 HD
HETATM   17  C21 MIQ B 502      14.181 -10.475   2.764  1.00142.22     0.224 C 
HETATM   18  C22 MIQ B 502      13.988  -9.168   3.508  1.00139.52     0.106 C 
HETATM   19  O24 MIQ B 502      13.453 -10.810   1.895  1.00146.13    -0.273 OA
HETATM   20  C23 MIQ B 502      13.856  -9.524   4.978  1.00139.15     0.045 C 
ENDBRANCH  10  12
BRANCH   5  21
HETATM   21  N6  MIQ B 502      19.250  -6.859  10.645  1.00140.95    -0.377 N 
HETATM   22  C7  MIQ B 502      19.256  -7.782  11.767  1.00142.12     0.149 C 
HETATM   23  C8  MIQ B 502      19.200  -7.053  13.103  1.00144.10     0.187 C 
HETATM   24  O9  MIQ B 502      20.117  -6.004  13.188  1.00148.65    -0.388 OA
HETATM   25  C10 MIQ B 502      20.810  -5.575  12.053  1.00147.44     0.187 C 
HETATM   26  C11 MIQ B 502      20.134  -5.708  10.693  1.00144.08     0.149 C 
ENDBRANCH   5  21
TORSDOF 2
ENDMDL
MODEL 3
REMARK VINA RESULT:      -6.8     20.206     21.519
REMARK  2 active torsions:
REMARK  status: ('A' for Active; 'I' for Inactive)
REMARK    1  A    between atoms: C5_5  and  N6_21 
REMARK    2  A    between atoms: C18_14  and  N17_19 
ROOT
HETATM    1  O1  MIQ B 502      15.068 -11.618   5.687  1.00142.91    -0.171 OA
HETATM    2  C2  MIQ B 502      16.286 -11.652   5.004  1.00141.17     0.195 A 
HETATM    3  C3  MIQ B 502      17.703 -11.755   5.652  1.00141.71     0.035 A 
HETATM    4  C4  MIQ B 502      18.179 -11.844   7.053  1.00142.86     0.046 A 
HETATM    5  C5  MIQ B 502      19.566 -11.930   7.335  1.00139.53     0.031 A 
HETATM    6  C12 MIQ B 502      20.527 -11.931   6.241  1.00139.38     0.030 A 
HETATM    7  C13 MIQ B 502      20.071 -11.847   4.898  1.00141.18     0.019 A 
HETATM    8  C14 MIQ B 502      18.613 -11.759   4.608  1.00138.77     0.033 A 
HETATM    9  C15 MIQ B 502      17.756 -11.659   3.304  1.00142.10     0.195 A 
HETATM   10  N17 MIQ B 502      16.495 -11.611   3.699  1.00139.42    -0.288 N 
HETATM   11  O16 MIQ B 502      18.231 -11.624   1.992  1.00148.93    -0.171 OA
ENDROOT
BRANCH  10  12
HETATM   12  C18 MIQ B 502      15.406 -11.498   2.747  1.00139.82     0.187 C 
HETATM   13  C19 MIQ B 502      14.470 -10.386   3.235  1.00140.06     0.247 C 
HETATM   14  O25 MIQ B 502      14.923  -9.333   3.513  1.00143.95    -0.271 OA
HETATM   15  N20 MIQ B 502      13.042 -10.590   3.360  1.00140.02    -0.296 N 
HETATM   16  H13 MIQ B 502      12.442  -9.858   3.686  1.00142.77     0.171 HD
HETATM   17  C21 MIQ B 502      12.514 -11.887   3.025  1.00142.22     0.224 C 
HETATM   18  C22 MIQ B 502      13.401 -13.081   3.321  1.00139.52     0.106 C 
HETATM   19  O24 MIQ B 502      11.444 -12.012   2.538  1.00146.13    -0.273 OA
HETATM   20  C23 MIQ B 502      14.704 -12.845   2.580  1.00139.15     0.045 C 
ENDBRANCH  10  12
BRANCH   5  21
HETATM   21  N6  MIQ B 502      20.019 -12.002   8.712  1.00140.95    -0.377 N 
HETATM   22  C7  MIQ B 502      19.391 -11.136   9.696  1.00142.12     0.149 C 
HETATM   23  C8  MIQ B 502      20.322 -10.833  10.863  1.00144.10     0.187 C 
HETATM   24  O9  MIQ B 502      20.937 -11.975  11.379  1.00148.65    -0.388 OA
HETATM   25  C10 MIQ B 502      20.848 -13.194  10.702  1.00147.44     0.187 C 
HETATM   26  C11 MIQ B 502      20.732 -13.177   9.181  1.00144.08     0.149 C 
ENDBRANCH   5  21
TORSDOF 2
ENDMDL
MODEL 4
REMARK VINA RESULT:      -6.7      1.300      2.537
REMARK  2 active torsions:
REMARK  status: ('A' for Active; 'I' for Inactive)
REMARK    1  A    between atoms: C5_5  and  N6_21 
REMARK    2  A    between atoms: C18_14  and  N17_19 
ROOT
HETATM    1  O1  MIQ B 502       3.499 -10.328  19.026  1.00142.91    -0.171 OA
HETATM    2  C2  MIQ B 502       2.855 -10.286  20.264  1.00141.17     0.195 A 
HETATM    3  C3  MIQ B 502       3.477  -9.794  21.610  1.00141.71     0.035 A 
HETATM    4  C4  MIQ B 502       4.809  -9.262  21.983  1.00142.86     0.046 A 
HETATM    5  C5  MIQ B 502       5.082  -8.888  23.323  1.00139.53     0.031 A 
HETATM    6  C12 MIQ B 502       4.046  -9.026  24.337  1.00139.38     0.030 A 
HETATM    7  C13 MIQ B 502       2.769  -9.535  23.980  1.00141.18     0.019 A 
HETATM    8  C14 MIQ B 502       2.487  -9.924  22.571  1.00138.77     0.033 A 
HETATM    9  C15 MIQ B 502       1.244 -10.500  21.817  1.00142.10     0.195 A 
HETATM   10  N17 MIQ B 502       1.615 -10.639  20.555  1.00139.42    -0.288 N 
HETATM   11  O16 MIQ B 502       0.000 -10.807  22.370  1.00148.93    -0.171 OA
ENDROOT
BRANCH  10  12
HETATM   12  C18 MIQ B 502       0.709 -11.170  19.554  1.00139.82     0.187 C 
HETATM   13  C19 MIQ B 502      -0.602 -10.378  19.642  1.00140.06     0.247 C 
HETATM   14  O25 MIQ B 502      -0.565  -9.199  19.621  1.00143.95    -0.271 OA
HETATM   15  N20 MIQ B 502      -1.887 -11.038  19.744  1.00140.02    -0.296 N 
HETATM   16  H13 MIQ B 502      -2.735 -10.510  19.807  1.00142.77     0.171 HD
HETATM   17  C21 MIQ B 502      -1.905 -12.478  19.778  1.00142.22     0.224 C 
HETATM   18  C22 MIQ B 502      -0.734 -13.158  20.460  1.00139.52     0.106 C 
HETATM   19  O24 MIQ B 502      -2.788 -13.096  19.292  1.00146.13    -0.273 OA
HETATM   20  C23 MIQ B 502       0.518 -12.673  19.753  1.00139.15     0.045 C 
ENDBRANCH  10  12
BRANCH   5  21
HETATM   21  N6  MIQ B 502       6.396  -8.382  23.677  1.00140.95    -0.377 N 
HETATM   22  C7  MIQ B 502       7.346  -8.112  22.612  1.00142.12     0.149 C 
HETATM   23  C8  MIQ B 502       8.787  -8.224  23.094  1.00144.10     0.187 C 
HETATM   24  O9  MIQ B 502       9.016  -7.537  24.287  1.00148.65    -0.388 OA
HETATM   25  C10 MIQ B 502       7.946  -7.024  25.026  1.00147.44     0.187 C 
HETATM   26  C11 MIQ B 502       6.606  -7.750  24.968  1.00144.08     0.149 C 
ENDBRANCH   5  21
TORSDOF 2
ENDMDL
MODEL 5
REMARK VINA RESULT:      -6.6     19.200     21.358
REMARK  2 active torsions:
REMARK  status: ('A' for Active; 'I' for Inactive)
REMARK    1  A    between atoms: C5_5  and  N6_21 
REMARK    2  A    between atoms: C18_14  and  N17_19 
ROOT
HETATM    1  O1  MIQ B 502      17.102  -8.818   4.402  1.00142.91    -0.171 OA
HETATM    2  C2  MIQ B 502      16.844  -8.906   5.772  1.00141.17     0.195 A 
HETATM    3  C3  MIQ B 502      17.653  -8.205   6.909  1.00141.71     0.035 A 
HETATM    4  C4  MIQ B 502      18.833  -7.309   6.917  1.00142.86     0.046 A 
HETATM    5  C5  MIQ B 502      19.353  -6.819   8.142  1.00139.53     0.031 A 
HETATM    6  C12 MIQ B 502      18.722  -7.198   9.398  1.00139.38     0.030 A 
HETATM    7  C13 MIQ B 502      17.590  -8.057   9.391  1.00141.18     0.019 A 
HETATM    8  C14 MIQ B 502      17.047  -8.567   8.102  1.00138.77     0.033 A 
HETATM    9  C15 MIQ B 502      15.856  -9.496   7.702  1.00142.10     0.195 A 
HETATM   10  N17 MIQ B 502      15.883  -9.578   6.382  1.00139.42    -0.288 N 
HETATM   11  O16 MIQ B 502      14.951 -10.115   8.567  1.00148.93    -0.171 OA
ENDROOT
BRANCH  10  12
HETATM   12  C18 MIQ B 502      14.919 -10.381   5.653  1.00139.82     0.187 C 
HETATM   13  C19 MIQ B 502      15.695 -11.257   4.662  1.00140.06     0.247 C 
HETATM   14  O25 MIQ B 502      16.602 -11.903   5.051  1.00143.95    -0.271 OA
HETATM   15  N20 MIQ B 502      15.342 -11.318   3.258  1.00140.02    -0.296 N 
HETATM   16  H13 MIQ B 502      15.861 -11.889   2.620  1.00142.77     0.171 HD
HETATM   17  C21 MIQ B 502      14.238 -10.512   2.804  1.00142.22     0.224 C 
HETATM   18  C22 MIQ B 502      14.036  -9.180   3.500  1.00139.52     0.106 C 
HETATM   19  O24 MIQ B 502      13.523 -10.876   1.936  1.00146.13    -0.273 OA
HETATM   20  C23 MIQ B 502      13.882  -9.485   4.979  1.00139.15     0.045 C 
ENDBRANCH  10  12
BRANCH   5  21
HETATM   21  N6  MIQ B 502      20.518  -5.953   8.135  1.00140.95    -0.377 N 
HETATM   22  C7  MIQ B 502      21.383  -5.962   6.968  1.00142.12     0.149 C 
HETATM   23  C8  MIQ B 502      22.812  -5.565   7.317  1.00144.10     0.187 C 
HETATM   24  O9  MIQ B 502      22.880  -4.412   8.101  1.00148.65    -0.388 OA
HETATM   25  C10 MIQ B 502      21.721  -3.870   8.665  1.00147.44     0.187 C 
HETATM   26  C11 MIQ B 502      20.580  -4.813   9.032  1.00144.08     0.149 C 
ENDBRANCH   5  21
TORSDOF 2
ENDMDL
MODEL 6
REMARK VINA RESULT:      -6.6      2.252      8.307
REMARK  2 active torsions:
REMARK  status: ('A' for Active; 'I' for Inactive)
REMARK    1  A    between atoms: C5_5  and  N6_21 
REMARK    2  A    between atoms: C18_14  and  N17_19 
ROOT
HETATM    1  O1  MIQ B 502       3.996  -8.692  24.714  1.00142.91    -0.171 OA
HETATM    2  C2  MIQ B 502       4.530  -8.830  23.431  1.00141.17     0.195 A 
HETATM    3  C3  MIQ B 502       3.797  -9.422  22.185  1.00141.71     0.035 A 
HETATM    4  C4  MIQ B 502       2.438  -9.973  21.969  1.00142.86     0.046 A 
HETATM    5  C5  MIQ B 502       2.052 -10.447  20.689  1.00139.53     0.031 A 
HETATM    6  C12 MIQ B 502       2.996 -10.390  19.583  1.00139.38     0.030 A 
HETATM    7  C13 MIQ B 502       4.299  -9.861  19.789  1.00141.18     0.019 A 
HETATM    8  C14 MIQ B 502       4.698  -9.363  21.134  1.00138.77     0.033 A 
HETATM    9  C15 MIQ B 502       5.997  -8.730  21.730  1.00142.10     0.195 A 
HETATM   10  N17 MIQ B 502       5.735  -8.493  23.005  1.00139.42    -0.288 N 
HETATM   11  O16 MIQ B 502       7.189  -8.472  21.051  1.00148.93    -0.171 OA
ENDROOT
BRANCH  10  12
HETATM   12  C18 MIQ B 502       6.731  -7.913  23.888  1.00139.82     0.187 C 
HETATM   13  C19 MIQ B 502       7.239  -6.622  23.236  1.00140.06     0.247 C 
HETATM   14  O25 MIQ B 502       6.459  -5.818  22.865  1.00143.95    -0.271 OA
HETATM   15  N20 MIQ B 502       8.653  -6.356  23.067  1.00140.02    -0.296 N 
HETATM   16  H13 MIQ B 502       8.972  -5.512  22.634  1.00142.77     0.171 HD
HETATM   17  C21 MIQ B 502       9.586  -7.356  23.518  1.00142.22     0.224 C 
HETATM   18  C22 MIQ B 502       9.145  -8.803  23.398  1.00139.52     0.106 C 
HETATM   19  O24 MIQ B 502      10.640  -7.062  23.965  1.00146.13    -0.273 OA
HETATM   20  C23 MIQ B 502       7.843  -8.922  24.169  1.00139.15     0.045 C 
ENDBRANCH  10  12
BRANCH   5  21
HETATM   21  N6  MIQ B 502       0.723 -10.998  20.495  1.00140.95    -0.377 N 
HETATM   22  C7  MIQ B 502       0.351 -12.191  21.235  1.00142.12     0.149 C 
HETATM   23  C8  MIQ B 502      -0.718 -12.999  20.511  1.00144.10     0.187 C 
HETATM   24  O9  MIQ B 502      -1.785 -12.214  20.069  1.00148.65    -0.388 OA
HETATM   25  C10 MIQ B 502      -1.703 -10.820  20.110  1.00147.44     0.187 C 
HETATM   26  C11 MIQ B 502      -0.335 -10.165  19.951  1.00144.08     0.149 C 
ENDBRANCH   5  21
TORSDOF 2
ENDMDL
MODEL 7
REMARK VINA RESULT:      -6.6      2.384      8.772
REMARK  2 active torsions:
REMARK  status: ('A' for Active; 'I' for Inactive)
REMARK    1  A    between atoms: C5_5  and  N6_21 
REMARK    2  A    between atoms: C18_14  and  N17_19 
ROOT
HETATM    1  O1  MIQ B 502       7.224  -8.507  21.479  1.00142.91    -0.171 OA
HETATM    2  C2  MIQ B 502       6.235  -8.620  22.459  1.00141.17     0.195 A 
HETATM    3  C3  MIQ B 502       4.773  -9.124  22.238  1.00141.71     0.035 A 
HETATM    4  C4  MIQ B 502       4.027  -9.600  21.049  1.00142.86     0.046 A 
HETATM    5  C5  MIQ B 502       2.673 -10.002  21.166  1.00139.53     0.031 A 
HETATM    6  C12 MIQ B 502       2.012  -9.948  22.462  1.00139.38     0.030 A 
HETATM    7  C13 MIQ B 502       2.727  -9.492  23.603  1.00141.18     0.019 A 
HETATM    8  C14 MIQ B 502       4.149  -9.073  23.474  1.00138.77     0.033 A 
HETATM    9  C15 MIQ B 502       5.231  -8.536  24.468  1.00142.10     0.195 A 
HETATM   10  N17 MIQ B 502       6.323  -8.340  23.747  1.00139.42    -0.288 N 
HETATM   11  O16 MIQ B 502       5.070  -8.309  25.836  1.00148.93    -0.171 OA
ENDROOT
BRANCH  10  12
HETATM   12  C18 MIQ B 502       7.540  -7.823  24.344  1.00139.82     0.187 C 
HETATM   13  C19 MIQ B 502       7.985  -6.607  23.520  1.00140.06     0.247 C 
HETATM   14  O25 MIQ B 502       7.207  -5.750  23.294  1.00143.95    -0.271 OA
HETATM   15  N20 MIQ B 502       9.337  -6.479  23.017  1.00140.02    -0.296 N 
HETATM   16  H13 MIQ B 502       9.613  -5.684  22.475  1.00142.77     0.171 HD
HETATM   17  C21 MIQ B 502      10.265  -7.544  23.298  1.00142.22     0.224 C 
HETATM   18  C22 MIQ B 502       9.693  -8.947  23.364  1.00139.52     0.106 C 
HETATM   19  O24 MIQ B 502      11.415  -7.331  23.474  1.00146.13    -0.273 OA
HETATM   20  C23 MIQ B 502       8.602  -8.919  24.419  1.00139.15     0.045 C 
ENDBRANCH  10  12
BRANCH   5  21
HETATM   21  N6  MIQ B 502       1.950 -10.453  19.990  1.00140.95    -0.377 N 
HETATM   22  C7  MIQ B 502       0.678  -9.826  19.675  1.00142.12     0.149 C 
HETATM   23  C8  MIQ B 502      -0.233 -10.757  18.884  1.00144.10     0.187 C 
HETATM   24  O9  MIQ B 502       0.415 -11.366  17.808  1.00148.65    -0.388 OA
HETATM   25  C10 MIQ B 502       1.803 -11.274  17.673  1.00147.44     0.187 C 
HETATM   26  C11 MIQ B 502       2.653 -11.160  18.934  1.00144.08     0.149 C 
ENDBRANCH   5  21
TORSDOF 2
ENDMDL
MODEL 8
REMARK VINA RESULT:      -6.6     19.819     21.277
REMARK  2 active torsions:
REMARK  status: ('A' for Active; 'I' for Inactive)
REMARK    1  A    between atoms: C5_5  and  N6_21 
REMARK    2  A    between atoms: C18_14  and  N17_19 
ROOT
HETATM    1  O1  MIQ B 502      18.357  -8.788   3.507  1.00142.91    -0.171 OA
HETATM    2  C2  MIQ B 502      17.568  -8.968   4.646  1.00141.17     0.195 A 
HETATM    3  C3  MIQ B 502      17.899  -8.462   6.086  1.00141.71     0.035 A 
HETATM    4  C4  MIQ B 502      19.033  -7.701   6.664  1.00142.86     0.046 A 
HETATM    5  C5  MIQ B 502      19.051  -7.380   8.045  1.00139.53     0.031 A 
HETATM    6  C12 MIQ B 502      17.950  -7.800   8.899  1.00139.38     0.030 A 
HETATM    7  C13 MIQ B 502      16.862  -8.528   8.345  1.00141.18     0.019 A 
HETATM    8  C14 MIQ B 502      16.847  -8.860   6.894  1.00138.77     0.033 A 
HETATM    9  C15 MIQ B 502      15.857  -9.617   5.950  1.00142.10     0.195 A 
HETATM   10  N17 MIQ B 502      16.403  -9.584   4.746  1.00139.42    -0.288 N 
HETATM   11  O16 MIQ B 502      14.645 -10.209   6.311  1.00148.93    -0.171 OA
ENDROOT
BRANCH  10  12
HETATM   12  C18 MIQ B 502      15.761 -10.211   3.606  1.00139.82     0.187 C 
HETATM   13  C19 MIQ B 502      14.317  -9.700   3.543  1.00140.06     0.247 C 
HETATM   14  O25 MIQ B 502      14.115  -8.538   3.578  1.00143.95    -0.271 OA
HETATM   15  N20 MIQ B 502      13.190 -10.604   3.435  1.00140.02    -0.296 N 
HETATM   16  H13 MIQ B 502      12.252 -10.258   3.401  1.00142.77     0.171 HD
HETATM   17  C21 MIQ B 502      13.461 -12.018   3.405  1.00142.22     0.224 C 
HETATM   18  C22 MIQ B 502      14.649 -12.502   4.215  1.00139.52     0.106 C 
HETATM   19  O24 MIQ B 502      12.794 -12.762   2.774  1.00146.13    -0.273 OA
HETATM   20  C23 MIQ B 502      15.856 -11.732   3.712  1.00139.15     0.045 C 
ENDBRANCH  10  12
BRANCH   5  21
HETATM   21  N6  MIQ B 502      20.175  -6.648   8.600  1.00140.95    -0.377 N 
HETATM   22  C7  MIQ B 502      20.443  -5.308   8.106  1.00142.12     0.149 C 
HETATM   23  C8  MIQ B 502      21.912  -4.932   8.251  1.00144.10     0.187 C 
HETATM   24  O9  MIQ B 502      22.423  -5.214   9.520  1.00148.65    -0.388 OA
HETATM   25  C10 MIQ B 502      21.681  -5.974  10.428  1.00147.44     0.187 C 
HETATM   26  C11 MIQ B 502      20.729  -7.034   9.886  1.00144.08     0.149 C 
ENDBRANCH   5  21
TORSDOF 2
ENDMDL
MODEL 9
REMARK VINA RESULT:      -6.3     19.204     20.626
REMARK  2 active torsions:
REMARK  status: ('A' for Active; 'I' for Inactive)
REMARK    1  A    between atoms: C5_5  and  N6_21 
REMARK    2  A    between atoms: C18_14  and  N17_19 
ROOT
HETATM    1  O1  MIQ B 502      15.034 -10.607   6.351  1.00142.91    -0.171 OA
HETATM    2  C2  MIQ B 502      16.241 -10.091   5.873  1.00141.17     0.195 A 
HETATM    3  C3  MIQ B 502      17.432  -9.576   6.743  1.00141.71     0.035 A 
HETATM    4  C4  MIQ B 502      17.658  -9.475   8.204  1.00142.86     0.046 A 
HETATM    5  C5  MIQ B 502      18.876  -8.952   8.707  1.00139.53     0.031 A 
HETATM    6  C12 MIQ B 502      19.910  -8.511   7.781  1.00139.38     0.030 A 
HETATM    7  C13 MIQ B 502      19.694  -8.609   6.380  1.00141.18     0.019 A 
HETATM    8  C14 MIQ B 502      18.415  -9.162   5.858  1.00138.77     0.033 A 
HETATM    9  C15 MIQ B 502      17.830  -9.422   4.431  1.00142.10     0.195 A 
HETATM   10  N17 MIQ B 502      16.627  -9.938   4.618  1.00139.42    -0.288 N 
HETATM   11  O16 MIQ B 502      18.455  -9.157   3.211  1.00148.93    -0.171 OA
ENDROOT
BRANCH  10  12
HETATM   12  C18 MIQ B 502      15.774 -10.294   3.500  1.00139.82     0.187 C 
HETATM   13  C19 MIQ B 502      14.417  -9.611   3.710  1.00140.06     0.247 C 
HETATM   14  O25 MIQ B 502      14.384  -8.454   3.938  1.00143.95    -0.271 OA
HETATM   15  N20 MIQ B 502      13.171 -10.347   3.631  1.00140.02    -0.296 N 
HETATM   16  H13 MIQ B 502      12.292  -9.890   3.777  1.00142.77     0.171 HD
HETATM   17  C21 MIQ B 502      13.238 -11.760   3.362  1.00142.22     0.224 C 
HETATM   18  C22 MIQ B 502      14.434 -12.504   3.923  1.00139.52     0.106 C 
HETATM   19  O24 MIQ B 502      12.404 -12.309   2.730  1.00146.13    -0.273 OA
HETATM   20  C23 MIQ B 502      15.669 -11.813   3.374  1.00139.15     0.045 C 
ENDBRANCH  10  12
BRANCH   5  21
HETATM   21  N6  MIQ B 502      19.078  -8.845  10.140  1.00140.95    -0.377 N 
HETATM   22  C7  MIQ B 502      20.290  -9.404  10.715  1.00142.12     0.149 C 
HETATM   23  C8  MIQ B 502      20.096  -9.804  12.172  1.00144.10     0.187 C 
HETATM   24  O9  MIQ B 502      19.480  -8.808  12.932  1.00148.65    -0.388 OA
HETATM   25  C10 MIQ B 502      18.916  -7.691  12.310  1.00147.44     0.187 C 
HETATM   26  C11 MIQ B 502      18.348  -7.848  10.903  1.00144.08     0.149 C 
ENDBRANCH   5  21
TORSDOF 2
ENDMDL
