MODEL 1
REMARK VINA RESULT:      -7.2      0.000      0.000
REMARK  2 active torsions:
REMARK  status: ('A' for Active; 'I' for Inactive)
REMARK    1  A    between atoms: C5_5  and  N6_21 
REMARK    2  A    between atoms: C18_14  and  N17_19 
ROOT
HETATM    1  O1  MIQ B 502      25.310  -6.569   9.374  1.00142.91    -0.171 OA
HETATM    2  C2  MIQ B 502      25.836  -5.318   9.045  1.00141.17     0.195 A 
HETATM    3  C3  MIQ B 502      25.386  -4.413   7.854  1.00141.71     0.035 A 
HETATM    4  C4  MIQ B 502      24.361  -4.560   6.793  1.00142.86     0.046 A 
HETATM    5  C5  MIQ B 502      24.180  -3.539   5.826  1.00139.53     0.031 A 
HETATM    6  C12 MIQ B 502      25.005  -2.341   5.876  1.00139.38     0.030 A 
HETATM    7  C13 MIQ B 502      25.987  -2.200   6.894  1.00141.18     0.019 A 
HETATM    8  C14 MIQ B 502      26.171  -3.273   7.908  1.00138.77     0.033 A 
HETATM    9  C15 MIQ B 502      27.113  -3.471   9.140  1.00142.10     0.195 A 
HETATM   10  N17 MIQ B 502      26.797  -4.647   9.656  1.00139.42    -0.288 N 
HETATM   11  O16 MIQ B 502      28.090  -2.585   9.596  1.00148.93    -0.171 OA
ENDROOT
BRANCH  10  12
HETATM   12  C18 MIQ B 502      27.488  -5.175  10.818  1.00139.82     0.187 C 
HETATM   13  C19 MIQ B 502      27.819  -6.646  10.538  1.00140.06     0.247 C 
HETATM   14  O25 MIQ B 502      28.366  -6.932   9.533  1.00143.95    -0.271 OA
HETATM   15  N20 MIQ B 502      27.483  -7.697  11.477  1.00140.02    -0.296 N 
HETATM   16  H13 MIQ B 502      27.698  -8.654  11.279  1.00142.77     0.171 HD
HETATM   17  C21 MIQ B 502      26.805  -7.324  12.692  1.00142.22     0.224 C 
HETATM   18  C22 MIQ B 502      25.843  -6.155  12.604  1.00139.52     0.106 C 
HETATM   19  O24 MIQ B 502      26.995  -7.899  13.707  1.00146.13    -0.273 OA
HETATM   20  C23 MIQ B 502      26.641  -4.978  12.075  1.00139.15     0.045 C 
ENDBRANCH  10  12
BRANCH   5  21
HETATM   21  N6  MIQ B 502      23.183  -3.703   4.784  1.00140.95    -0.377 N 
HETATM   22  C7  MIQ B 502      22.758  -5.048   4.433  1.00142.12     0.149 C 
HETATM   23  C8  MIQ B 502      22.262  -5.131   2.995  1.00144.10     0.187 C 
HETATM   24  O9  MIQ B 502      21.358  -4.117   2.673  1.00148.65    -0.388 OA
HETATM   25  C10 MIQ B 502      21.159  -3.043   3.544  1.00147.44     0.187 C 
HETATM   26  C11 MIQ B 502      22.321  -2.591   4.423  1.00144.08     0.149 C 
ENDBRANCH   5  21
TORSDOF 2
ENDMDL
MODEL 2
REMARK VINA RESULT:      -6.5      3.247      7.596
REMARK  2 active torsions:
REMARK  status: ('A' for Active; 'I' for Inactive)
REMARK    1  A    between atoms: C5_5  and  N6_21 
REMARK    2  A    between atoms: C18_14  and  N17_19 
ROOT
HETATM    1  O1  MIQ B 502      25.165  -6.344   5.236  1.00142.91    -0.171 OA
HETATM    2  C2  MIQ B 502      24.506  -5.127   5.047  1.00141.17     0.195 A 
HETATM    3  C3  MIQ B 502      24.677  -3.841   5.917  1.00141.71     0.035 A 
HETATM    4  C4  MIQ B 502      25.505  -3.516   7.102  1.00142.86     0.046 A 
HETATM    5  C5  MIQ B 502      25.444  -2.225   7.687  1.00139.53     0.031 A 
HETATM    6  C12 MIQ B 502      24.562  -1.216   7.118  1.00139.38     0.030 A 
HETATM    7  C13 MIQ B 502      23.769  -1.528   5.981  1.00141.18     0.019 A 
HETATM    8  C14 MIQ B 502      23.839  -2.883   5.370  1.00138.77     0.033 A 
HETATM    9  C15 MIQ B 502      23.145  -3.578   4.153  1.00142.10     0.195 A 
HETATM   10  N17 MIQ B 502      23.626  -4.809   4.113  1.00139.42    -0.288 N 
HETATM   11  O16 MIQ B 502      22.207  -3.009   3.290  1.00148.93    -0.171 OA
ENDROOT
BRANCH  10  12
HETATM   12  C18 MIQ B 502      23.189  -5.760   3.108  1.00139.82     0.187 C 
HETATM   13  C19 MIQ B 502      22.830  -7.067   3.826  1.00140.06     0.247 C 
HETATM   14  O25 MIQ B 502      22.097  -7.035   4.750  1.00143.95    -0.271 OA
HETATM   15  N20 MIQ B 502      23.362  -8.345   3.398  1.00140.02    -0.296 N 
HETATM   16  H13 MIQ B 502      23.125  -9.190   3.879  1.00142.77     0.171 HD
HETATM   17  C21 MIQ B 502      24.263  -8.358   2.274  1.00142.22     0.224 C 
HETATM   18  C22 MIQ B 502      25.171  -7.154   2.116  1.00139.52     0.106 C 
HETATM   19  O24 MIQ B 502      24.287  -9.261   1.512  1.00146.13    -0.273 OA
HETATM   20  C23 MIQ B 502      24.266  -5.938   2.040  1.00139.15     0.045 C 
ENDBRANCH  10  12
BRANCH   5  21
HETATM   21  N6  MIQ B 502      26.249  -1.925   8.856  1.00140.95    -0.377 N 
HETATM   22  C7  MIQ B 502      27.607  -2.437   8.914  1.00142.12     0.149 C 
HETATM   23  C8  MIQ B 502      28.085  -2.622  10.349  1.00144.10     0.187 C 
HETATM   24  O9  MIQ B 502      27.831  -1.509  11.154  1.00148.65    -0.388 OA
HETATM   25  C10 MIQ B 502      27.016  -0.472  10.692  1.00147.44     0.187 C 
HETATM   26  C11 MIQ B 502      25.895  -0.807   9.713  1.00144.08     0.149 C 
ENDBRANCH   5  21
TORSDOF 2
ENDMDL
MODEL 3
REMARK VINA RESULT:      -6.5      2.410      3.766
REMARK  2 active torsions:
REMARK  status: ('A' for Active; 'I' for Inactive)
REMARK    1  A    between atoms: C5_5  and  N6_21 
REMARK    2  A    between atoms: C18_14  and  N17_19 
ROOT
HETATM    1  O1  MIQ B 502      25.765  -3.186   8.786  1.00142.91    -0.171 OA
HETATM    2  C2  MIQ B 502      26.324  -4.461   8.668  1.00141.17     0.195 A 
HETATM    3  C3  MIQ B 502      26.166  -5.428   7.452  1.00141.71     0.035 A 
HETATM    4  C4  MIQ B 502      25.451  -5.330   6.158  1.00142.86     0.046 A 
HETATM    5  C5  MIQ B 502      25.495  -6.402   5.231  1.00139.53     0.031 A 
HETATM    6  C12 MIQ B 502      26.247  -7.606   5.555  1.00139.38     0.030 A 
HETATM    7  C13 MIQ B 502      26.933  -7.701   6.796  1.00141.18     0.019 A 
HETATM    8  C14 MIQ B 502      26.886  -6.571   7.763  1.00138.77     0.033 A 
HETATM    9  C15 MIQ B 502      27.495  -6.310   9.180  1.00142.10     0.195 A 
HETATM   10  N17 MIQ B 502      27.091  -5.101   9.534  1.00139.42    -0.288 N 
HETATM   11  O16 MIQ B 502      28.298  -7.181   9.917  1.00148.93    -0.171 OA
ENDROOT
BRANCH  10  12
HETATM   12  C18 MIQ B 502      27.457  -4.526  10.815  1.00139.82     0.187 C 
HETATM   13  C19 MIQ B 502      26.206  -4.527  11.702  1.00140.06     0.247 C 
HETATM   14  O25 MIQ B 502      25.590  -5.525  11.828  1.00143.95    -0.271 OA
HETATM   15  N20 MIQ B 502      25.762  -3.336  12.397  1.00140.02    -0.296 N 
HETATM   16  H13 MIQ B 502      24.940  -3.348  12.968  1.00142.77     0.171 HD
HETATM   17  C21 MIQ B 502      26.525  -2.127  12.220  1.00142.22     0.224 C 
HETATM   18  C22 MIQ B 502      27.172  -1.923  10.864  1.00139.52     0.106 C 
HETATM   19  O24 MIQ B 502      26.643  -1.338  13.091  1.00146.13    -0.273 OA
HETATM   20  C23 MIQ B 502      28.055  -3.133  10.620  1.00139.15     0.045 C 
ENDBRANCH  10  12
BRANCH   5  21
HETATM   21  N6  MIQ B 502      24.778  -6.298   3.974  1.00140.95    -0.377 N 
HETATM   22  C7  MIQ B 502      23.742  -5.288   3.846  1.00142.12     0.149 C 
HETATM   23  C8  MIQ B 502      22.688  -5.680   2.819  1.00144.10     0.187 C 
HETATM   24  O9  MIQ B 502      23.240  -6.124   1.616  1.00148.65    -0.388 OA
HETATM   25  C10 MIQ B 502      24.611  -6.379   1.518  1.00147.44     0.187 C 
HETATM   26  C11 MIQ B 502      25.356  -6.852   2.761  1.00144.08     0.149 C 
ENDBRANCH   5  21
TORSDOF 2
ENDMDL
MODEL 4
REMARK VINA RESULT:      -6.4      5.305      6.742
REMARK  2 active torsions:
REMARK  status: ('A' for Active; 'I' for Inactive)
REMARK    1  A    between atoms: C5_5  and  N6_21 
REMARK    2  A    between atoms: C18_14  and  N17_19 
ROOT
HETATM    1  O1  MIQ B 502      28.002  -6.989  10.130  1.00142.91    -0.171 OA
HETATM    2  C2  MIQ B 502      27.646  -6.909  11.478  1.00141.17     0.195 A 
HETATM    3  C3  MIQ B 502      27.031  -5.666  12.197  1.00141.71     0.035 A 
HETATM    4  C4  MIQ B 502      26.659  -4.306  11.740  1.00142.86     0.046 A 
HETATM    5  C5  MIQ B 502      26.105  -3.370  12.651  1.00139.53     0.031 A 
HETATM    6  C12 MIQ B 502      25.902  -3.750  14.042  1.00139.38     0.030 A 
HETATM    7  C13 MIQ B 502      26.258  -5.054  14.480  1.00141.18     0.019 A 
HETATM    8  C14 MIQ B 502      26.836  -6.032  13.518  1.00138.77     0.033 A 
HETATM    9  C15 MIQ B 502      27.332  -7.512  13.620  1.00142.10     0.195 A 
HETATM   10  N17 MIQ B 502      27.743  -7.843  12.408  1.00139.42    -0.288 N 
HETATM   11  O16 MIQ B 502      27.339  -8.314  14.763  1.00148.93    -0.171 OA
ENDROOT
BRANCH  10  12
HETATM   12  C18 MIQ B 502      28.291  -9.157  12.127  1.00139.82     0.187 C 
HETATM   13  C19 MIQ B 502      27.265 -10.200  12.586  1.00140.06     0.247 C 
HETATM   14  O25 MIQ B 502      26.145 -10.104  12.227  1.00143.95    -0.271 OA
HETATM   15  N20 MIQ B 502      27.632 -11.306  13.447  1.00140.02    -0.296 N 
HETATM   16  H13 MIQ B 502      26.951 -11.976  13.745  1.00142.77     0.171 HD
HETATM   17  C21 MIQ B 502      29.002 -11.396  13.881  1.00142.22     0.224 C 
HETATM   18  C22 MIQ B 502      29.734 -10.087  14.105  1.00139.52     0.106 C 
HETATM   19  O24 MIQ B 502      29.530 -12.441  14.048  1.00146.13    -0.273 OA
HETATM   20  C23 MIQ B 502      29.654  -9.320  12.798  1.00139.15     0.045 C 
ENDBRANCH  10  12
BRANCH   5  21
HETATM   21  N6  MIQ B 502      25.759  -2.037  12.194  1.00140.95    -0.377 N 
HETATM   22  C7  MIQ B 502      25.022  -1.165  13.092  1.00142.12     0.149 C 
HETATM   23  C8  MIQ B 502      24.195  -0.135  12.333  1.00144.10     0.187 C 
HETATM   24  O9  MIQ B 502      24.921   0.514  11.332  1.00148.65    -0.388 OA
HETATM   25  C10 MIQ B 502      26.188   0.054  10.965  1.00147.44     0.187 C 
HETATM   26  C11 MIQ B 502      26.487  -1.436  11.090  1.00144.08     0.149 C 
ENDBRANCH   5  21
TORSDOF 2
ENDMDL
MODEL 5
REMARK VINA RESULT:      -6.4      4.596      6.639
REMARK  2 active torsions:
REMARK  status: ('A' for Active; 'I' for Inactive)
REMARK    1  A    between atoms: C5_5  and  N6_21 
REMARK    2  A    between atoms: C18_14  and  N17_19 
ROOT
HETATM    1  O1  MIQ B 502      28.237  -7.849  11.655  1.00142.91    -0.171 OA
HETATM    2  C2  MIQ B 502      27.669  -7.282  12.798  1.00141.17     0.195 A 
HETATM    3  C3  MIQ B 502      27.081  -5.840  12.917  1.00141.71     0.035 A 
HETATM    4  C4  MIQ B 502      26.939  -4.715  11.962  1.00142.86     0.046 A 
HETATM    5  C5  MIQ B 502      26.345  -3.495  12.373  1.00139.53     0.031 A 
HETATM    6  C12 MIQ B 502      25.871  -3.349  13.742  1.00139.38     0.030 A 
HETATM    7  C13 MIQ B 502      26.005  -4.427  14.658  1.00141.18     0.019 A 
HETATM    8  C14 MIQ B 502      26.628  -5.706  14.219  1.00138.77     0.033 A 
HETATM    9  C15 MIQ B 502      26.937  -7.073  14.913  1.00142.10     0.195 A 
HETATM   10  N17 MIQ B 502      27.508  -7.830  13.990  1.00139.42    -0.288 N 
HETATM   11  O16 MIQ B 502      26.665  -7.418  16.238  1.00148.93    -0.171 OA
ENDROOT
BRANCH  10  12
HETATM   12  C18 MIQ B 502      27.950  -9.180  14.285  1.00139.82     0.187 C 
HETATM   13  C19 MIQ B 502      29.404  -9.309  13.815  1.00140.06     0.247 C 
HETATM   14  O25 MIQ B 502      30.194  -8.502  14.158  1.00143.95    -0.271 OA
HETATM   15  N20 MIQ B 502      29.838 -10.399  12.966  1.00140.02    -0.296 N 
HETATM   16  H13 MIQ B 502      30.789 -10.469  12.661  1.00142.77     0.171 HD
HETATM   17  C21 MIQ B 502      28.853 -11.366  12.553  1.00142.22     0.224 C 
HETATM   18  C22 MIQ B 502      27.444 -10.851  12.334  1.00139.52     0.106 C 
HETATM   19  O24 MIQ B 502      29.131 -12.504  12.398  1.00146.13    -0.273 OA
HETATM   20  C23 MIQ B 502      27.015 -10.199  13.636  1.00139.15     0.045 C 
ENDBRANCH  10  12
BRANCH   5  21
HETATM   21  N6  MIQ B 502      26.226  -2.397  11.432  1.00140.95    -0.377 N 
HETATM   22  C7  MIQ B 502      26.211  -1.039  11.947  1.00142.12     0.149 C 
HETATM   23  C8  MIQ B 502      25.466  -0.087  11.020  1.00144.10     0.187 C 
HETATM   24  O9  MIQ B 502      25.854  -0.214   9.685  1.00148.65    -0.388 OA
HETATM   25  C10 MIQ B 502      26.666  -1.278   9.282  1.00147.44     0.187 C 
HETATM   26  C11 MIQ B 502      26.560  -2.601  10.033  1.00144.08     0.149 C 
ENDBRANCH   5  21
TORSDOF 2
ENDMDL
MODEL 6
REMARK VINA RESULT:      -6.4     10.343     12.225
REMARK  2 active torsions:
REMARK  status: ('A' for Active; 'I' for Inactive)
REMARK    1  A    between atoms: C5_5  and  N6_21 
REMARK    2  A    between atoms: C18_14  and  N17_19 
ROOT
HETATM    1  O1  MIQ B 502      25.357   5.600  12.251  1.00142.91    -0.171 OA
HETATM    2  C2  MIQ B 502      24.426   5.249  11.271  1.00141.17     0.195 A 
HETATM    3  C3  MIQ B 502      22.883   5.486  11.338  1.00141.71     0.035 A 
HETATM    4  C4  MIQ B 502      21.989   6.096  12.350  1.00142.86     0.046 A 
HETATM    5  C5  MIQ B 502      20.592   6.171  12.121  1.00139.53     0.031 A 
HETATM    6  C12 MIQ B 502      20.034   5.645  10.883  1.00139.38     0.030 A 
HETATM    7  C13 MIQ B 502      20.891   5.060   9.912  1.00141.18     0.019 A 
HETATM    8  C14 MIQ B 502      22.357   4.987  10.158  1.00138.77     0.033 A 
HETATM    9  C15 MIQ B 502      23.580   4.438   9.353  1.00142.10     0.195 A 
HETATM   10  N17 MIQ B 502      24.644   4.663  10.106  1.00139.42    -0.288 N 
HETATM   11  O16 MIQ B 502      23.550   3.832   8.096  1.00148.93    -0.171 OA
ENDROOT
BRANCH  10  12
HETATM   12  C18 MIQ B 502      25.973   4.266   9.679  1.00139.82     0.187 C 
HETATM   13  C19 MIQ B 502      26.581   3.399  10.788  1.00140.06     0.247 C 
HETATM   14  O25 MIQ B 502      25.963   2.487  11.211  1.00143.95    -0.271 OA
HETATM   15  N20 MIQ B 502      27.898   3.664  11.330  1.00140.02    -0.296 N 
HETATM   16  H13 MIQ B 502      28.281   3.095  12.059  1.00142.77     0.171 HD
HETATM   17  C21 MIQ B 502      28.628   4.789  10.805  1.00142.22     0.224 C 
HETATM   18  C22 MIQ B 502      27.811   5.994  10.380  1.00139.52     0.106 C 
HETATM   19  O24 MIQ B 502      29.806   4.770  10.708  1.00146.13    -0.273 OA
HETATM   20  C23 MIQ B 502      26.815   5.497   9.348  1.00139.15     0.045 C 
ENDBRANCH  10  12
BRANCH   5  21
HETATM   21  N6  MIQ B 502      19.726   6.758  13.127  1.00140.95    -0.377 N 
HETATM   22  C7  MIQ B 502      20.264   7.803  13.982  1.00142.12     0.149 C 
HETATM   23  C8  MIQ B 502      19.548   7.863  15.325  1.00144.10     0.187 C 
HETATM   24  O9  MIQ B 502      18.158   7.850  15.201  1.00148.65    -0.388 OA
HETATM   25  C10 MIQ B 502      17.559   7.572  13.969  1.00147.44     0.187 C 
HETATM   26  C11 MIQ B 502      18.284   6.644  12.999  1.00144.08     0.149 C 
ENDBRANCH   5  21
TORSDOF 2
ENDMDL
MODEL 7
REMARK VINA RESULT:      -6.4      3.128      7.916
REMARK  2 active torsions:
REMARK  status: ('A' for Active; 'I' for Inactive)
REMARK    1  A    between atoms: C5_5  and  N6_21 
REMARK    2  A    between atoms: C18_14  and  N17_19 
ROOT
HETATM    1  O1  MIQ B 502      25.862  -6.892   9.559  1.00142.91    -0.171 OA
HETATM    2  C2  MIQ B 502      26.093  -5.649  10.152  1.00141.17     0.195 A 
HETATM    3  C3  MIQ B 502      25.869  -5.287  11.655  1.00141.71     0.035 A 
HETATM    4  C4  MIQ B 502      25.392  -6.057  12.827  1.00142.86     0.046 A 
HETATM    5  C5  MIQ B 502      25.294  -5.439  14.099  1.00139.53     0.031 A 
HETATM    6  C12 MIQ B 502      25.665  -4.039  14.253  1.00139.38     0.030 A 
HETATM    7  C13 MIQ B 502      26.124  -3.301  13.129  1.00141.18     0.019 A 
HETATM    8  C14 MIQ B 502      26.227  -3.957  11.796  1.00138.77     0.033 A 
HETATM    9  C15 MIQ B 502      26.677  -3.489  10.374  1.00142.10     0.195 A 
HETATM   10  N17 MIQ B 502      26.545  -4.543   9.585  1.00139.42    -0.288 N 
HETATM   11  O16 MIQ B 502      27.123  -2.217  10.014  1.00148.93    -0.171 OA
ENDROOT
BRANCH  10  12
HETATM   12  C18 MIQ B 502      26.860  -4.474   8.170  1.00139.82     0.187 C 
HETATM   13  C19 MIQ B 502      25.621  -4.933   7.392  1.00140.06     0.247 C 
HETATM   14  O25 MIQ B 502      24.575  -4.444   7.634  1.00143.95    -0.271 OA
HETATM   15  N20 MIQ B 502      25.698  -5.947   6.361  1.00140.02    -0.296 N 
HETATM   16  H13 MIQ B 502      24.881  -6.243   5.865  1.00142.77     0.171 HD
HETATM   17  C21 MIQ B 502      26.984  -6.537   6.090  1.00142.22     0.224 C 
HETATM   18  C22 MIQ B 502      27.925  -6.690   7.270  1.00139.52     0.106 C 
HETATM   19  O24 MIQ B 502      27.291  -6.878   5.001  1.00146.13    -0.273 OA
HETATM   20  C23 MIQ B 502      28.105  -5.304   7.862  1.00139.15     0.045 C 
ENDBRANCH  10  12
BRANCH   5  21
HETATM   21  N6  MIQ B 502      24.810  -6.201  15.236  1.00140.95    -0.377 N 
HETATM   22  C7  MIQ B 502      23.781  -7.202  15.015  1.00142.12     0.149 C 
HETATM   23  C8  MIQ B 502      22.941  -7.440  16.263  1.00144.10     0.187 C 
HETATM   24  O9  MIQ B 502      23.714  -7.623  17.411  1.00148.65    -0.388 OA
HETATM   25  C10 MIQ B 502      25.087  -7.367  17.388  1.00147.44     0.187 C 
HETATM   26  C11 MIQ B 502      25.613  -6.292  16.443  1.00144.08     0.149 C 
ENDBRANCH   5  21
TORSDOF 2
ENDMDL
MODEL 8
REMARK VINA RESULT:      -6.3      3.648      7.224
REMARK  2 active torsions:
REMARK  status: ('A' for Active; 'I' for Inactive)
REMARK    1  A    between atoms: C5_5  and  N6_21 
REMARK    2  A    between atoms: C18_14  and  N17_19 
ROOT
HETATM    1  O1  MIQ B 502      23.557  -8.510   7.498  1.00142.91    -0.171 OA
HETATM    2  C2  MIQ B 502      23.520  -7.436   6.605  1.00141.17     0.195 A 
HETATM    3  C3  MIQ B 502      24.207  -6.048   6.804  1.00141.71     0.035 A 
HETATM    4  C4  MIQ B 502      25.040  -5.468   7.884  1.00142.86     0.046 A 
HETATM    5  C5  MIQ B 502      25.535  -4.144   7.776  1.00139.53     0.031 A 
HETATM    6  C12 MIQ B 502      25.222  -3.350   6.596  1.00139.38     0.030 A 
HETATM    7  C13 MIQ B 502      24.424  -3.906   5.560  1.00141.18     0.019 A 
HETATM    8  C14 MIQ B 502      23.910  -5.298   5.678  1.00138.77     0.033 A 
HETATM    9  C15 MIQ B 502      23.034  -6.226   4.775  1.00142.10     0.195 A 
HETATM   10  N17 MIQ B 502      22.916  -7.368   5.431  1.00139.42    -0.288 N 
HETATM   11  O16 MIQ B 502      22.487  -5.907   3.531  1.00148.93    -0.171 OA
ENDROOT
BRANCH  10  12
HETATM   12  C18 MIQ B 502      22.146  -8.474   4.894  1.00139.82     0.187 C 
HETATM   13  C19 MIQ B 502      21.103  -8.872   5.946  1.00140.06     0.247 C 
HETATM   14  O25 MIQ B 502      20.410  -8.040   6.414  1.00143.95    -0.271 OA
HETATM   15  N20 MIQ B 502      20.939 -10.245   6.378  1.00140.02    -0.296 N 
HETATM   16  H13 MIQ B 502      20.259 -10.491   7.070  1.00142.77     0.171 HD
HETATM   17  C21 MIQ B 502      21.803 -11.242   5.800  1.00142.22     0.224 C 
HETATM   18  C22 MIQ B 502      23.211 -10.802   5.448  1.00139.52     0.106 C 
HETATM   19  O24 MIQ B 502      21.429 -12.346   5.605  1.00146.13    -0.273 OA
HETATM   20  C23 MIQ B 502      23.071  -9.625   4.500  1.00139.15     0.045 C 
ENDBRANCH  10  12
BRANCH   5  21
HETATM   21  N6  MIQ B 502      26.337  -3.584   8.848  1.00140.95    -0.377 N 
HETATM   22  C7  MIQ B 502      26.572  -4.390  10.034  1.00142.12     0.149 C 
HETATM   23  C8  MIQ B 502      26.827  -3.530  11.265  1.00144.10     0.187 C 
HETATM   24  O9  MIQ B 502      27.762  -2.518  11.037  1.00148.65    -0.388 OA
HETATM   25  C10 MIQ B 502      28.195  -2.235   9.739  1.00147.44     0.187 C 
HETATM   26  C11 MIQ B 502      27.233  -2.473   8.580  1.00144.08     0.149 C 
ENDBRANCH   5  21
TORSDOF 2
ENDMDL
MODEL 9
REMARK VINA RESULT:      -6.3      2.693      4.839
REMARK  2 active torsions:
REMARK  status: ('A' for Active; 'I' for Inactive)
REMARK    1  A    between atoms: C5_5  and  N6_21 
REMARK    2  A    between atoms: C18_14  and  N17_19 
ROOT
HETATM    1  O1  MIQ B 502      25.531  -5.239  13.604  1.00142.91    -0.171 OA
HETATM    2  C2  MIQ B 502      26.374  -6.026  12.815  1.00141.17     0.195 A 
HETATM    3  C3  MIQ B 502      26.651  -5.838  11.290  1.00141.71     0.035 A 
HETATM    4  C4  MIQ B 502      26.170  -4.867  10.279  1.00142.86     0.046 A 
HETATM    5  C5  MIQ B 502      26.614  -4.952   8.935  1.00139.53     0.031 A 
HETATM    6  C12 MIQ B 502      27.547  -6.000   8.547  1.00139.38     0.030 A 
HETATM    7  C13 MIQ B 502      28.009  -6.931   9.517  1.00141.18     0.019 A 
HETATM    8  C14 MIQ B 502      27.542  -6.835  10.927  1.00138.77     0.033 A 
HETATM    9  C15 MIQ B 502      27.820  -7.646  12.234  1.00142.10     0.195 A 
HETATM   10  N17 MIQ B 502      27.101  -7.068  13.182  1.00139.42    -0.288 N 
HETATM   11  O16 MIQ B 502      28.656  -8.755  12.368  1.00148.93    -0.171 OA
ENDROOT
BRANCH  10  12
HETATM   12  C18 MIQ B 502      27.099  -7.570  14.544  1.00139.82     0.187 C 
HETATM   13  C19 MIQ B 502      25.641  -7.826  14.946  1.00140.06     0.247 C 
HETATM   14  O25 MIQ B 502      24.953  -8.472  14.237  1.00143.95    -0.271 OA
HETATM   15  N20 MIQ B 502      25.084  -7.302  16.176  1.00140.02    -0.296 N 
HETATM   16  H13 MIQ B 502      24.129  -7.471  16.424  1.00142.77     0.171 HD
HETATM   17  C21 MIQ B 502      25.941  -6.508  17.019  1.00142.22     0.224 C 
HETATM   18  C22 MIQ B 502      26.978  -5.650  16.321  1.00139.52     0.106 C 
HETATM   19  O24 MIQ B 502      25.841  -6.529  18.196  1.00146.13    -0.273 OA
HETATM   20  C23 MIQ B 502      27.815  -6.590  15.472  1.00139.15     0.045 C 
ENDBRANCH  10  12
BRANCH   5  21
HETATM   21  N6  MIQ B 502      26.123  -4.003   7.952  1.00140.95    -0.377 N 
HETATM   22  C7  MIQ B 502      24.987  -4.380   7.130  1.00142.12     0.149 C 
HETATM   23  C8  MIQ B 502      24.986  -3.651   5.792  1.00144.10     0.187 C 
HETATM   24  O9  MIQ B 502      25.199  -2.278   5.922  1.00148.65    -0.388 OA
HETATM   25  C10 MIQ B 502      25.597  -1.736   7.147  1.00147.44     0.187 C 
HETATM   26  C11 MIQ B 502      26.444  -2.593   8.083  1.00144.08     0.149 C 
ENDBRANCH   5  21
TORSDOF 2
ENDMDL
