MODEL 1
REMARK VINA RESULT:      -7.2      0.000      0.000
REMARK  2 active torsions:
REMARK  status: ('A' for Active; 'I' for Inactive)
REMARK    1  A    between atoms: C5_5  and  N6_21 
REMARK    2  A    between atoms: C18_14  and  N17_19 
ROOT
HETATM    1  O1  MIQ B 502       5.509   1.142  18.411  1.00142.91    -0.171 OA
HETATM    2  C2  MIQ B 502       4.597   0.461  17.601  1.00141.17     0.195 A 
HETATM    3  C3  MIQ B 502       3.079   0.791  17.442  1.00141.71     0.035 A 
HETATM    4  C4  MIQ B 502       2.195   1.826  18.029  1.00142.86     0.046 A 
HETATM    5  C5  MIQ B 502       0.821   1.875  17.682  1.00139.53     0.031 A 
HETATM    6  C12 MIQ B 502       0.278   0.905  16.742  1.00139.38     0.030 A 
HETATM    7  C13 MIQ B 502       1.126  -0.086  16.178  1.00141.18     0.019 A 
HETATM    8  C14 MIQ B 502       2.568  -0.132  16.545  1.00138.77     0.033 A 
HETATM    9  C15 MIQ B 502       3.775  -1.040  16.144  1.00142.10     0.195 A 
HETATM   10  N17 MIQ B 502       4.819  -0.577  16.812  1.00139.42    -0.288 N 
HETATM   11  O16 MIQ B 502       3.751  -2.121  15.261  1.00148.93    -0.171 OA
ENDROOT
BRANCH  10  12
HETATM   12  C18 MIQ B 502       6.127  -1.194  16.697  1.00139.82     0.187 C 
HETATM   13  C19 MIQ B 502       6.427  -1.379  15.205  1.00140.06     0.247 C 
HETATM   14  O25 MIQ B 502       6.309  -0.460  14.475  1.00143.95    -0.271 OA
HETATM   15  N20 MIQ B 502       6.859  -2.652  14.665  1.00140.02    -0.296 N 
HETATM   16  H13 MIQ B 502       7.046  -2.761  13.687  1.00142.77     0.171 HD
HETATM   17  C21 MIQ B 502       6.987  -3.762  15.574  1.00142.22     0.224 C 
HETATM   18  C22 MIQ B 502       6.009  -3.810  16.732  1.00139.52     0.106 C 
HETATM   19  O24 MIQ B 502       7.817  -4.590  15.425  1.00146.13    -0.273 OA
HETATM   20  C23 MIQ B 502       6.169  -2.502  17.486  1.00139.15     0.045 C 
ENDBRANCH  10  12
BRANCH   5  21
HETATM   21  N6  MIQ B 502      -0.037   2.884  18.276  1.00140.95    -0.377 N 
HETATM   22  C7  MIQ B 502      -1.166   3.377  17.506  1.00142.12     0.149 C 
HETATM   23  C8  MIQ B 502      -1.560   4.790  17.915  1.00144.10     0.187 C 
HETATM   24  O9  MIQ B 502      -1.667   4.946  19.298  1.00148.65    -0.388 OA
HETATM   25  C10 MIQ B 502      -1.219   3.942  20.160  1.00147.44     0.187 C 
HETATM   26  C11 MIQ B 502      -0.051   3.068  19.717  1.00144.08     0.149 C 
ENDBRANCH   5  21
TORSDOF 2
ENDMDL
MODEL 2
REMARK VINA RESULT:      -6.8      4.917     10.363
REMARK  2 active torsions:
REMARK  status: ('A' for Active; 'I' for Inactive)
REMARK    1  A    between atoms: C5_5  and  N6_21 
REMARK    2  A    between atoms: C18_14  and  N17_19 
ROOT
HETATM    1  O1  MIQ B 502       7.781  -3.200  16.252  1.00142.91    -0.171 OA
HETATM    2  C2  MIQ B 502       7.423  -3.655  17.523  1.00141.17     0.195 A 
HETATM    3  C3  MIQ B 502       8.317  -4.499  18.486  1.00141.71     0.035 A 
HETATM    4  C4  MIQ B 502       9.695  -5.037  18.388  1.00142.86     0.046 A 
HETATM    5  C5  MIQ B 502      10.249  -5.786  19.457  1.00139.53     0.031 A 
HETATM    6  C12 MIQ B 502       9.461  -6.024  20.657  1.00139.38     0.030 A 
HETATM    7  C13 MIQ B 502       8.141  -5.507  20.752  1.00141.18     0.019 A 
HETATM    8  C14 MIQ B 502       7.565  -4.720  19.628  1.00138.77     0.033 A 
HETATM    9  C15 MIQ B 502       6.196  -4.010  19.372  1.00142.10     0.195 A 
HETATM   10  N17 MIQ B 502       6.284  -3.470  18.168  1.00139.42    -0.288 N 
HETATM   11  O16 MIQ B 502       5.104  -3.961  20.241  1.00148.93    -0.171 OA
ENDROOT
BRANCH  10  12
HETATM   12  C18 MIQ B 502       5.178  -2.733  17.585  1.00139.82     0.187 C 
HETATM   13  C19 MIQ B 502       4.888  -3.339  16.206  1.00140.06     0.247 C 
HETATM   14  O25 MIQ B 502       4.740  -4.506  16.109  1.00143.95    -0.271 OA
HETATM   15  N20 MIQ B 502       4.783  -2.518  15.018  1.00140.02    -0.296 N 
HETATM   16  H13 MIQ B 502       4.600  -2.926  14.122  1.00142.77     0.171 HD
HETATM   17  C21 MIQ B 502       4.977  -1.098  15.160  1.00142.22     0.224 C 
HETATM   18  C22 MIQ B 502       5.971  -0.648  16.214  1.00139.52     0.106 C 
HETATM   19  O24 MIQ B 502       4.386  -0.323  14.491  1.00146.13    -0.273 OA
HETATM   20  C23 MIQ B 502       5.502  -1.241  17.530  1.00139.15     0.045 C 
ENDBRANCH  10  12
BRANCH   5  21
HETATM   21  N6  MIQ B 502      11.594  -6.320  19.341  1.00140.95    -0.377 N 
HETATM   22  C7  MIQ B 502      12.137  -6.552  18.014  1.00142.12     0.149 C 
HETATM   23  C8  MIQ B 502      13.194  -7.649  18.015  1.00144.10     0.187 C 
HETATM   24  O9  MIQ B 502      14.141  -7.491  19.028  1.00148.65    -0.388 OA
HETATM   25  C10 MIQ B 502      13.946  -6.544  20.037  1.00147.44     0.187 C 
HETATM   26  C11 MIQ B 502      12.518  -6.207  20.455  1.00144.08     0.149 C 
ENDBRANCH   5  21
TORSDOF 2
ENDMDL
MODEL 3
REMARK VINA RESULT:      -6.8     10.242     11.982
REMARK  2 active torsions:
REMARK  status: ('A' for Active; 'I' for Inactive)
REMARK    1  A    between atoms: C5_5  and  N6_21 
REMARK    2  A    between atoms: C18_14  and  N17_19 
ROOT
HETATM    1  O1  MIQ B 502       7.787   9.698  19.084  1.00142.91    -0.171 OA
HETATM    2  C2  MIQ B 502       8.810   8.837  18.681  1.00141.17     0.195 A 
HETATM    3  C3  MIQ B 502       9.359   8.673  17.227  1.00141.71     0.035 A 
HETATM    4  C4  MIQ B 502       9.017   9.307  15.932  1.00142.86     0.046 A 
HETATM    5  C5  MIQ B 502       9.711   8.943  14.750  1.00139.53     0.031 A 
HETATM    6  C12 MIQ B 502      10.765   7.940  14.812  1.00139.38     0.030 A 
HETATM    7  C13 MIQ B 502      11.093   7.332  16.054  1.00141.18     0.019 A 
HETATM    8  C14 MIQ B 502      10.363   7.721  17.291  1.00138.77     0.033 A 
HETATM    9  C15 MIQ B 502      10.439   7.292  18.793  1.00142.10     0.195 A 
HETATM   10  N17 MIQ B 502       9.519   8.003  19.423  1.00139.42    -0.288 N 
HETATM   11  O16 MIQ B 502      11.302   6.347  19.349  1.00148.93    -0.171 OA
ENDROOT
BRANCH  10  12
HETATM   12  C18 MIQ B 502       9.291   7.855  20.848  1.00139.82     0.187 C 
HETATM   13  C19 MIQ B 502      10.643   8.008  21.556  1.00140.06     0.247 C 
HETATM   14  O25 MIQ B 502      11.318   8.944  21.313  1.00143.95    -0.271 OA
HETATM   15  N20 MIQ B 502      11.114   7.036  22.521  1.00140.02    -0.296 N 
HETATM   16  H13 MIQ B 502      12.001   7.144  22.972  1.00142.77     0.171 HD
HETATM   17  C21 MIQ B 502      10.277   5.895  22.793  1.00142.22     0.224 C 
HETATM   18  C22 MIQ B 502       9.454   5.363  21.636  1.00139.52     0.106 C 
HETATM   19  O24 MIQ B 502      10.232   5.404  23.867  1.00146.13    -0.273 OA
HETATM   20  C23 MIQ B 502       8.607   6.521  21.141  1.00139.15     0.045 C 
ENDBRANCH  10  12
BRANCH   5  21
HETATM   21  N6  MIQ B 502       9.357   9.561  13.486  1.00140.95    -0.377 N 
HETATM   22  C7  MIQ B 502       8.622  10.814  13.508  1.00142.12     0.149 C 
HETATM   23  C8  MIQ B 502       7.786  11.005  12.248  1.00144.10     0.187 C 
HETATM   24  O9  MIQ B 502       8.503  10.754  11.077  1.00148.65    -0.388 OA
HETATM   25  C10 MIQ B 502       9.770  10.168  11.135  1.00147.44     0.187 C 
HETATM   26  C11 MIQ B 502      10.076   9.204  12.276  1.00144.08     0.149 C 
ENDBRANCH   5  21
TORSDOF 2
ENDMDL
MODEL 4
REMARK VINA RESULT:      -6.8      2.166      2.571
REMARK  2 active torsions:
REMARK  status: ('A' for Active; 'I' for Inactive)
REMARK    1  A    between atoms: C5_5  and  N6_21 
REMARK    2  A    between atoms: C18_14  and  N17_19 
ROOT
HETATM    1  O1  MIQ B 502       4.445  -2.096  18.795  1.00142.91    -0.171 OA
HETATM    2  C2  MIQ B 502       3.843  -1.442  17.717  1.00141.17     0.195 A 
HETATM    3  C3  MIQ B 502       2.509  -0.631  17.760  1.00141.71     0.035 A 
HETATM    4  C4  MIQ B 502       1.542  -0.315  18.838  1.00142.86     0.046 A 
HETATM    5  C5  MIQ B 502       0.392   0.467  18.563  1.00139.53     0.031 A 
HETATM    6  C12 MIQ B 502       0.161   0.963  17.214  1.00139.38     0.030 A 
HETATM    7  C13 MIQ B 502       1.089   0.662  16.180  1.00141.18     0.019 A 
HETATM    8  C14 MIQ B 502       2.295  -0.158  16.475  1.00138.77     0.033 A 
HETATM    9  C15 MIQ B 502       3.504  -0.678  15.631  1.00142.10     0.195 A 
HETATM   10  N17 MIQ B 502       4.265  -1.366  16.467  1.00139.42    -0.288 N 
HETATM   11  O16 MIQ B 502       3.729  -0.461  14.270  1.00148.93    -0.171 OA
ENDROOT
BRANCH  10  12
HETATM   12  C18 MIQ B 502       5.483  -2.016  16.022  1.00139.82     0.187 C 
HETATM   13  C19 MIQ B 502       5.395  -3.495  16.418  1.00140.06     0.247 C 
HETATM   14  O25 MIQ B 502       4.434  -4.113  16.126  1.00143.95    -0.271 OA
HETATM   15  N20 MIQ B 502       6.463  -4.158  17.137  1.00140.02    -0.296 N 
HETATM   16  H13 MIQ B 502       6.391  -5.122  17.396  1.00142.77     0.171 HD
HETATM   17  C21 MIQ B 502       7.622  -3.380  17.492  1.00142.22     0.224 C 
HETATM   18  C22 MIQ B 502       7.387  -1.917  17.817  1.00139.52     0.106 C 
HETATM   19  O24 MIQ B 502       8.702  -3.858  17.522  1.00146.13    -0.273 OA
HETATM   20  C23 MIQ B 502       6.706  -1.310  16.604  1.00139.15     0.045 C 
ENDBRANCH  10  12
BRANCH   5  21
HETATM   21  N6  MIQ B 502      -0.554   0.756  19.625  1.00140.95    -0.377 N 
HETATM   22  C7  MIQ B 502      -1.245   2.034  19.611  1.00142.12     0.149 C 
HETATM   23  C8  MIQ B 502      -1.663   2.470  21.010  1.00144.10     0.187 C 
HETATM   24  O9  MIQ B 502      -2.299   1.455  21.728  1.00148.65    -0.388 OA
HETATM   25  C10 MIQ B 502      -2.306   0.144  21.245  1.00147.44     0.187 C 
HETATM   26  C11 MIQ B 502      -1.125  -0.329  20.403  1.00144.08     0.149 C 
ENDBRANCH   5  21
TORSDOF 2
ENDMDL
MODEL 5
REMARK VINA RESULT:      -6.7     11.721     13.664
REMARK  2 active torsions:
REMARK  status: ('A' for Active; 'I' for Inactive)
REMARK    1  A    between atoms: C5_5  and  N6_21 
REMARK    2  A    between atoms: C18_14  and  N17_19 
ROOT
HETATM    1  O1  MIQ B 502       8.613  12.110  14.570  1.00142.91    -0.171 OA
HETATM    2  C2  MIQ B 502       9.056  10.940  13.948  1.00141.17     0.195 A 
HETATM    3  C3  MIQ B 502       9.491   9.623  14.666  1.00141.71     0.035 A 
HETATM    4  C4  MIQ B 502       9.568   9.215  16.089  1.00142.86     0.046 A 
HETATM    5  C5  MIQ B 502      10.013   7.915  16.438  1.00139.53     0.031 A 
HETATM    6  C12 MIQ B 502      10.394   6.976  15.393  1.00139.38     0.030 A 
HETATM    7  C13 MIQ B 502      10.319   7.366  14.029  1.00141.18     0.019 A 
HETATM    8  C14 MIQ B 502       9.849   8.732  13.667  1.00138.77     0.033 A 
HETATM    9  C15 MIQ B 502       9.635   9.500  12.323  1.00142.10     0.195 A 
HETATM   10  N17 MIQ B 502       9.193  10.702  12.655  1.00139.42    -0.288 N 
HETATM   11  O16 MIQ B 502       9.868   9.013  11.035  1.00148.93    -0.171 OA
ENDROOT
BRANCH  10  12
HETATM   12  C18 MIQ B 502       8.897  11.705  11.650  1.00139.82     0.187 C 
HETATM   13  C19 MIQ B 502       9.707  12.962  11.990  1.00140.06     0.247 C 
HETATM   14  O25 MIQ B 502      10.866  12.864  12.187  1.00143.95    -0.271 OA
HETATM   15  N20 MIQ B 502       9.089  14.270  12.071  1.00140.02    -0.296 N 
HETATM   16  H13 MIQ B 502       9.628  15.081  12.301  1.00142.77     0.171 HD
HETATM   17  C21 MIQ B 502       7.671  14.362  11.837  1.00142.22     0.224 C 
HETATM   18  C22 MIQ B 502       6.829  13.182  12.283  1.00139.52     0.106 C 
HETATM   19  O24 MIQ B 502       7.191  15.309  11.319  1.00146.13    -0.273 OA
HETATM   20  C23 MIQ B 502       7.392  11.960  11.580  1.00139.15     0.045 C 
ENDBRANCH  10  12
BRANCH   5  21
HETATM   21  N6  MIQ B 502      10.098   7.534  17.837  1.00140.95    -0.377 N 
HETATM   22  C7  MIQ B 502      11.401   7.209  18.390  1.00142.12     0.149 C 
HETATM   23  C8  MIQ B 502      11.296   6.253  19.571  1.00144.10     0.187 C 
HETATM   24  O9  MIQ B 502      10.333   6.646  20.503  1.00148.65    -0.388 OA
HETATM   25  C10 MIQ B 502       9.439   7.678  20.206  1.00147.44     0.187 C 
HETATM   26  C11 MIQ B 502       9.029   7.891  18.752  1.00144.08     0.149 C 
ENDBRANCH   5  21
TORSDOF 2
ENDMDL
MODEL 6
REMARK VINA RESULT:      -6.6     13.440     15.266
REMARK  2 active torsions:
REMARK  status: ('A' for Active; 'I' for Inactive)
REMARK    1  A    between atoms: C5_5  and  N6_21 
REMARK    2  A    between atoms: C18_14  and  N17_19 
ROOT
HETATM    1  O1  MIQ B 502      10.109  -7.797  10.416  1.00142.91    -0.171 OA
HETATM    2  C2  MIQ B 502      10.965  -8.891  10.266  1.00141.17     0.195 A 
HETATM    3  C3  MIQ B 502      11.690  -9.658  11.416  1.00141.71     0.035 A 
HETATM    4  C4  MIQ B 502      11.709  -9.505  12.890  1.00142.86     0.046 A 
HETATM    5  C5  MIQ B 502      12.485 -10.380  13.692  1.00139.53     0.031 A 
HETATM    6  C12 MIQ B 502      13.266 -11.435  13.063  1.00139.38     0.030 A 
HETATM    7  C13 MIQ B 502      13.247 -11.584  11.650  1.00141.18     0.019 A 
HETATM    8  C14 MIQ B 502      12.429 -10.663  10.813  1.00138.77     0.033 A 
HETATM    9  C15 MIQ B 502      12.160 -10.519   9.280  1.00142.10     0.195 A 
HETATM   10  N17 MIQ B 502      11.331  -9.497   9.149  1.00139.42    -0.288 N 
HETATM   11  O16 MIQ B 502      12.693 -11.309   8.260  1.00148.93    -0.171 OA
ENDROOT
BRANCH  10  12
HETATM   12  C18 MIQ B 502      10.870  -9.057   7.845  1.00139.82     0.187 C 
HETATM   13  C19 MIQ B 502      11.282  -7.590   7.674  1.00140.06     0.247 C 
HETATM   14  O25 MIQ B 502      12.403  -7.279   7.872  1.00143.95    -0.271 OA
HETATM   15  N20 MIQ B 502      10.334  -6.573   7.268  1.00140.02    -0.296 N 
HETATM   16  H13 MIQ B 502      10.614  -5.617   7.166  1.00142.77     0.171 HD
HETATM   17  C21 MIQ B 502       8.970  -6.974   7.042  1.00142.22     0.224 C 
HETATM   18  C22 MIQ B 502       8.436  -8.095   7.913  1.00139.52     0.106 C 
HETATM   19  O24 MIQ B 502       8.303  -6.458   6.213  1.00146.13    -0.273 OA
HETATM   20  C23 MIQ B 502       9.364  -9.278   7.711  1.00139.15     0.045 C 
ENDBRANCH  10  12
BRANCH   5  21
HETATM   21  N6  MIQ B 502      12.505 -10.208  15.134  1.00140.95    -0.377 N 
HETATM   22  C7  MIQ B 502      13.614 -10.773  15.884  1.00142.12     0.149 C 
HETATM   23  C8  MIQ B 502      13.222 -11.095  17.321  1.00144.10     0.187 C 
HETATM   24  O9  MIQ B 502      12.549 -10.046  17.949  1.00148.65    -0.388 OA
HETATM   25  C10 MIQ B 502      12.108  -8.945  17.210  1.00147.44     0.187 C 
HETATM   26  C11 MIQ B 502      11.719  -9.154  15.750  1.00144.08     0.149 C 
ENDBRANCH   5  21
TORSDOF 2
ENDMDL
MODEL 7
REMARK VINA RESULT:      -6.6      5.980      9.406
REMARK  2 active torsions:
REMARK  status: ('A' for Active; 'I' for Inactive)
REMARK    1  A    between atoms: C5_5  and  N6_21 
REMARK    2  A    between atoms: C18_14  and  N17_19 
ROOT
HETATM    1  O1  MIQ B 502      11.904  -5.560  18.375  1.00142.91    -0.171 OA
HETATM    2  C2  MIQ B 502      10.708  -5.878  19.022  1.00141.17     0.195 A 
HETATM    3  C3  MIQ B 502       9.320  -5.202  18.780  1.00141.71     0.035 A 
HETATM    4  C4  MIQ B 502       8.857  -4.120  17.880  1.00142.86     0.046 A 
HETATM    5  C5  MIQ B 502       7.498  -3.715  17.886  1.00139.53     0.031 A 
HETATM    6  C12 MIQ B 502       6.554  -4.368  18.781  1.00139.38     0.030 A 
HETATM    7  C13 MIQ B 502       6.997  -5.407  19.644  1.00141.18     0.019 A 
HETATM    8  C14 MIQ B 502       8.424  -5.829  19.631  1.00138.77     0.033 A 
HETATM    9  C15 MIQ B 502       9.260  -6.900  20.406  1.00142.10     0.195 A 
HETATM   10  N17 MIQ B 502      10.498  -6.797  19.949  1.00139.42    -0.288 N 
HETATM   11  O16 MIQ B 502       8.792  -7.780  21.382  1.00148.93    -0.171 OA
ENDROOT
BRANCH  10  12
HETATM   12  C18 MIQ B 502      11.565  -7.636  20.459  1.00139.82     0.187 C 
HETATM   13  C19 MIQ B 502      12.454  -6.768  21.359  1.00140.06     0.247 C 
HETATM   14  O25 MIQ B 502      11.956  -6.124  22.211  1.00143.95    -0.271 OA
HETATM   15  N20 MIQ B 502      13.893  -6.722  21.194  1.00140.02    -0.296 N 
HETATM   16  H13 MIQ B 502      14.461  -6.146  21.784  1.00142.77     0.171 HD
HETATM   17  C21 MIQ B 502      14.477  -7.509  20.140  1.00142.22     0.224 C 
HETATM   18  C22 MIQ B 502      13.652  -7.678  18.878  1.00139.52     0.106 C 
HETATM   19  O24 MIQ B 502      15.544  -8.004  20.256  1.00146.13    -0.273 OA
HETATM   20  C23 MIQ B 502      12.329  -8.285  19.306  1.00139.15     0.045 C 
ENDBRANCH  10  12
BRANCH   5  21
HETATM   21  N6  MIQ B 502       7.061  -2.644  17.010  1.00140.95    -0.377 N 
HETATM   22  C7  MIQ B 502       6.352  -2.989  15.790  1.00142.12     0.149 C 
HETATM   23  C8  MIQ B 502       6.526  -1.928  14.711  1.00144.10     0.187 C 
HETATM   24  O9  MIQ B 502       6.306  -0.632  15.182  1.00148.65    -0.388 OA
HETATM   25  C10 MIQ B 502       6.178  -0.390  16.553  1.00147.44     0.187 C 
HETATM   26  C11 MIQ B 502       6.929  -1.292  17.526  1.00144.08     0.149 C 
ENDBRANCH   5  21
TORSDOF 2
ENDMDL
MODEL 8
REMARK VINA RESULT:      -6.6     11.133     12.256
REMARK  2 active torsions:
REMARK  status: ('A' for Active; 'I' for Inactive)
REMARK    1  A    between atoms: C5_5  and  N6_21 
REMARK    2  A    between atoms: C18_14  and  N17_19 
ROOT
HETATM    1  O1  MIQ B 502       8.058  10.536  17.158  1.00142.91    -0.171 OA
HETATM    2  C2  MIQ B 502       9.089   9.629  16.902  1.00141.17     0.195 A 
HETATM    3  C3  MIQ B 502       9.758   8.676  17.942  1.00141.71     0.035 A 
HETATM    4  C4  MIQ B 502       9.547   8.437  19.390  1.00142.86     0.046 A 
HETATM    5  C5  MIQ B 502      10.331   7.479  20.081  1.00139.53     0.031 A 
HETATM    6  C12 MIQ B 502      11.348   6.725  19.363  1.00139.38     0.030 A 
HETATM    7  C13 MIQ B 502      11.551   6.953  17.975  1.00141.18     0.019 A 
HETATM    8  C14 MIQ B 502      10.723   7.959  17.254  1.00138.77     0.033 A 
HETATM    9  C15 MIQ B 502      10.652   8.469  15.778  1.00142.10     0.195 A 
HETATM   10  N17 MIQ B 502       9.698   9.385  15.754  1.00139.42    -0.288 N 
HETATM   11  O16 MIQ B 502      11.439   8.043  14.707  1.00148.93    -0.171 OA
ENDROOT
BRANCH  10  12
HETATM   12  C18 MIQ B 502       9.360  10.095  14.535  1.00139.82     0.187 C 
HETATM   13  C19 MIQ B 502       9.004   9.052  13.469  1.00140.06     0.247 C 
HETATM   14  O25 MIQ B 502       8.214   8.214  13.724  1.00143.95    -0.271 OA
HETATM   15  N20 MIQ B 502       9.608   9.068  12.153  1.00140.02    -0.296 N 
HETATM   16  H13 MIQ B 502       9.372   8.377  11.468  1.00142.77     0.171 HD
HETATM   17  C21 MIQ B 502      10.579  10.093  11.868  1.00142.22     0.224 C 
HETATM   18  C22 MIQ B 502      11.451  10.545  13.023  1.00139.52     0.106 C 
HETATM   19  O24 MIQ B 502      10.684  10.562  10.788  1.00146.13    -0.273 OA
HETATM   20  C23 MIQ B 502      10.509  11.013  14.118  1.00139.15     0.045 C 
ENDBRANCH  10  12
BRANCH   5  21
HETATM   21  N6  MIQ B 502      10.123   7.267  21.501  1.00140.95    -0.377 N 
HETATM   22  C7  MIQ B 502      10.809   6.160  22.146  1.00142.12     0.149 C 
HETATM   23  C8  MIQ B 502      10.057   5.662  23.374  1.00144.10     0.187 C 
HETATM   24  O9  MIQ B 502       9.662   6.696  24.225  1.00148.65    -0.388 OA
HETATM   25  C10 MIQ B 502       9.767   8.028  23.817  1.00147.44     0.187 C 
HETATM   26  C11 MIQ B 502       9.627   8.350  22.332  1.00144.08     0.149 C 
ENDBRANCH   5  21
TORSDOF 2
ENDMDL
MODEL 9
REMARK VINA RESULT:      -6.6     10.232     11.911
REMARK  2 active torsions:
REMARK  status: ('A' for Active; 'I' for Inactive)
REMARK    1  A    between atoms: C5_5  and  N6_21 
REMARK    2  A    between atoms: C18_14  and  N17_19 
ROOT
HETATM    1  O1  MIQ B 502       7.323   8.216  20.193  1.00142.91    -0.171 OA
HETATM    2  C2  MIQ B 502       8.617   7.705  20.069  1.00141.17     0.195 A 
HETATM    3  C3  MIQ B 502       9.517   7.772  18.794  1.00141.71     0.035 A 
HETATM    4  C4  MIQ B 502       9.323   8.339  17.439  1.00142.86     0.046 A 
HETATM    5  C5  MIQ B 502      10.352   8.244  16.468  1.00139.53     0.031 A 
HETATM    6  C12 MIQ B 502      11.606   7.585  16.806  1.00139.38     0.030 A 
HETATM    7  C13 MIQ B 502      11.792   7.041  18.105  1.00141.18     0.019 A 
HETATM    8  C14 MIQ B 502      10.709   7.146  19.121  1.00138.77     0.033 A 
HETATM    9  C15 MIQ B 502      10.549   6.689  20.608  1.00142.10     0.195 A 
HETATM   10  N17 MIQ B 502       9.340   7.077  20.981  1.00139.42    -0.288 N 
HETATM   11  O16 MIQ B 502      11.492   6.009  21.379  1.00148.93    -0.171 OA
ENDROOT
BRANCH  10  12
HETATM   12  C18 MIQ B 502       8.835   6.804  22.313  1.00139.82     0.187 C 
HETATM   13  C19 MIQ B 502       9.876   7.307  23.320  1.00140.06     0.247 C 
HETATM   14  O25 MIQ B 502      10.288   8.408  23.222  1.00143.95    -0.271 OA
HETATM   15  N20 MIQ B 502      10.367   6.468  24.395  1.00140.02    -0.296 N 
HETATM   16  H13 MIQ B 502      11.052   6.806  25.042  1.00142.77     0.171 HD
HETATM   17  C21 MIQ B 502       9.857   5.124  24.488  1.00142.22     0.224 C 
HETATM   18  C22 MIQ B 502       9.522   4.431  23.181  1.00139.52     0.106 C 
HETATM   19  O24 MIQ B 502       9.704   4.593  25.532  1.00146.13    -0.273 OA
HETATM   20  C23 MIQ B 502       8.517   5.318  22.468  1.00139.15     0.045 C 
ENDBRANCH  10  12
BRANCH   5  21
HETATM   21  N6  MIQ B 502      10.143   8.791  15.140  1.00140.95    -0.377 N 
HETATM   22  C7  MIQ B 502       8.828   9.306  14.800  1.00142.12     0.149 C 
HETATM   23  C8  MIQ B 502       8.560   9.235  13.302  1.00144.10     0.187 C 
HETATM   24  O9  MIQ B 502       9.613   9.739  12.537  1.00148.65    -0.388 OA
HETATM   25  C10 MIQ B 502      10.841  10.037  13.133  1.00147.44     0.187 C 
HETATM   26  C11 MIQ B 502      11.280   9.223  14.346  1.00144.08     0.149 C 
ENDBRANCH   5  21
TORSDOF 2
ENDMDL
