MODEL 1
REMARK VINA RESULT:      -7.2      0.000      0.000
REMARK  2 active torsions:
REMARK  status: ('A' for Active; 'I' for Inactive)
REMARK    1  A    between atoms: C5_5  and  N6_21 
REMARK    2  A    between atoms: C18_14  and  N17_19 
ROOT
HETATM    1  O1  MIQ B 502      16.554   0.509  15.065  1.00142.91    -0.171 OA
HETATM    2  C2  MIQ B 502      16.293  -0.642  15.812  1.00141.17     0.195 A 
HETATM    3  C3  MIQ B 502      14.901  -1.328  15.993  1.00141.71     0.035 A 
HETATM    4  C4  MIQ B 502      13.542  -1.024  15.487  1.00142.86     0.046 A 
HETATM    5  C5  MIQ B 502      12.446  -1.855  15.832  1.00139.53     0.031 A 
HETATM    6  C12 MIQ B 502      12.659  -3.013  16.687  1.00139.38     0.030 A 
HETATM    7  C13 MIQ B 502      13.962  -3.306  17.172  1.00141.18     0.019 A 
HETATM    8  C14 MIQ B 502      15.109  -2.431  16.804  1.00138.77     0.033 A 
HETATM    9  C15 MIQ B 502      16.639  -2.430  17.128  1.00142.10     0.195 A 
HETATM   10  N17 MIQ B 502      17.144  -1.380  16.502  1.00139.42    -0.288 N 
HETATM   11  O16 MIQ B 502      17.326  -3.352  17.920  1.00148.93    -0.171 OA
ENDROOT
BRANCH  10  12
HETATM   12  C18 MIQ B 502      18.555  -1.052  16.591  1.00139.82     0.187 C 
HETATM   13  C19 MIQ B 502      18.667   0.417  17.015  1.00140.06     0.247 C 
HETATM   14  O25 MIQ B 502      18.067   0.792  17.960  1.00143.95    -0.271 OA
HETATM   15  N20 MIQ B 502      19.495   1.360  16.292  1.00140.02    -0.296 N 
HETATM   16  H13 MIQ B 502      19.555   2.318  16.575  1.00142.77     0.171 HD
HETATM   17  C21 MIQ B 502      20.210   0.882  15.136  1.00142.22     0.224 C 
HETATM   18  C22 MIQ B 502      19.533  -0.200  14.316  1.00139.52     0.106 C 
HETATM   19  O24 MIQ B 502      21.273   1.309  14.846  1.00146.13    -0.273 OA
HETATM   20  C23 MIQ B 502      19.255  -1.350  15.267  1.00139.15     0.045 C 
ENDBRANCH  10  12
BRANCH   5  21
HETATM   21  N6  MIQ B 502      11.117  -1.537  15.341  1.00140.95    -0.377 N 
HETATM   22  C7  MIQ B 502      10.880  -1.570  13.908  1.00142.12     0.149 C 
HETATM   23  C8  MIQ B 502       9.742  -0.643  13.499  1.00144.10     0.187 C 
HETATM   24  O9  MIQ B 502       8.606  -0.792  14.296  1.00148.65    -0.388 OA
HETATM   25  C10 MIQ B 502       8.657  -1.552  15.467  1.00147.44     0.187 C 
HETATM   26  C11 MIQ B 502       9.974  -1.624  16.233  1.00144.08     0.149 C 
ENDBRANCH   5  21
TORSDOF 2
ENDMDL
MODEL 2
REMARK VINA RESULT:      -7.1      2.453      8.073
REMARK  2 active torsions:
REMARK  status: ('A' for Active; 'I' for Inactive)
REMARK    1  A    between atoms: C5_5  and  N6_21 
REMARK    2  A    between atoms: C18_14  and  N17_19 
ROOT
HETATM    1  O1  MIQ B 502      12.071  -0.655  12.953  1.00142.91    -0.171 OA
HETATM    2  C2  MIQ B 502      12.545  -1.244  14.128  1.00141.17     0.195 A 
HETATM    3  C3  MIQ B 502      13.951  -1.019  14.770  1.00141.71     0.035 A 
HETATM    4  C4  MIQ B 502      15.124  -0.195  14.392  1.00142.86     0.046 A 
HETATM    5  C5  MIQ B 502      16.291  -0.197  15.197  1.00139.53     0.031 A 
HETATM    6  C12 MIQ B 502      16.336  -1.012  16.402  1.00139.38     0.030 A 
HETATM    7  C13 MIQ B 502      15.211  -1.802  16.765  1.00141.18     0.019 A 
HETATM    8  C14 MIQ B 502      13.988  -1.794  15.917  1.00138.77     0.033 A 
HETATM    9  C15 MIQ B 502      12.597  -2.503  15.989  1.00142.10     0.195 A 
HETATM   10  N17 MIQ B 502      11.921  -2.089  14.930  1.00139.42    -0.288 N 
HETATM   11  O16 MIQ B 502      12.162  -3.394  16.972  1.00148.93    -0.171 OA
ENDROOT
BRANCH  10  12
HETATM   12  C18 MIQ B 502      10.575  -2.560  14.658  1.00139.82     0.187 C 
HETATM   13  C19 MIQ B 502       9.727  -2.299  15.909  1.00140.06     0.247 C 
HETATM   14  O25 MIQ B 502       9.728  -1.222  16.391  1.00143.95    -0.271 OA
HETATM   15  N20 MIQ B 502       8.918  -3.337  16.514  1.00140.02    -0.296 N 
HETATM   16  H13 MIQ B 502       8.374  -3.155  17.334  1.00142.77     0.171 HD
HETATM   17  C21 MIQ B 502       8.942  -4.646  15.914  1.00142.22     0.224 C 
HETATM   18  C22 MIQ B 502      10.250  -5.082  15.282  1.00139.52     0.106 C 
HETATM   19  O24 MIQ B 502       7.986  -5.341  15.910  1.00146.13    -0.273 OA
HETATM   20  C23 MIQ B 502      10.600  -4.031  14.245  1.00139.15     0.045 C 
ENDBRANCH  10  12
BRANCH   5  21
HETATM   21  N6  MIQ B 502      17.437   0.604  14.807  1.00140.95    -0.377 N 
HETATM   22  C7  MIQ B 502      17.287   1.544  13.710  1.00142.12     0.149 C 
HETATM   23  C8  MIQ B 502      18.610   1.812  13.005  1.00144.10     0.187 C 
HETATM   24  O9  MIQ B 502      19.652   2.091  13.892  1.00148.65    -0.388 OA
HETATM   25  C10 MIQ B 502      19.483   1.896  15.265  1.00147.44     0.187 C 
HETATM   26  C11 MIQ B 502      18.538   0.795  15.735  1.00144.08     0.149 C 
ENDBRANCH   5  21
TORSDOF 2
ENDMDL
MODEL 3
REMARK VINA RESULT:      -7.0      6.755     11.636
REMARK  2 active torsions:
REMARK  status: ('A' for Active; 'I' for Inactive)
REMARK    1  A    between atoms: C5_5  and  N6_21 
REMARK    2  A    between atoms: C18_14  and  N17_19 
ROOT
HETATM    1  O1  MIQ B 502       5.424  -2.803  17.107  1.00142.91    -0.171 OA
HETATM    2  C2  MIQ B 502       5.947  -4.059  17.421  1.00141.17     0.195 A 
HETATM    3  C3  MIQ B 502       7.218  -4.712  16.791  1.00141.71     0.035 A 
HETATM    4  C4  MIQ B 502       8.191  -4.267  15.765  1.00142.86     0.046 A 
HETATM    5  C5  MIQ B 502       9.273  -5.103  15.393  1.00139.53     0.031 A 
HETATM    6  C12 MIQ B 502       9.430  -6.406  16.023  1.00139.38     0.030 A 
HETATM    7  C13 MIQ B 502       8.498  -6.833  17.008  1.00141.18     0.019 A 
HETATM    8  C14 MIQ B 502       7.365  -5.950  17.396  1.00138.77     0.033 A 
HETATM    9  C15 MIQ B 502       6.178  -6.065  18.408  1.00142.10     0.195 A 
HETATM   10  N17 MIQ B 502       5.494  -4.938  18.298  1.00139.42    -0.288 N 
HETATM   11  O16 MIQ B 502       5.901  -7.142  19.251  1.00148.93    -0.171 OA
ENDROOT
BRANCH  10  12
HETATM   12  C18 MIQ B 502       4.300  -4.697  19.087  1.00139.82     0.187 C 
HETATM   13  C19 MIQ B 502       3.177  -4.293  18.124  1.00140.06     0.247 C 
HETATM   14  O25 MIQ B 502       2.955  -4.968  17.183  1.00143.95    -0.271 OA
HETATM   15  N20 MIQ B 502       2.376  -3.105  18.340  1.00140.02    -0.296 N 
HETATM   16  H13 MIQ B 502       1.651  -2.849  17.701  1.00142.77     0.171 HD
HETATM   17  C21 MIQ B 502       2.674  -2.291  19.491  1.00142.22     0.224 C 
HETATM   18  C22 MIQ B 502       4.128  -2.220  19.917  1.00139.52     0.106 C 
HETATM   19  O24 MIQ B 502       1.825  -1.714  20.075  1.00146.13    -0.273 OA
HETATM   20  C23 MIQ B 502       4.576  -3.649  20.163  1.00139.15     0.045 C 
ENDBRANCH  10  12
BRANCH   5  21
HETATM   21  N6  MIQ B 502      10.209  -4.660  14.376  1.00140.95    -0.377 N 
HETATM   22  C7  MIQ B 502      10.729  -3.306  14.453  1.00142.12     0.149 C 
HETATM   23  C8  MIQ B 502      11.134  -2.773  13.084  1.00144.10     0.187 C 
HETATM   24  O9  MIQ B 502      11.919  -3.674  12.361  1.00148.65    -0.388 OA
HETATM   25  C10 MIQ B 502      12.078  -4.989  12.805  1.00147.44     0.187 C 
HETATM   26  C11 MIQ B 502      10.941  -5.637  13.588  1.00144.08     0.149 C 
ENDBRANCH   5  21
TORSDOF 2
ENDMDL
MODEL 4
REMARK VINA RESULT:      -6.8      3.154      4.118
REMARK  2 active torsions:
REMARK  status: ('A' for Active; 'I' for Inactive)
REMARK    1  A    between atoms: C5_5  and  N6_21 
REMARK    2  A    between atoms: C18_14  and  N17_19 
ROOT
HETATM    1  O1  MIQ B 502      17.103  -1.315  11.093  1.00142.91    -0.171 OA
HETATM    2  C2  MIQ B 502      17.261  -0.839  12.397  1.00141.17     0.195 A 
HETATM    3  C3  MIQ B 502      16.139  -0.721  13.477  1.00141.71     0.035 A 
HETATM    4  C4  MIQ B 502      14.692  -1.042  13.483  1.00142.86     0.046 A 
HETATM    5  C5  MIQ B 502      13.914  -0.821  14.648  1.00139.53     0.031 A 
HETATM    6  C12 MIQ B 502      14.541  -0.277  15.843  1.00139.38     0.030 A 
HETATM    7  C13 MIQ B 502      15.929   0.030  15.838  1.00141.18     0.019 A 
HETATM    8  C14 MIQ B 502      16.741  -0.207  14.614  1.00138.77     0.033 A 
HETATM    9  C15 MIQ B 502      18.245  -0.004  14.237  1.00142.10     0.195 A 
HETATM   10  N17 MIQ B 502      18.364  -0.404  12.981  1.00139.42    -0.288 N 
HETATM   11  O16 MIQ B 502      19.253   0.499  15.061  1.00148.93    -0.171 OA
ENDROOT
BRANCH  10  12
HETATM   12  C18 MIQ B 502      19.635  -0.344  12.284  1.00139.82     0.187 C 
HETATM   13  C19 MIQ B 502      19.419   0.438  10.983  1.00140.06     0.247 C 
HETATM   14  O25 MIQ B 502      18.890   1.492  11.025  1.00143.95    -0.271 OA
HETATM   15  N20 MIQ B 502      19.851  -0.078   9.701  1.00140.02    -0.296 N 
HETATM   16  H13 MIQ B 502      19.698   0.439   8.858  1.00142.77     0.171 HD
HETATM   17  C21 MIQ B 502      20.485  -1.371   9.673  1.00142.22     0.224 C 
HETATM   18  C22 MIQ B 502      20.003  -2.388  10.689  1.00139.52     0.106 C 
HETATM   19  O24 MIQ B 502      21.342  -1.622   8.900  1.00146.13    -0.273 OA
HETATM   20  C23 MIQ B 502      20.183  -1.752  12.056  1.00139.15     0.045 C 
ENDBRANCH  10  12
BRANCH   5  21
HETATM   21  N6  MIQ B 502      12.495  -1.126  14.635  1.00140.95    -0.377 N 
HETATM   22  C7  MIQ B 502      11.806  -1.174  13.356  1.00142.12     0.149 C 
HETATM   23  C8  MIQ B 502      10.323  -0.857  13.497  1.00144.10     0.187 C 
HETATM   24  O9  MIQ B 502       9.711  -1.568  14.531  1.00148.65    -0.388 OA
HETATM   25  C10 MIQ B 502      10.482  -2.290  15.446  1.00147.44     0.187 C 
HETATM   26  C11 MIQ B 502      11.885  -1.791  15.773  1.00144.08     0.149 C 
ENDBRANCH   5  21
TORSDOF 2
ENDMDL
MODEL 5
REMARK VINA RESULT:      -6.8      2.428      8.367
REMARK  2 active torsions:
REMARK  status: ('A' for Active; 'I' for Inactive)
REMARK    1  A    between atoms: C5_5  and  N6_21 
REMARK    2  A    between atoms: C18_14  and  N17_19 
ROOT
HETATM    1  O1  MIQ B 502      12.246  -3.399  16.891  1.00142.91    -0.171 OA
HETATM    2  C2  MIQ B 502      12.665  -2.410  15.998  1.00141.17     0.195 A 
HETATM    3  C3  MIQ B 502      14.037  -1.664  16.025  1.00141.71     0.035 A 
HETATM    4  C4  MIQ B 502      15.225  -1.748  16.907  1.00142.86     0.046 A 
HETATM    5  C5  MIQ B 502      16.352  -0.920  16.673  1.00139.53     0.031 A 
HETATM    6  C12 MIQ B 502      16.340   0.017  15.558  1.00139.38     0.030 A 
HETATM    7  C13 MIQ B 502      15.202   0.097  14.712  1.00141.18     0.019 A 
HETATM    8  C14 MIQ B 502      14.023  -0.776  14.962  1.00138.77     0.033 A 
HETATM    9  C15 MIQ B 502      12.634  -0.973  14.270  1.00142.10     0.195 A 
HETATM   10  N17 MIQ B 502      12.010  -1.910  14.964  1.00139.42    -0.288 N 
HETATM   11  O16 MIQ B 502      12.155  -0.292  13.150  1.00148.93    -0.171 OA
ENDROOT
BRANCH  10  12
HETATM   12  C18 MIQ B 502      10.671  -2.346  14.615  1.00139.82     0.187 C 
HETATM   13  C19 MIQ B 502       9.788  -2.185  15.858  1.00140.06     0.247 C 
HETATM   14  O25 MIQ B 502       9.780  -1.153  16.430  1.00143.95    -0.271 OA
HETATM   15  N20 MIQ B 502       8.956  -3.265  16.349  1.00140.02    -0.296 N 
HETATM   16  H13 MIQ B 502       8.389  -3.149  17.165  1.00142.77     0.171 HD
HETATM   17  C21 MIQ B 502       8.990  -4.518  15.640  1.00142.22     0.224 C 
HETATM   18  C22 MIQ B 502      10.314  -4.909  15.011  1.00139.52     0.106 C 
HETATM   19  O24 MIQ B 502       8.031  -5.203  15.550  1.00146.13    -0.273 OA
HETATM   20  C23 MIQ B 502      10.700  -3.776  14.078  1.00139.15     0.045 C 
ENDBRANCH  10  12
BRANCH   5  21
HETATM   21  N6  MIQ B 502      17.503  -1.002  17.553  1.00140.95    -0.377 N 
HETATM   22  C7  MIQ B 502      18.052  -2.312  17.858  1.00142.12     0.149 C 
HETATM   23  C8  MIQ B 502      18.764  -2.331  19.205  1.00144.10     0.187 C 
HETATM   24  O9  MIQ B 502      19.646  -1.261  19.368  1.00148.65    -0.388 OA
HETATM   25  C10 MIQ B 502      19.649  -0.201  18.458  1.00147.44     0.187 C 
HETATM   26  C11 MIQ B 502      18.343   0.165  17.759  1.00144.08     0.149 C 
ENDBRANCH   5  21
TORSDOF 2
ENDMDL
MODEL 6
REMARK VINA RESULT:      -6.8      4.829     10.828
REMARK  2 active torsions:
REMARK  status: ('A' for Active; 'I' for Inactive)
REMARK    1  A    between atoms: C5_5  and  N6_21 
REMARK    2  A    between atoms: C18_14  and  N17_19 
ROOT
HETATM    1  O1  MIQ B 502      21.356   1.921  10.920  1.00142.91    -0.171 OA
HETATM    2  C2  MIQ B 502      21.236   1.483  12.241  1.00141.17     0.195 A 
HETATM    3  C3  MIQ B 502      22.410   1.070  13.185  1.00141.71     0.035 A 
HETATM    4  C4  MIQ B 502      23.881   1.013  13.017  1.00142.86     0.046 A 
HETATM    5  C5  MIQ B 502      24.709   0.586  14.087  1.00139.53     0.031 A 
HETATM    6  C12 MIQ B 502      24.108   0.202  15.356  1.00139.38     0.030 A 
HETATM    7  C13 MIQ B 502      22.698   0.258  15.518  1.00141.18     0.019 A 
HETATM    8  C14 MIQ B 502      21.834   0.710  14.393  1.00138.77     0.033 A 
HETATM    9  C15 MIQ B 502      20.295   0.901  14.197  1.00142.10     0.195 A 
HETATM   10  N17 MIQ B 502      20.135   1.334  12.957  1.00139.42    -0.288 N 
HETATM   11  O16 MIQ B 502      19.296   0.658  15.141  1.00148.93    -0.171 OA
ENDROOT
BRANCH  10  12
HETATM   12  C18 MIQ B 502      18.818   1.608  12.414  1.00139.82     0.187 C 
HETATM   13  C19 MIQ B 502      18.064   2.474  13.431  1.00140.06     0.247 C 
HETATM   14  O25 MIQ B 502      18.578   3.449  13.851  1.00143.95    -0.271 OA
HETATM   15  N20 MIQ B 502      16.732   2.132  13.887  1.00140.02    -0.296 N 
HETATM   16  H13 MIQ B 502      16.253   2.702  14.556  1.00142.77     0.171 HD
HETATM   17  C21 MIQ B 502      16.129   0.931  13.367  1.00142.22     0.224 C 
HETATM   18  C22 MIQ B 502      17.064  -0.224  13.064  1.00139.52     0.106 C 
HETATM   19  O24 MIQ B 502      14.964   0.855  13.182  1.00146.13    -0.273 OA
HETATM   20  C23 MIQ B 502      18.097   0.303  12.084  1.00139.15     0.045 C 
ENDBRANCH  10  12
BRANCH   5  21
HETATM   21  N6  MIQ B 502      26.147   0.521  13.903  1.00140.95    -0.377 N 
HETATM   22  C7  MIQ B 502      26.853  -0.661  14.368  1.00142.12     0.149 C 
HETATM   23  C8  MIQ B 502      28.306  -0.357  14.711  1.00144.10     0.187 C 
HETATM   24  O9  MIQ B 502      28.958   0.376  13.717  1.00148.65    -0.388 OA
HETATM   25  C10 MIQ B 502      28.233   0.937  12.662  1.00147.44     0.187 C 
HETATM   26  C11 MIQ B 502      26.792   1.366  12.914  1.00144.08     0.149 C 
ENDBRANCH   5  21
TORSDOF 2
ENDMDL
MODEL 7
REMARK VINA RESULT:      -6.8      2.508      3.473
REMARK  2 active torsions:
REMARK  status: ('A' for Active; 'I' for Inactive)
REMARK    1  A    between atoms: C5_5  and  N6_21 
REMARK    2  A    between atoms: C18_14  and  N17_19 
ROOT
HETATM    1  O1  MIQ B 502      15.921   0.970  14.827  1.00142.91    -0.171 OA
HETATM    2  C2  MIQ B 502      15.755   0.114  13.736  1.00141.17     0.195 A 
HETATM    3  C3  MIQ B 502      14.447  -0.651  13.355  1.00141.71     0.035 A 
HETATM    4  C4  MIQ B 502      13.093  -0.715  13.953  1.00142.86     0.046 A 
HETATM    5  C5  MIQ B 502      12.085  -1.519  13.363  1.00139.53     0.031 A 
HETATM    6  C12 MIQ B 502      12.384  -2.285  12.161  1.00139.38     0.030 A 
HETATM    7  C13 MIQ B 502      13.682  -2.223  11.586  1.00141.18     0.019 A 
HETATM    8  C14 MIQ B 502      14.735  -1.375  12.209  1.00138.77     0.033 A 
HETATM    9  C15 MIQ B 502      16.230  -1.058  11.877  1.00142.10     0.195 A 
HETATM   10  N17 MIQ B 502      16.642  -0.220  12.815  1.00139.42    -0.288 N 
HETATM   11  O16 MIQ B 502      16.974  -1.562  10.809  1.00148.93    -0.171 OA
ENDROOT
BRANCH  10  12
HETATM   12  C18 MIQ B 502      18.003   0.283  12.835  1.00139.82     0.187 C 
HETATM   13  C19 MIQ B 502      18.585   0.000  14.226  1.00140.06     0.247 C 
HETATM   14  O25 MIQ B 502      18.513  -1.090  14.670  1.00143.95    -0.271 OA
HETATM   15  N20 MIQ B 502      19.229   1.035  15.009  1.00140.02    -0.296 N 
HETATM   16  H13 MIQ B 502      19.600   0.839  15.918  1.00142.77     0.171 HD
HETATM   17  C21 MIQ B 502      19.297   2.361  14.450  1.00142.22     0.224 C 
HETATM   18  C22 MIQ B 502      18.134   2.791  13.576  1.00139.52     0.106 C 
HETATM   19  O24 MIQ B 502      20.216   3.073  14.659  1.00146.13    -0.273 OA
HETATM   20  C23 MIQ B 502      18.028   1.765  12.463  1.00139.15     0.045 C 
ENDBRANCH  10  12
BRANCH   5  21
HETATM   21  N6  MIQ B 502      10.768  -1.584  13.968  1.00140.95    -0.377 N 
HETATM   22  C7  MIQ B 502      10.647  -2.122  15.312  1.00142.12     0.149 C 
HETATM   23  C8  MIQ B 502       9.268  -2.721  15.562  1.00144.10     0.187 C 
HETATM   24  O9  MIQ B 502       8.229  -1.879  15.161  1.00148.65    -0.388 OA
HETATM   25  C10 MIQ B 502       8.497  -0.735  14.405  1.00147.44     0.187 C 
HETATM   26  C11 MIQ B 502       9.693  -0.750  13.459  1.00144.08     0.149 C 
ENDBRANCH   5  21
TORSDOF 2
ENDMDL
MODEL 8
REMARK VINA RESULT:      -6.7      2.364      3.418
REMARK  2 active torsions:
REMARK  status: ('A' for Active; 'I' for Inactive)
REMARK    1  A    between atoms: C5_5  and  N6_21 
REMARK    2  A    between atoms: C18_14  and  N17_19 
ROOT
HETATM    1  O1  MIQ B 502      19.202   0.051  13.009  1.00142.91    -0.171 OA
HETATM    2  C2  MIQ B 502      18.582   0.077  14.260  1.00141.17     0.195 A 
HETATM    3  C3  MIQ B 502      17.105  -0.333  14.566  1.00141.71     0.035 A 
HETATM    4  C4  MIQ B 502      15.992  -0.833  13.725  1.00142.86     0.046 A 
HETATM    5  C5  MIQ B 502      14.732  -1.127  14.305  1.00139.53     0.031 A 
HETATM    6  C12 MIQ B 502      14.533  -0.936  15.735  1.00139.38     0.030 A 
HETATM    7  C13 MIQ B 502      15.600  -0.458  16.541  1.00141.18     0.019 A 
HETATM    8  C14 MIQ B 502      16.922  -0.153  15.927  1.00138.77     0.033 A 
HETATM    9  C15 MIQ B 502      18.291   0.370  16.470  1.00142.10     0.195 A 
HETATM   10  N17 MIQ B 502      19.097   0.438  15.423  1.00139.42    -0.288 N 
HETATM   11  O16 MIQ B 502      18.596   0.701  17.791  1.00148.93    -0.171 OA
ENDROOT
BRANCH  10  12
HETATM   12  C18 MIQ B 502      20.466   0.904  15.549  1.00139.82     0.187 C 
HETATM   13  C19 MIQ B 502      20.653   2.072  14.573  1.00140.06     0.247 C 
HETATM   14  O25 MIQ B 502      19.881   2.964  14.588  1.00143.95    -0.271 OA
HETATM   15  N20 MIQ B 502      21.758   2.116  13.637  1.00140.02    -0.296 N 
HETATM   16  H13 MIQ B 502      21.865   2.881  13.001  1.00142.77     0.171 HD
HETATM   17  C21 MIQ B 502      22.681   1.010  13.631  1.00142.22     0.224 C 
HETATM   18  C22 MIQ B 502      22.108  -0.358  13.946  1.00139.52     0.106 C 
HETATM   19  O24 MIQ B 502      23.829   1.166  13.398  1.00146.13    -0.273 OA
HETATM   20  C23 MIQ B 502      21.443  -0.245  15.306  1.00139.15     0.045 C 
ENDBRANCH  10  12
BRANCH   5  21
HETATM   21  N6  MIQ B 502      13.646  -1.602  13.468  1.00140.95    -0.377 N 
HETATM   22  C7  MIQ B 502      12.447  -0.790  13.358  1.00142.12     0.149 C 
HETATM   23  C8  MIQ B 502      11.219  -1.629  13.031  1.00144.10     0.187 C 
HETATM   24  O9  MIQ B 502      11.434  -2.521  11.978  1.00148.65    -0.388 OA
HETATM   25  C10 MIQ B 502      12.724  -2.734  11.484  1.00147.44     0.187 C 
HETATM   26  C11 MIQ B 502      13.904  -2.596  12.440  1.00144.08     0.149 C 
ENDBRANCH   5  21
TORSDOF 2
ENDMDL
MODEL 9
REMARK VINA RESULT:      -6.7      1.931      3.182
REMARK  2 active torsions:
REMARK  status: ('A' for Active; 'I' for Inactive)
REMARK    1  A    between atoms: C5_5  and  N6_21 
REMARK    2  A    between atoms: C18_14  and  N17_19 
ROOT
HETATM    1  O1  MIQ B 502      17.609   0.284  17.247  1.00142.91    -0.171 OA
HETATM    2  C2  MIQ B 502      17.470   0.278  15.857  1.00141.17     0.195 A 
HETATM    3  C3  MIQ B 502      16.169  -0.060  15.061  1.00141.71     0.035 A 
HETATM    4  C4  MIQ B 502      14.796  -0.442  15.468  1.00142.86     0.046 A 
HETATM    5  C5  MIQ B 502      13.801  -0.691  14.489  1.00139.53     0.031 A 
HETATM    6  C12 MIQ B 502      14.132  -0.570  13.077  1.00139.38     0.030 A 
HETATM    7  C13 MIQ B 502      15.448  -0.202  12.686  1.00141.18     0.019 A 
HETATM    8  C14 MIQ B 502      16.487   0.060  13.719  1.00138.77     0.033 A 
HETATM    9  C15 MIQ B 502      17.994   0.476  13.680  1.00142.10     0.195 A 
HETATM   10  N17 MIQ B 502      18.383   0.554  14.942  1.00139.42    -0.288 N 
HETATM   11  O16 MIQ B 502      18.767   0.711  12.542  1.00148.93    -0.171 OA
ENDROOT
BRANCH  10  12
HETATM   12  C18 MIQ B 502      19.747   0.905  15.294  1.00139.82     0.187 C 
HETATM   13  C19 MIQ B 502      20.109   2.190  14.538  1.00140.06     0.247 C 
HETATM   14  O25 MIQ B 502      19.385   3.119  14.602  1.00143.95    -0.271 OA
HETATM   15  N20 MIQ B 502      21.320   2.297  13.751  1.00140.02    -0.296 N 
HETATM   16  H13 MIQ B 502      21.542   3.139  13.257  1.00142.77     0.171 HD
HETATM   17  C21 MIQ B 502      22.183   1.146  13.681  1.00142.22     0.224 C 
HETATM   18  C22 MIQ B 502      21.510  -0.213  13.713  1.00139.52     0.106 C 
HETATM   19  O24 MIQ B 502      23.357   1.258  13.606  1.00146.13    -0.273 OA
HETATM   20  C23 MIQ B 502      20.690  -0.257  14.990  1.00139.15     0.045 C 
ENDBRANCH  10  12
BRANCH   5  21
HETATM   21  N6  MIQ B 502      12.465  -1.080  14.902  1.00140.95    -0.377 N 
HETATM   22  C7  MIQ B 502      11.505  -1.460  13.879  1.00142.12     0.149 C 
HETATM   23  C8  MIQ B 502      10.070  -1.213  14.326  1.00144.10     0.187 C 
HETATM   24  O9  MIQ B 502       9.807  -1.707  15.605  1.00148.65    -0.388 OA
HETATM   25  C10 MIQ B 502      10.850  -2.153  16.421  1.00147.44     0.187 C 
HETATM   26  C11 MIQ B 502      12.222  -1.505  16.269  1.00144.08     0.149 C 
ENDBRANCH   5  21
TORSDOF 2
ENDMDL
