MODEL 1
REMARK VINA RESULT:      -6.3      0.000      0.000
REMARK  2 active torsions:
REMARK  status: ('A' for Active; 'I' for Inactive)
REMARK    1  A    between atoms: C5_5  and  N6_21 
REMARK    2  A    between atoms: C18_14  and  N17_19 
ROOT
HETATM    1  O1  MIQ B 502     -19.352  -4.598  -3.865  1.00142.91    -0.171 OA
HETATM    2  C2  MIQ B 502     -19.159  -5.880  -4.384  1.00141.17     0.195 A 
HETATM    3  C3  MIQ B 502     -20.146  -6.658  -5.313  1.00141.71     0.035 A 
HETATM    4  C4  MIQ B 502     -21.470  -6.331  -5.893  1.00142.86     0.046 A 
HETATM    5  C5  MIQ B 502     -22.139  -7.266  -6.723  1.00139.53     0.031 A 
HETATM    6  C12 MIQ B 502     -21.521  -8.553  -7.006  1.00139.38     0.030 A 
HETATM    7  C13 MIQ B 502     -20.251  -8.866  -6.450  1.00141.18     0.019 A 
HETATM    8  C14 MIQ B 502     -19.552  -7.880  -5.582  1.00138.77     0.033 A 
HETATM    9  C15 MIQ B 502     -18.188  -7.861  -4.817  1.00142.10     0.195 A 
HETATM   10  N17 MIQ B 502     -18.126  -6.687  -4.210  1.00139.42    -0.288 N 
HETATM   11  O16 MIQ B 502     -17.235  -8.880  -4.782  1.00148.93    -0.171 OA
ENDROOT
BRANCH  10  12
HETATM   12  C18 MIQ B 502     -16.992  -6.321  -3.383  1.00139.82     0.187 C 
HETATM   13  C19 MIQ B 502     -15.717  -6.592  -4.192  1.00140.06     0.247 C 
HETATM   14  O25 MIQ B 502     -15.624  -6.157  -5.284  1.00143.95    -0.271 OA
HETATM   15  N20 MIQ B 502     -14.618  -7.365  -3.649  1.00140.02    -0.296 N 
HETATM   16  H13 MIQ B 502     -13.794  -7.540  -4.189  1.00142.77     0.171 HD
HETATM   17  C21 MIQ B 502     -14.759  -7.894  -2.317  1.00142.22     0.224 C 
HETATM   18  C22 MIQ B 502     -16.156  -8.304  -1.891  1.00139.52     0.106 C 
HETATM   19  O24 MIQ B 502     -13.832  -7.998  -1.592  1.00146.13    -0.273 OA
HETATM   20  C23 MIQ B 502     -17.035  -7.077  -2.057  1.00139.15     0.045 C 
ENDBRANCH  10  12
BRANCH   5  21
HETATM   21  N6  MIQ B 502     -23.442  -6.939  -7.272  1.00140.95    -0.377 N 
HETATM   22  C7  MIQ B 502     -24.098  -7.910  -8.131  1.00142.12     0.149 C 
HETATM   23  C8  MIQ B 502     -25.058  -7.247  -9.110  1.00144.10     0.187 C 
HETATM   24  O9  MIQ B 502     -25.907  -6.324  -8.497  1.00148.65    -0.388 OA
HETATM   25  C10 MIQ B 502     -25.686  -5.927  -7.175  1.00147.44     0.187 C 
HETATM   26  C11 MIQ B 502     -24.254  -5.908  -6.650  1.00144.08     0.149 C 
ENDBRANCH   5  21
TORSDOF 2
ENDMDL
MODEL 2
REMARK VINA RESULT:      -6.2      2.229      3.216
REMARK  2 active torsions:
REMARK  status: ('A' for Active; 'I' for Inactive)
REMARK    1  A    between atoms: C5_5  and  N6_21 
REMARK    2  A    between atoms: C18_14  and  N17_19 
ROOT
HETATM    1  O1  MIQ B 502     -17.476  -5.302  -7.215  1.00142.91    -0.171 OA
HETATM    2  C2  MIQ B 502     -17.695  -6.292  -6.255  1.00141.17     0.195 A 
HETATM    3  C3  MIQ B 502     -19.083  -6.749  -5.701  1.00141.71     0.035 A 
HETATM    4  C4  MIQ B 502     -20.478  -6.333  -5.980  1.00142.86     0.046 A 
HETATM    5  C5  MIQ B 502     -21.559  -6.950  -5.301  1.00139.53     0.031 A 
HETATM    6  C12 MIQ B 502     -21.295  -7.998  -4.325  1.00139.38     0.030 A 
HETATM    7  C13 MIQ B 502     -19.958  -8.397  -4.058  1.00141.18     0.019 A 
HETATM    8  C14 MIQ B 502     -18.827  -7.748  -4.776  1.00138.77     0.033 A 
HETATM    9  C15 MIQ B 502     -17.273  -7.913  -4.756  1.00142.10     0.195 A 
HETATM   10  N17 MIQ B 502     -16.801  -7.039  -5.630  1.00139.42    -0.288 N 
HETATM   11  O16 MIQ B 502     -16.537  -8.802  -3.971  1.00148.93    -0.171 OA
ENDROOT
BRANCH  10  12
HETATM   12  C18 MIQ B 502     -15.377  -6.898  -5.867  1.00139.82     0.187 C 
HETATM   13  C19 MIQ B 502     -14.864  -5.761  -4.975  1.00140.06     0.247 C 
HETATM   14  O25 MIQ B 502     -15.119  -5.773  -3.823  1.00143.95    -0.271 OA
HETATM   15  N20 MIQ B 502     -14.067  -4.674  -5.506  1.00140.02    -0.296 N 
HETATM   16  H13 MIQ B 502     -13.744  -3.934  -4.914  1.00142.77     0.171 HD
HETATM   17  C21 MIQ B 502     -13.778  -4.676  -6.916  1.00142.22     0.224 C 
HETATM   18  C22 MIQ B 502     -14.844  -5.249  -7.830  1.00139.52     0.106 C 
HETATM   19  O24 MIQ B 502     -12.756  -4.257  -7.338  1.00146.13    -0.273 OA
HETATM   20  C23 MIQ B 502     -15.106  -6.666  -7.353  1.00139.15     0.045 C 
ENDBRANCH  10  12
BRANCH   5  21
HETATM   21  N6  MIQ B 502     -22.919  -6.523  -5.573  1.00140.95    -0.377 N 
HETATM   22  C7  MIQ B 502     -23.470  -6.759  -6.896  1.00142.12     0.149 C 
HETATM   23  C8  MIQ B 502     -24.559  -5.753  -7.246  1.00144.10     0.187 C 
HETATM   24  O9  MIQ B 502     -25.501  -5.596  -6.228  1.00148.65    -0.388 OA
HETATM   25  C10 MIQ B 502     -25.277  -6.149  -4.965  1.00147.44     0.187 C 
HETATM   26  C11 MIQ B 502     -23.839  -6.288  -4.474  1.00144.08     0.149 C 
ENDBRANCH   5  21
TORSDOF 2
ENDMDL
MODEL 3
REMARK VINA RESULT:      -6.2      2.454      4.519
REMARK  2 active torsions:
REMARK  status: ('A' for Active; 'I' for Inactive)
REMARK    1  A    between atoms: C5_5  and  N6_21 
REMARK    2  A    between atoms: C18_14  and  N17_19 
ROOT
HETATM    1  O1  MIQ B 502     -21.461 -10.017  -7.347  1.00142.91    -0.171 OA
HETATM    2  C2  MIQ B 502     -21.836  -8.715  -7.012  1.00141.17     0.195 A 
HETATM    3  C3  MIQ B 502     -23.111  -7.964  -7.513  1.00141.71     0.035 A 
HETATM    4  C4  MIQ B 502     -24.229  -8.342  -8.411  1.00142.86     0.046 A 
HETATM    5  C5  MIQ B 502     -25.272  -7.421  -8.683  1.00139.53     0.031 A 
HETATM    6  C12 MIQ B 502     -25.244  -6.098  -8.076  1.00139.38     0.030 A 
HETATM    7  C13 MIQ B 502     -24.173  -5.736  -7.215  1.00141.18     0.019 A 
HETATM    8  C14 MIQ B 502     -23.082  -6.708  -6.931  1.00138.77     0.033 A 
HETATM    9  C15 MIQ B 502     -21.782  -6.678  -6.062  1.00142.10     0.195 A 
HETATM   10  N17 MIQ B 502     -21.213  -7.862  -6.216  1.00139.42    -0.288 N 
HETATM   11  O16 MIQ B 502     -21.320  -5.614  -5.287  1.00148.93    -0.171 OA
ENDROOT
BRANCH  10  12
HETATM   12  C18 MIQ B 502     -19.962  -8.192  -5.560  1.00139.82     0.187 C 
HETATM   13  C19 MIQ B 502     -20.099  -7.824  -4.078  1.00140.06     0.247 C 
HETATM   14  O25 MIQ B 502     -21.031  -8.216  -3.471  1.00143.95    -0.271 OA
HETATM   15  N20 MIQ B 502     -19.112  -7.010  -3.398  1.00140.02    -0.296 N 
HETATM   16  H13 MIQ B 502     -19.217  -6.771  -2.432  1.00142.77     0.171 HD
HETATM   17  C21 MIQ B 502     -17.989  -6.533  -4.163  1.00142.22     0.224 C 
HETATM   18  C22 MIQ B 502     -18.244  -6.216  -5.624  1.00139.52     0.106 C 
HETATM   19  O24 MIQ B 502     -16.920  -6.402  -3.676  1.00146.13    -0.273 OA
HETATM   20  C23 MIQ B 502     -18.797  -7.484  -6.250  1.00139.15     0.045 C 
ENDBRANCH  10  12
BRANCH   5  21
HETATM   21  N6  MIQ B 502     -26.352  -7.799  -9.575  1.00140.95    -0.377 N 
HETATM   22  C7  MIQ B 502     -26.831  -9.170  -9.545  1.00142.12     0.149 C 
HETATM   23  C8  MIQ B 502     -27.442  -9.589 -10.876  1.00144.10     0.187 C 
HETATM   24  O9  MIQ B 502     -28.348  -8.651 -11.377  1.00148.65    -0.388 OA
HETATM   25  C10 MIQ B 502     -28.455  -7.387 -10.791  1.00147.44     0.187 C 
HETATM   26  C11 MIQ B 502     -27.217  -6.778 -10.141  1.00144.08     0.149 C 
ENDBRANCH   5  21
TORSDOF 2
ENDMDL
MODEL 4
REMARK VINA RESULT:      -6.0     19.423     21.263
REMARK  2 active torsions:
REMARK  status: ('A' for Active; 'I' for Inactive)
REMARK    1  A    between atoms: C5_5  and  N6_21 
REMARK    2  A    between atoms: C18_14  and  N17_19 
ROOT
HETATM    1  O1  MIQ B 502     -13.767   2.663 -20.280  1.00142.91    -0.171 OA
HETATM    2  C2  MIQ B 502     -13.975   3.937 -19.746  1.00141.17     0.195 A 
HETATM    3  C3  MIQ B 502     -12.954   5.119 -19.756  1.00141.71     0.035 A 
HETATM    4  C4  MIQ B 502     -11.576   5.271 -20.280  1.00142.86     0.046 A 
HETATM    5  C5  MIQ B 502     -10.887   6.502 -20.136  1.00139.53     0.031 A 
HETATM    6  C12 MIQ B 502     -11.537   7.621 -19.470  1.00139.38     0.030 A 
HETATM    7  C13 MIQ B 502     -12.859   7.476 -18.968  1.00141.18     0.019 A 
HETATM    8  C14 MIQ B 502     -13.579   6.182 -19.124  1.00138.77     0.033 A 
HETATM    9  C15 MIQ B 502     -14.995   5.657 -18.721  1.00142.10     0.195 A 
HETATM   10  N17 MIQ B 502     -15.053   4.403 -19.139  1.00139.42    -0.288 N 
HETATM   11  O16 MIQ B 502     -15.992   6.370 -18.052  1.00148.93    -0.171 OA
ENDROOT
BRANCH  10  12
HETATM   12  C18 MIQ B 502     -16.231   3.585 -18.919  1.00139.82     0.187 C 
HETATM   13  C19 MIQ B 502     -15.778   2.286 -18.242  1.00140.06     0.247 C 
HETATM   14  O25 MIQ B 502     -15.097   2.344 -17.280  1.00143.95    -0.271 OA
HETATM   15  N20 MIQ B 502     -16.168   0.985 -18.747  1.00140.02    -0.296 N 
HETATM   16  H13 MIQ B 502     -15.860   0.144 -18.299  1.00142.77     0.171 HD
HETATM   17  C21 MIQ B 502     -16.990   0.939 -19.928  1.00142.22     0.224 C 
HETATM   18  C22 MIQ B 502     -16.766   2.030 -20.957  1.00139.52     0.106 C 
HETATM   19  O24 MIQ B 502     -17.803   0.095 -20.083  1.00146.13    -0.273 OA
HETATM   20  C23 MIQ B 502     -16.968   3.351 -20.237  1.00139.15     0.045 C 
ENDBRANCH  10  12
BRANCH   5  21
HETATM   21  N6  MIQ B 502      -9.532   6.632 -20.641  1.00140.95    -0.377 N 
HETATM   22  C7  MIQ B 502      -9.343   6.989 -22.036  1.00142.12     0.149 C 
HETATM   23  C8  MIQ B 502      -8.014   6.478 -22.579  1.00144.10     0.187 C 
HETATM   24  O9  MIQ B 502      -6.937   6.765 -21.738  1.00148.65    -0.388 OA
HETATM   25  C10 MIQ B 502      -7.158   7.257 -20.449  1.00147.44     0.187 C 
HETATM   26  C11 MIQ B 502      -8.431   6.845 -19.718  1.00144.08     0.149 C 
ENDBRANCH   5  21
TORSDOF 2
ENDMDL
MODEL 5
REMARK VINA RESULT:      -6.0      2.172      8.509
REMARK  2 active torsions:
REMARK  status: ('A' for Active; 'I' for Inactive)
REMARK    1  A    between atoms: C5_5  and  N6_21 
REMARK    2  A    between atoms: C18_14  and  N17_19 
ROOT
HETATM    1  O1  MIQ B 502     -22.418  -7.779  -7.760  1.00142.91    -0.171 OA
HETATM    2  C2  MIQ B 502     -22.481  -7.158  -6.510  1.00141.17     0.195 A 
HETATM    3  C3  MIQ B 502     -21.264  -6.695  -5.648  1.00141.71     0.035 A 
HETATM    4  C4  MIQ B 502     -19.796  -6.750  -5.845  1.00142.86     0.046 A 
HETATM    5  C5  MIQ B 502     -18.920  -6.233  -4.857  1.00139.53     0.031 A 
HETATM    6  C12 MIQ B 502     -19.467  -5.644  -3.643  1.00139.38     0.030 A 
HETATM    7  C13 MIQ B 502     -20.875  -5.590  -3.454  1.00141.18     0.019 A 
HETATM    8  C14 MIQ B 502     -21.789  -6.133  -4.496  1.00138.77     0.033 A 
HETATM    9  C15 MIQ B 502     -23.342  -6.246  -4.645  1.00142.10     0.195 A 
HETATM   10  N17 MIQ B 502     -23.555  -6.832  -5.811  1.00139.42    -0.288 N 
HETATM   11  O16 MIQ B 502     -24.303  -5.817  -3.728  1.00148.93    -0.171 OA
ENDROOT
BRANCH  10  12
HETATM   12  C18 MIQ B 502     -24.898  -7.118  -6.281  1.00139.82     0.187 C 
HETATM   13  C19 MIQ B 502     -24.945  -8.596  -6.690  1.00140.06     0.247 C 
HETATM   14  O25 MIQ B 502     -24.560  -9.415  -5.934  1.00143.95    -0.271 OA
HETATM   15  N20 MIQ B 502     -25.458  -9.015  -7.978  1.00140.02    -0.296 N 
HETATM   16  H13 MIQ B 502     -25.477  -9.982  -8.236  1.00142.77     0.171 HD
HETATM   17  C21 MIQ B 502     -25.913  -7.996  -8.888  1.00142.22     0.224 C 
HETATM   18  C22 MIQ B 502     -25.181  -6.668  -8.845  1.00139.52     0.106 C 
HETATM   19  O24 MIQ B 502     -26.817  -8.185  -9.626  1.00146.13    -0.273 OA
HETATM   20  C23 MIQ B 502     -25.278  -6.168  -7.415  1.00139.15     0.045 C 
ENDBRANCH  10  12
BRANCH   5  21
HETATM   21  N6  MIQ B 502     -17.484  -6.307  -5.056  1.00140.95    -0.377 N 
HETATM   22  C7  MIQ B 502     -16.629  -6.473  -3.893  1.00142.12     0.149 C 
HETATM   23  C8  MIQ B 502     -15.235  -5.906  -4.127  1.00144.10     0.187 C 
HETATM   24  O9  MIQ B 502     -14.678  -6.315  -5.340  1.00148.65    -0.388 OA
HETATM   25  C10 MIQ B 502     -15.460  -6.976  -6.290  1.00147.44     0.187 C 
HETATM   26  C11 MIQ B 502     -16.950  -6.654  -6.361  1.00144.08     0.149 C 
ENDBRANCH   5  21
TORSDOF 2
ENDMDL
MODEL 6
REMARK VINA RESULT:      -6.0     16.663     17.722
REMARK  2 active torsions:
REMARK  status: ('A' for Active; 'I' for Inactive)
REMARK    1  A    between atoms: C5_5  and  N6_21 
REMARK    2  A    between atoms: C18_14  and  N17_19 
ROOT
HETATM    1  O1  MIQ B 502     -15.314   4.330 -18.763  1.00142.91    -0.171 OA
HETATM    2  C2  MIQ B 502     -15.461   3.070 -19.348  1.00141.17     0.195 A 
HETATM    3  C3  MIQ B 502     -16.810   2.326 -19.609  1.00141.71     0.035 A 
HETATM    4  C4  MIQ B 502     -18.229   2.671 -19.355  1.00142.86     0.046 A 
HETATM    5  C5  MIQ B 502     -19.261   1.767 -19.713  1.00139.53     0.031 A 
HETATM    6  C12 MIQ B 502     -18.923   0.494 -20.335  1.00139.38     0.030 A 
HETATM    7  C13 MIQ B 502     -17.563   0.165 -20.580  1.00141.18     0.019 A 
HETATM    8  C14 MIQ B 502     -16.484   1.118 -20.203  1.00138.77     0.033 A 
HETATM    9  C15 MIQ B 502     -14.924   1.112 -20.312  1.00142.10     0.195 A 
HETATM   10  N17 MIQ B 502     -14.518   2.261 -19.798  1.00139.42    -0.288 N 
HETATM   11  O16 MIQ B 502     -14.128   0.096 -20.843  1.00148.93    -0.171 OA
ENDROOT
BRANCH  10  12
HETATM   12  C18 MIQ B 502     -13.109   2.598 -19.718  1.00139.82     0.187 C 
HETATM   13  C19 MIQ B 502     -12.803   2.989 -18.266  1.00140.06     0.247 C 
HETATM   14  O25 MIQ B 502     -13.134   2.266 -17.394  1.00143.95    -0.271 OA
HETATM   15  N20 MIQ B 502     -12.114   4.219 -17.935  1.00140.02    -0.296 N 
HETATM   16  H13 MIQ B 502     -11.926   4.465 -16.983  1.00142.77     0.171 HD
HETATM   17  C21 MIQ B 502     -11.730   5.089 -19.017  1.00142.22     0.224 C 
HETATM   18  C22 MIQ B 502     -12.652   5.127 -20.220  1.00139.52     0.106 C 
HETATM   19  O24 MIQ B 502     -10.742   5.736 -18.968  1.00146.13    -0.273 OA
HETATM   20  C23 MIQ B 502     -12.767   3.699 -20.721  1.00139.15     0.045 C 
ENDBRANCH  10  12
BRANCH   5  21
HETATM   21  N6  MIQ B 502     -20.646   2.111 -19.445  1.00140.95    -0.377 N 
HETATM   22  C7  MIQ B 502     -21.433   1.220 -18.611  1.00142.12     0.149 C 
HETATM   23  C8  MIQ B 502     -22.921   1.312 -18.926  1.00144.10     0.187 C 
HETATM   24  O9  MIQ B 502     -23.381   2.629 -18.995  1.00148.65    -0.388 OA
HETATM   25  C10 MIQ B 502     -22.478   3.695 -18.999  1.00147.44     0.187 C 
HETATM   26  C11 MIQ B 502     -21.099   3.480 -19.614  1.00144.08     0.149 C 
ENDBRANCH   5  21
TORSDOF 2
ENDMDL
MODEL 7
REMARK VINA RESULT:      -6.0      2.156      9.062
REMARK  2 active torsions:
REMARK  status: ('A' for Active; 'I' for Inactive)
REMARK    1  A    between atoms: C5_5  and  N6_21 
REMARK    2  A    between atoms: C18_14  and  N17_19 
ROOT
HETATM    1  O1  MIQ B 502     -24.291  -5.169  -5.862  1.00142.91    -0.171 OA
HETATM    2  C2  MIQ B 502     -23.988  -6.384  -6.479  1.00141.17     0.195 A 
HETATM    3  C3  MIQ B 502     -22.597  -7.095  -6.484  1.00141.71     0.035 A 
HETATM    4  C4  MIQ B 502     -21.278  -6.758  -5.896  1.00142.86     0.046 A 
HETATM    5  C5  MIQ B 502     -20.171  -7.626  -6.075  1.00139.53     0.031 A 
HETATM    6  C12 MIQ B 502     -20.332  -8.854  -6.839  1.00139.38     0.030 A 
HETATM    7  C13 MIQ B 502     -21.596  -9.178  -7.401  1.00141.18     0.019 A 
HETATM    8  C14 MIQ B 502     -22.755  -8.265  -7.209  1.00138.77     0.033 A 
HETATM    9  C15 MIQ B 502     -24.253  -8.281  -7.656  1.00142.10     0.195 A 
HETATM   10  N17 MIQ B 502     -24.792  -7.174  -7.170  1.00139.42    -0.288 N 
HETATM   11  O16 MIQ B 502     -24.888  -9.264  -8.417  1.00148.93    -0.171 OA
ENDROOT
BRANCH  10  12
HETATM   12  C18 MIQ B 502     -26.185  -6.844  -7.404  1.00139.82     0.187 C 
HETATM   13  C19 MIQ B 502     -27.027  -8.067  -7.020  1.00140.06     0.247 C 
HETATM   14  O25 MIQ B 502     -26.865  -8.570  -5.966  1.00143.95    -0.271 OA
HETATM   15  N20 MIQ B 502     -28.022  -8.620  -7.916  1.00140.02    -0.296 N 
HETATM   16  H13 MIQ B 502     -28.560  -9.423  -7.656  1.00142.77     0.171 HD
HETATM   17  C21 MIQ B 502     -28.194  -7.995  -9.202  1.00142.22     0.224 C 
HETATM   18  C22 MIQ B 502     -26.953  -7.404  -9.844  1.00139.52     0.106 C 
HETATM   19  O24 MIQ B 502     -29.251  -7.942  -9.727  1.00146.13    -0.273 OA
HETATM   20  C23 MIQ B 502     -26.391  -6.402  -8.852  1.00139.15     0.045 C 
ENDBRANCH  10  12
BRANCH   5  21
HETATM   21  N6  MIQ B 502     -18.882  -7.276  -5.506  1.00140.95    -0.377 N 
HETATM   22  C7  MIQ B 502     -17.829  -6.824  -6.399  1.00142.12     0.149 C 
HETATM   23  C8  MIQ B 502     -16.443  -7.111  -5.835  1.00144.10     0.187 C 
HETATM   24  O9  MIQ B 502     -16.307  -6.715  -4.502  1.00148.65    -0.388 OA
HETATM   25  C10 MIQ B 502     -17.426  -6.326  -3.762  1.00147.44     0.187 C 
HETATM   26  C11 MIQ B 502     -18.775  -6.955  -4.094  1.00144.08     0.149 C 
ENDBRANCH   5  21
TORSDOF 2
ENDMDL
MODEL 8
REMARK VINA RESULT:      -5.9      2.527      8.609
REMARK  2 active torsions:
REMARK  status: ('A' for Active; 'I' for Inactive)
REMARK    1  A    between atoms: C5_5  and  N6_21 
REMARK    2  A    between atoms: C18_14  and  N17_19 
ROOT
HETATM    1  O1  MIQ B 502     -19.574  -9.219  -3.755  1.00142.91    -0.171 OA
HETATM    2  C2  MIQ B 502     -18.699  -8.343  -4.400  1.00141.17     0.195 A 
HETATM    3  C3  MIQ B 502     -17.247  -7.989  -3.946  1.00141.71     0.035 A 
HETATM    4  C4  MIQ B 502     -16.402  -8.420  -2.807  1.00142.86     0.046 A 
HETATM    5  C5  MIQ B 502     -15.087  -7.912  -2.657  1.00139.53     0.031 A 
HETATM    6  C12 MIQ B 502     -14.565  -6.962  -3.629  1.00139.38     0.030 A 
HETATM    7  C13 MIQ B 502     -15.374  -6.550  -4.722  1.00141.18     0.019 A 
HETATM    8  C14 MIQ B 502     -16.753  -7.088  -4.875  1.00138.77     0.033 A 
HETATM    9  C15 MIQ B 502     -17.905  -6.882  -5.912  1.00142.10     0.195 A 
HETATM   10  N17 MIQ B 502     -18.904  -7.647  -5.505  1.00139.42    -0.288 N 
HETATM   11  O16 MIQ B 502     -17.879  -6.055  -7.036  1.00148.93    -0.171 OA
ENDROOT
BRANCH  10  12
HETATM   12  C18 MIQ B 502     -20.162  -7.697  -6.227  1.00139.82     0.187 C 
HETATM   13  C19 MIQ B 502     -21.290  -7.447  -5.219  1.00140.06     0.247 C 
HETATM   14  O25 MIQ B 502     -21.229  -6.508  -4.507  1.00143.95    -0.271 OA
HETATM   15  N20 MIQ B 502     -22.435  -8.328  -5.119  1.00140.02    -0.296 N 
HETATM   16  H13 MIQ B 502     -23.162  -8.157  -4.453  1.00142.77     0.171 HD
HETATM   17  C21 MIQ B 502     -22.483  -9.473  -5.992  1.00142.22     0.224 C 
HETATM   18  C22 MIQ B 502     -21.156 -10.117  -6.344  1.00139.52     0.106 C 
HETATM   19  O24 MIQ B 502     -23.507  -9.885  -6.416  1.00146.13    -0.273 OA
HETATM   20  C23 MIQ B 502     -20.299  -9.029  -6.964  1.00139.15     0.045 C 
ENDBRANCH  10  12
BRANCH   5  21
HETATM   21  N6  MIQ B 502     -14.276  -8.331  -1.529  1.00140.95    -0.377 N 
HETATM   22  C7  MIQ B 502     -13.630  -7.311  -0.721  1.00142.12     0.149 C 
HETATM   23  C8  MIQ B 502     -12.372  -7.836  -0.042  1.00144.10     0.187 C 
HETATM   24  O9  MIQ B 502     -12.568  -9.064   0.592  1.00148.65    -0.388 OA
HETATM   25  C10 MIQ B 502     -13.746  -9.786   0.386  1.00147.44     0.187 C 
HETATM   26  C11 MIQ B 502     -14.459  -9.653  -0.956  1.00144.08     0.149 C 
ENDBRANCH   5  21
TORSDOF 2
ENDMDL
MODEL 9
REMARK VINA RESULT:      -5.8      2.045      8.324
REMARK  2 active torsions:
REMARK  status: ('A' for Active; 'I' for Inactive)
REMARK    1  A    between atoms: C5_5  and  N6_21 
REMARK    2  A    between atoms: C18_14  and  N17_19 
ROOT
HETATM    1  O1  MIQ B 502     -22.792  -5.740  -3.537  1.00142.91    -0.171 OA
HETATM    2  C2  MIQ B 502     -22.121  -6.428  -4.552  1.00141.17     0.195 A 
HETATM    3  C3  MIQ B 502     -20.579  -6.654  -4.649  1.00141.71     0.035 A 
HETATM    4  C4  MIQ B 502     -19.435  -6.261  -3.792  1.00142.86     0.046 A 
HETATM    5  C5  MIQ B 502     -18.113  -6.623  -4.151  1.00139.53     0.031 A 
HETATM    6  C12 MIQ B 502     -17.878  -7.386  -5.369  1.00139.38     0.030 A 
HETATM    7  C13 MIQ B 502     -18.974  -7.763  -6.190  1.00141.18     0.019 A 
HETATM    8  C14 MIQ B 502     -20.361  -7.382  -5.807  1.00138.77     0.033 A 
HETATM    9  C15 MIQ B 502     -21.776  -7.610  -6.431  1.00142.10     0.195 A 
HETATM   10  N17 MIQ B 502     -22.635  -7.023  -5.614  1.00139.42    -0.288 N 
HETATM   11  O16 MIQ B 502     -22.068  -8.294  -7.613  1.00148.93    -0.171 OA
ENDROOT
BRANCH  10  12
HETATM   12  C18 MIQ B 502     -24.060  -7.019  -5.889  1.00139.82     0.187 C 
HETATM   13  C19 MIQ B 502     -24.487  -8.466  -6.163  1.00140.06     0.247 C 
HETATM   14  O25 MIQ B 502     -24.189  -9.310  -5.395  1.00143.95    -0.271 OA
HETATM   15  N20 MIQ B 502     -25.254  -8.826  -7.338  1.00140.02    -0.296 N 
HETATM   16  H13 MIQ B 502     -25.521  -9.775  -7.509  1.00142.77     0.171 HD
HETATM   17  C21 MIQ B 502     -25.596  -7.780  -8.267  1.00142.22     0.224 C 
HETATM   18  C22 MIQ B 502     -24.592  -6.655  -8.427  1.00139.52     0.106 C 
HETATM   19  O24 MIQ B 502     -26.613  -7.796  -8.869  1.00146.13    -0.273 OA
HETATM   20  C23 MIQ B 502     -24.376  -6.069  -7.043  1.00139.15     0.045 C 
ENDBRANCH  10  12
BRANCH   5  21
HETATM   21  N6  MIQ B 502     -17.001  -6.219  -3.310  1.00140.95    -0.377 N 
HETATM   22  C7  MIQ B 502     -15.684  -6.097  -3.911  1.00142.12     0.149 C 
HETATM   23  C8  MIQ B 502     -14.572  -6.312  -2.892  1.00144.10     0.187 C 
HETATM   24  O9  MIQ B 502     -14.762  -5.580  -1.718  1.00148.65    -0.388 OA
HETATM   25  C10 MIQ B 502     -15.976  -4.932  -1.477  1.00147.44     0.187 C 
HETATM   26  C11 MIQ B 502     -17.252  -5.535  -2.054  1.00144.08     0.149 C 
ENDBRANCH   5  21
TORSDOF 2
ENDMDL
