MODEL 1
REMARK VINA RESULT:      -5.8      0.000      0.000
REMARK  2 active torsions:
REMARK  status: ('A' for Active; 'I' for Inactive)
REMARK    1  A    between atoms: C5_5  and  N6_21 
REMARK    2  A    between atoms: C18_14  and  N17_19 
ROOT
HETATM    1  O1  MIQ B 502      25.793  -3.313 -10.342  1.00142.91    -0.171 OA
HETATM    2  C2  MIQ B 502      26.494  -2.127 -10.572  1.00141.17     0.195 A 
HETATM    3  C3  MIQ B 502      25.884  -0.691 -10.627  1.00141.71     0.035 A 
HETATM    4  C4  MIQ B 502      24.509  -0.161 -10.467  1.00142.86     0.046 A 
HETATM    5  C5  MIQ B 502      24.261   1.231 -10.572  1.00139.53     0.031 A 
HETATM    6  C12 MIQ B 502      25.363   2.144 -10.837  1.00139.38     0.030 A 
HETATM    7  C13 MIQ B 502      26.682   1.636 -10.989  1.00141.18     0.019 A 
HETATM    8  C14 MIQ B 502      26.937   0.174 -10.876  1.00138.77     0.033 A 
HETATM    9  C15 MIQ B 502      28.208  -0.730 -10.975  1.00142.10     0.195 A 
HETATM   10  N17 MIQ B 502      27.790  -1.970 -10.782  1.00139.42    -0.288 N 
HETATM   11  O16 MIQ B 502      29.516  -0.310 -11.222  1.00148.93    -0.171 OA
ENDROOT
BRANCH  10  12
HETATM   12  C18 MIQ B 502      28.708  -3.094 -10.821  1.00139.82     0.187 C 
HETATM   13  C19 MIQ B 502      28.163  -4.107 -11.835  1.00140.06     0.247 C 
HETATM   14  O25 MIQ B 502      27.871  -3.740 -12.917  1.00143.95    -0.271 OA
HETATM   15  N20 MIQ B 502      28.002  -5.508 -11.503  1.00140.02    -0.296 N 
HETATM   16  H13 MIQ B 502      27.639  -6.159 -12.172  1.00142.77     0.171 HD
HETATM   17  C21 MIQ B 502      28.355  -5.931 -10.172  1.00142.22     0.224 C 
HETATM   18  C22 MIQ B 502      28.116  -4.935  -9.055  1.00139.52     0.106 C 
HETATM   19  O24 MIQ B 502      28.813  -7.001  -9.965  1.00146.13    -0.273 OA
HETATM   20  C23 MIQ B 502      28.889  -3.681  -9.422  1.00139.15     0.045 C 
ENDBRANCH  10  12
BRANCH   5  21
HETATM   21  N6  MIQ B 502      22.907   1.735 -10.429  1.00140.95    -0.377 N 
HETATM   22  C7  MIQ B 502      22.057   1.160  -9.400  1.00142.12     0.149 C 
HETATM   23  C8  MIQ B 502      20.580   1.273  -9.753  1.00144.10     0.187 C 
HETATM   24  O9  MIQ B 502      20.220   2.554 -10.178  1.00148.65    -0.388 OA
HETATM   25  C10 MIQ B 502      21.200   3.511 -10.451  1.00147.44     0.187 C 
HETATM   26  C11 MIQ B 502      22.557   3.039 -10.963  1.00144.08     0.149 C 
ENDBRANCH   5  21
TORSDOF 2
ENDMDL
MODEL 2
REMARK VINA RESULT:      -5.7     18.443     20.483
REMARK  2 active torsions:
REMARK  status: ('A' for Active; 'I' for Inactive)
REMARK    1  A    between atoms: C5_5  and  N6_21 
REMARK    2  A    between atoms: C18_14  and  N17_19 
ROOT
HETATM    1  O1  MIQ B 502      12.974 -18.542  -8.961  1.00142.91    -0.171 OA
HETATM    2  C2  MIQ B 502      13.458 -17.697  -7.959  1.00141.17     0.195 A 
HETATM    3  C3  MIQ B 502      14.327 -16.417  -8.172  1.00141.71     0.035 A 
HETATM    4  C4  MIQ B 502      14.868 -15.741  -9.376  1.00142.86     0.046 A 
HETATM    5  C5  MIQ B 502      15.642 -14.560  -9.247  1.00139.53     0.031 A 
HETATM    6  C12 MIQ B 502      15.907 -14.010  -7.925  1.00139.38     0.030 A 
HETATM    7  C13 MIQ B 502      15.388 -14.657  -6.772  1.00141.18     0.019 A 
HETATM    8  C14 MIQ B 502      14.574 -15.895  -6.913  1.00138.77     0.033 A 
HETATM    9  C15 MIQ B 502      13.853 -16.857  -5.912  1.00142.10     0.195 A 
HETATM   10  N17 MIQ B 502      13.285 -17.795  -6.652  1.00139.42    -0.288 N 
HETATM   11  O16 MIQ B 502      13.822 -16.745  -4.521  1.00148.93    -0.171 OA
ENDROOT
BRANCH  10  12
HETATM   12  C18 MIQ B 502      12.532 -18.880  -6.052  1.00139.82     0.187 C 
HETATM   13  C19 MIQ B 502      13.093 -20.198  -6.601  1.00140.06     0.247 C 
HETATM   14  O25 MIQ B 502      14.256 -20.391  -6.557  1.00143.95    -0.271 OA
HETATM   15  N20 MIQ B 502      12.233 -21.217  -7.168  1.00140.02    -0.296 N 
HETATM   16  H13 MIQ B 502      12.613 -22.070  -7.529  1.00142.77     0.171 HD
HETATM   17  C21 MIQ B 502      10.819 -20.953  -7.220  1.00142.22     0.224 C 
HETATM   18  C22 MIQ B 502      10.402 -19.511  -7.439  1.00139.52     0.106 C 
HETATM   19  O24 MIQ B 502      10.024 -21.818  -7.093  1.00146.13    -0.273 OA
HETATM   20  C23 MIQ B 502      11.039 -18.704  -6.322  1.00139.15     0.045 C 
ENDBRANCH  10  12
BRANCH   5  21
HETATM   21  N6  MIQ B 502      16.178 -13.917 -10.433  1.00140.95    -0.377 N 
HETATM   22  C7  MIQ B 502      17.407 -13.153 -10.313  1.00142.12     0.149 C 
HETATM   23  C8  MIQ B 502      17.502 -12.059 -11.369  1.00144.10     0.187 C 
HETATM   24  O9  MIQ B 502      17.207 -12.517 -12.655  1.00148.65    -0.388 OA
HETATM   25  C10 MIQ B 502      16.663 -13.790 -12.844  1.00147.44     0.187 C 
HETATM   26  C11 MIQ B 502      15.774 -14.374 -11.751  1.00144.08     0.149 C 
ENDBRANCH   5  21
TORSDOF 2
ENDMDL
MODEL 3
REMARK VINA RESULT:      -5.6      5.750      8.498
REMARK  2 active torsions:
REMARK  status: ('A' for Active; 'I' for Inactive)
REMARK    1  A    between atoms: C5_5  and  N6_21 
REMARK    2  A    between atoms: C18_14  and  N17_19 
ROOT
HETATM    1  O1  MIQ B 502      20.094   1.409 -10.478  1.00142.91    -0.171 OA
HETATM    2  C2  MIQ B 502      20.771   0.947 -11.608  1.00141.17     0.195 A 
HETATM    3  C3  MIQ B 502      20.252  -0.123 -12.621  1.00141.71     0.035 A 
HETATM    4  C4  MIQ B 502      19.003  -0.916 -12.715  1.00142.86     0.046 A 
HETATM    5  C5  MIQ B 502      18.814  -1.832 -13.780  1.00139.53     0.031 A 
HETATM    6  C12 MIQ B 502      19.853  -1.994 -14.787  1.00139.38     0.030 A 
HETATM    7  C13 MIQ B 502      21.050  -1.233 -14.698  1.00141.18     0.019 A 
HETATM    8  C14 MIQ B 502      21.242  -0.271 -13.578  1.00138.77     0.033 A 
HETATM    9  C15 MIQ B 502      22.382   0.713 -13.158  1.00142.10     0.195 A 
HETATM   10  N17 MIQ B 502      21.962   1.308 -12.054  1.00139.42    -0.288 N 
HETATM   11  O16 MIQ B 502      23.596   0.916 -13.817  1.00148.93    -0.171 OA
ENDROOT
BRANCH  10  12
HETATM   12  C18 MIQ B 502      22.780   2.288 -11.363  1.00139.82     0.187 C 
HETATM   13  C19 MIQ B 502      22.859   1.875  -9.888  1.00140.06     0.247 C 
HETATM   14  O25 MIQ B 502      23.170   0.770  -9.615  1.00143.95    -0.271 OA
HETATM   15  N20 MIQ B 502      22.567   2.806  -8.818  1.00140.02    -0.296 N 
HETATM   16  H13 MIQ B 502      22.616   2.523  -7.859  1.00142.77     0.171 HD
HETATM   17  C21 MIQ B 502      22.180   4.146  -9.177  1.00142.22     0.224 C 
HETATM   18  C22 MIQ B 502      21.379   4.304 -10.455  1.00139.52     0.106 C 
HETATM   19  O24 MIQ B 502      22.477   5.075  -8.509  1.00146.13    -0.273 OA
HETATM   20  C23 MIQ B 502      22.213   3.692 -11.565  1.00139.15     0.045 C 
ENDBRANCH  10  12
BRANCH   5  21
HETATM   21  N6  MIQ B 502      17.593  -2.613 -13.852  1.00140.95    -0.377 N 
HETATM   22  C7  MIQ B 502      17.681  -4.055 -13.707  1.00142.12     0.149 C 
HETATM   23  C8  MIQ B 502      16.535  -4.769 -14.414  1.00144.10     0.187 C 
HETATM   24  O9  MIQ B 502      15.287  -4.215 -14.122  1.00148.65    -0.388 OA
HETATM   25  C10 MIQ B 502      15.195  -2.999 -13.441  1.00147.44     0.187 C 
HETATM   26  C11 MIQ B 502      16.308  -1.973 -13.625  1.00144.08     0.149 C 
ENDBRANCH   5  21
TORSDOF 2
ENDMDL
MODEL 4
REMARK VINA RESULT:      -5.6      5.912      8.175
REMARK  2 active torsions:
REMARK  status: ('A' for Active; 'I' for Inactive)
REMARK    1  A    between atoms: C5_5  and  N6_21 
REMARK    2  A    between atoms: C18_14  and  N17_19 
ROOT
HETATM    1  O1  MIQ B 502      20.942   4.162 -10.331  1.00142.91    -0.171 OA
HETATM    2  C2  MIQ B 502      22.184   4.024  -9.708  1.00141.17     0.195 A 
HETATM    3  C3  MIQ B 502      22.937   5.127  -8.897  1.00141.71     0.035 A 
HETATM    4  C4  MIQ B 502      22.620   6.533  -8.552  1.00142.86     0.046 A 
HETATM    5  C5  MIQ B 502      23.526   7.302  -7.779  1.00139.53     0.031 A 
HETATM    6  C12 MIQ B 502      24.773   6.707  -7.323  1.00139.38     0.030 A 
HETATM    7  C13 MIQ B 502      25.077   5.359  -7.653  1.00141.18     0.019 A 
HETATM    8  C14 MIQ B 502      24.122   4.555  -8.462  1.00138.77     0.033 A 
HETATM    9  C15 MIQ B 502      24.103   3.088  -9.005  1.00142.10     0.195 A 
HETATM   10  N17 MIQ B 502      22.966   2.958  -9.668  1.00139.42    -0.288 N 
HETATM   11  O16 MIQ B 502      25.092   2.119  -8.827  1.00148.93    -0.171 OA
ENDROOT
BRANCH  10  12
HETATM   12  C18 MIQ B 502      22.612   1.716 -10.329  1.00139.82     0.187 C 
HETATM   13  C19 MIQ B 502      22.194   2.054 -11.766  1.00140.06     0.247 C 
HETATM   14  O25 MIQ B 502      22.905   2.721 -12.431  1.00143.95    -0.271 OA
HETATM   15  N20 MIQ B 502      20.951   1.572 -12.333  1.00140.02    -0.296 N 
HETATM   16  H13 MIQ B 502      20.687   1.805 -13.270  1.00142.77     0.171 HD
HETATM   17  C21 MIQ B 502      20.096   0.769 -11.498  1.00142.22     0.224 C 
HETATM   18  C22 MIQ B 502      20.088   1.096 -10.017  1.00139.52     0.106 C 
HETATM   19  O24 MIQ B 502      19.438  -0.104 -11.946  1.00146.13    -0.273 OA
HETATM   20  C23 MIQ B 502      21.525   0.985  -9.543  1.00139.15     0.045 C 
ENDBRANCH  10  12
BRANCH   5  21
HETATM   21  N6  MIQ B 502      23.209   8.683  -7.461  1.00140.95    -0.377 N 
HETATM   22  C7  MIQ B 502      23.828   9.286  -6.293  1.00142.12     0.149 C 
HETATM   23  C8  MIQ B 502      22.980  10.412  -5.717  1.00144.10     0.187 C 
HETATM   24  O9  MIQ B 502      22.538  11.311  -6.690  1.00148.65    -0.388 OA
HETATM   25  C10 MIQ B 502      22.694  11.019  -8.047  1.00147.44     0.187 C 
HETATM   26  C11 MIQ B 502      22.670   9.559  -8.486  1.00144.08     0.149 C 
ENDBRANCH   5  21
TORSDOF 2
ENDMDL
MODEL 5
REMARK VINA RESULT:      -5.5      2.534      8.170
REMARK  2 active torsions:
REMARK  status: ('A' for Active; 'I' for Inactive)
REMARK    1  A    between atoms: C5_5  and  N6_21 
REMARK    2  A    between atoms: C18_14  and  N17_19 
ROOT
HETATM    1  O1  MIQ B 502      24.915   1.854  -9.089  1.00142.91    -0.171 OA
HETATM    2  C2  MIQ B 502      24.372   1.233 -10.216  1.00141.17     0.195 A 
HETATM    3  C3  MIQ B 502      24.679  -0.218 -10.707  1.00141.71     0.035 A 
HETATM    4  C4  MIQ B 502      25.550  -1.304 -10.196  1.00142.86     0.046 A 
HETATM    5  C5  MIQ B 502      25.620  -2.546 -10.877  1.00139.53     0.031 A 
HETATM    6  C12 MIQ B 502      24.832  -2.755 -12.083  1.00139.38     0.030 A 
HETATM    7  C13 MIQ B 502      23.996  -1.715 -12.572  1.00141.18     0.019 A 
HETATM    8  C14 MIQ B 502      23.925  -0.414 -11.852  1.00138.77     0.033 A 
HETATM    9  C15 MIQ B 502      23.144   0.923 -12.073  1.00142.10     0.195 A 
HETATM   10  N17 MIQ B 502      23.503   1.723 -11.083  1.00139.42    -0.288 N 
HETATM   11  O16 MIQ B 502      22.254   1.209 -13.110  1.00148.93    -0.171 OA
ENDROOT
BRANCH  10  12
HETATM   12  C18 MIQ B 502      22.981   3.073 -10.973  1.00139.82     0.187 C 
HETATM   13  C19 MIQ B 502      24.175   4.031 -10.888  1.00140.06     0.247 C 
HETATM   14  O25 MIQ B 502      25.033   3.955 -11.694  1.00143.95    -0.271 OA
HETATM   15  N20 MIQ B 502      24.278   5.033  -9.846  1.00140.02    -0.296 N 
HETATM   16  H13 MIQ B 502      25.067   5.648  -9.798  1.00142.77     0.171 HD
HETATM   17  C21 MIQ B 502      23.224   5.099  -8.868  1.00142.22     0.224 C 
HETATM   18  C22 MIQ B 502      22.562   3.788  -8.489  1.00139.52     0.106 C 
HETATM   19  O24 MIQ B 502      22.888   6.126  -8.390  1.00146.13    -0.273 OA
HETATM   20  C23 MIQ B 502      22.036   3.182  -9.777  1.00139.15     0.045 C 
ENDBRANCH  10  12
BRANCH   5  21
HETATM   21  N6  MIQ B 502      26.488  -3.595 -10.374  1.00140.95    -0.377 N 
HETATM   22  C7  MIQ B 502      27.169  -3.385  -9.108  1.00142.12     0.149 C 
HETATM   23  C8  MIQ B 502      28.463  -4.185  -9.018  1.00144.10     0.187 C 
HETATM   24  O9  MIQ B 502      28.304  -5.520  -9.397  1.00148.65    -0.388 OA
HETATM   25  C10 MIQ B 502      27.120  -5.947 -10.005  1.00147.44     0.187 C 
HETATM   26  C11 MIQ B 502      26.341  -4.955 -10.862  1.00144.08     0.149 C 
ENDBRANCH   5  21
TORSDOF 2
ENDMDL
MODEL 6
REMARK VINA RESULT:      -5.5      2.160      8.608
REMARK  2 active torsions:
REMARK  status: ('A' for Active; 'I' for Inactive)
REMARK    1  A    between atoms: C5_5  and  N6_21 
REMARK    2  A    between atoms: C18_14  and  N17_19 
ROOT
HETATM    1  O1  MIQ B 502      24.774   2.119  -8.942  1.00142.91    -0.171 OA
HETATM    2  C2  MIQ B 502      24.171   1.541 -10.062  1.00141.17     0.195 A 
HETATM    3  C3  MIQ B 502      24.487   0.130 -10.654  1.00141.71     0.035 A 
HETATM    4  C4  MIQ B 502      25.425  -0.950 -10.268  1.00142.86     0.046 A 
HETATM    5  C5  MIQ B 502      25.485  -2.150 -11.021  1.00139.53     0.031 A 
HETATM    6  C12 MIQ B 502      24.618  -2.321 -12.178  1.00139.38     0.030 A 
HETATM    7  C13 MIQ B 502      23.717  -1.286 -12.547  1.00141.18     0.019 A 
HETATM    8  C14 MIQ B 502      23.657  -0.029 -11.752  1.00138.77     0.033 A 
HETATM    9  C15 MIQ B 502      22.822   1.289 -11.842  1.00142.10     0.195 A 
HETATM   10  N17 MIQ B 502      23.226   2.047 -10.835  1.00139.42    -0.288 N 
HETATM   11  O16 MIQ B 502      21.850   1.600 -12.794  1.00148.93    -0.171 OA
ENDROOT
BRANCH  10  12
HETATM   12  C18 MIQ B 502      22.672   3.369 -10.613  1.00139.82     0.187 C 
HETATM   13  C19 MIQ B 502      21.146   3.232 -10.543  1.00140.06     0.247 C 
HETATM   14  O25 MIQ B 502      20.673   2.428  -9.820  1.00143.95    -0.271 OA
HETATM   15  N20 MIQ B 502      20.267   4.065 -11.337  1.00140.02    -0.296 N 
HETATM   16  H13 MIQ B 502      19.273   3.961 -11.287  1.00142.77     0.171 HD
HETATM   17  C21 MIQ B 502      20.869   5.031 -12.220  1.00142.22     0.224 C 
HETATM   18  C22 MIQ B 502      22.194   4.647 -12.848  1.00139.52     0.106 C 
HETATM   19  O24 MIQ B 502      20.356   6.073 -12.437  1.00146.13    -0.273 OA
HETATM   20  C23 MIQ B 502      23.140   4.332 -11.703  1.00139.15     0.045 C 
ENDBRANCH  10  12
BRANCH   5  21
HETATM   21  N6  MIQ B 502      26.419  -3.194 -10.641  1.00140.95    -0.377 N 
HETATM   22  C7  MIQ B 502      27.743  -2.808 -10.184  1.00142.12     0.149 C 
HETATM   23  C8  MIQ B 502      28.773  -3.901 -10.439  1.00144.10     0.187 C 
HETATM   24  O9  MIQ B 502      28.342  -5.162 -10.022  1.00148.65    -0.388 OA
HETATM   25  C10 MIQ B 502      27.013  -5.366  -9.641  1.00147.44     0.187 C 
HETATM   26  C11 MIQ B 502      25.929  -4.517 -10.298  1.00144.08     0.149 C 
ENDBRANCH   5  21
TORSDOF 2
ENDMDL
MODEL 7
REMARK VINA RESULT:      -5.5     19.309     21.772
REMARK  2 active torsions:
REMARK  status: ('A' for Active; 'I' for Inactive)
REMARK    1  A    between atoms: C5_5  and  N6_21 
REMARK    2  A    between atoms: C18_14  and  N17_19 
ROOT
HETATM    1  O1  MIQ B 502      26.272 -17.232   0.107  1.00142.91    -0.171 OA
HETATM    2  C2  MIQ B 502      25.719 -17.959   1.164  1.00141.17     0.195 A 
HETATM    3  C3  MIQ B 502      25.976 -17.715   2.685  1.00141.71     0.035 A 
HETATM    4  C4  MIQ B 502      26.797 -16.736   3.436  1.00142.86     0.046 A 
HETATM    5  C5  MIQ B 502      26.828 -16.762   4.853  1.00139.53     0.031 A 
HETATM    6  C12 MIQ B 502      26.046 -17.757   5.574  1.00139.38     0.030 A 
HETATM    7  C13 MIQ B 502      25.258 -18.695   4.855  1.00141.18     0.019 A 
HETATM    8  C14 MIQ B 502      25.228 -18.661   3.367  1.00138.77     0.033 A 
HETATM    9  C15 MIQ B 502      24.503 -19.497   2.262  1.00142.10     0.195 A 
HETATM   10  N17 MIQ B 502      24.880 -18.979   1.105  1.00139.42    -0.288 N 
HETATM   11  O16 MIQ B 502      23.636 -20.573   2.463  1.00148.93    -0.171 OA
ENDROOT
BRANCH  10  12
HETATM   12  C18 MIQ B 502      24.410 -19.520  -0.156  1.00139.82     0.187 C 
HETATM   13  C19 MIQ B 502      25.635 -19.774  -1.042  1.00140.06     0.247 C 
HETATM   14  O25 MIQ B 502      26.541 -20.392  -0.608  1.00143.95    -0.271 OA
HETATM   15  N20 MIQ B 502      25.711 -19.280  -2.402  1.00140.02    -0.296 N 
HETATM   16  H13 MIQ B 502      26.519 -19.447  -2.968  1.00142.77     0.171 HD
HETATM   17  C21 MIQ B 502      24.596 -18.519  -2.906  1.00142.22     0.224 C 
HETATM   18  C22 MIQ B 502      23.856 -17.651  -1.906  1.00139.52     0.106 C 
HETATM   19  O24 MIQ B 502      24.274 -18.574  -4.041  1.00146.13    -0.273 OA
HETATM   20  C23 MIQ B 502      23.392 -18.575  -0.794  1.00139.15     0.045 C 
ENDBRANCH  10  12
BRANCH   5  21
HETATM   21  N6  MIQ B 502      27.648 -15.807   5.575  1.00140.95    -0.377 N 
HETATM   22  C7  MIQ B 502      27.089 -14.501   5.879  1.00142.12     0.149 C 
HETATM   23  C8  MIQ B 502      28.172 -13.439   6.022  1.00144.10     0.187 C 
HETATM   24  O9  MIQ B 502      29.225 -13.843   6.845  1.00148.65    -0.388 OA
HETATM   25  C10 MIQ B 502      29.325 -15.173   7.264  1.00147.44     0.187 C 
HETATM   26  C11 MIQ B 502      28.787 -16.268   6.349  1.00144.08     0.149 C 
ENDBRANCH   5  21
TORSDOF 2
ENDMDL
MODEL 8
REMARK VINA RESULT:      -5.5     16.232     19.174
REMARK  2 active torsions:
REMARK  status: ('A' for Active; 'I' for Inactive)
REMARK    1  A    between atoms: C5_5  and  N6_21 
REMARK    2  A    between atoms: C18_14  and  N17_19 
ROOT
HETATM    1  O1  MIQ B 502      25.101   8.885   4.318  1.00142.91    -0.171 OA
HETATM    2  C2  MIQ B 502      24.626   7.636   4.721  1.00141.17     0.195 A 
HETATM    3  C3  MIQ B 502      25.480   6.342   4.910  1.00141.71     0.035 A 
HETATM    4  C4  MIQ B 502      26.922   6.039   4.747  1.00142.86     0.046 A 
HETATM    5  C5  MIQ B 502      27.414   4.734   5.001  1.00139.53     0.031 A 
HETATM    6  C12 MIQ B 502      26.497   3.686   5.426  1.00139.38     0.030 A 
HETATM    7  C13 MIQ B 502      25.115   3.976   5.584  1.00141.18     0.019 A 
HETATM    8  C14 MIQ B 502      24.605   5.349   5.318  1.00138.77     0.033 A 
HETATM    9  C15 MIQ B 502      23.199   6.030   5.383  1.00142.10     0.195 A 
HETATM   10  N17 MIQ B 502      23.387   7.290   5.027  1.00139.42    -0.288 N 
HETATM   11  O16 MIQ B 502      21.993   5.426   5.742  1.00148.93    -0.171 OA
ENDROOT
BRANCH  10  12
HETATM   12  C18 MIQ B 502      22.284   8.230   4.957  1.00139.82     0.187 C 
HETATM   13  C19 MIQ B 502      21.516   8.149   6.281  1.00140.06     0.247 C 
HETATM   14  O25 MIQ B 502      22.108   8.241   7.297  1.00143.95    -0.271 OA
HETATM   15  N20 MIQ B 502      20.079   7.969   6.321  1.00140.02    -0.296 N 
HETATM   16  H13 MIQ B 502      19.590   7.912   7.193  1.00142.77     0.171 HD
HETATM   17  C21 MIQ B 502      19.379   7.850   5.068  1.00142.22     0.224 C 
HETATM   18  C22 MIQ B 502      20.121   7.165   3.936  1.00139.52     0.106 C 
HETATM   19  O24 MIQ B 502      18.284   8.271   4.930  1.00146.13    -0.273 OA
HETATM   20  C23 MIQ B 502      21.412   7.937   3.737  1.00139.15     0.045 C 
ENDBRANCH  10  12
BRANCH   5  21
HETATM   21  N6  MIQ B 502      28.826   4.449   4.822  1.00140.95    -0.377 N 
HETATM   22  C7  MIQ B 502      29.739   4.751   5.911  1.00142.12     0.149 C 
HETATM   23  C8  MIQ B 502      31.152   5.023   5.410  1.00144.10     0.187 C 
HETATM   24  O9  MIQ B 502      31.601   4.060   4.504  1.00148.65    -0.388 OA
HETATM   25  C10 MIQ B 502      30.717   3.114   3.980  1.00147.44     0.187 C 
HETATM   26  C11 MIQ B 502      29.252   3.502   3.807  1.00144.08     0.149 C 
ENDBRANCH   5  21
TORSDOF 2
ENDMDL
MODEL 9
REMARK VINA RESULT:      -5.5     17.459     20.091
REMARK  2 active torsions:
REMARK  status: ('A' for Active; 'I' for Inactive)
REMARK    1  A    between atoms: C5_5  and  N6_21 
REMARK    2  A    between atoms: C18_14  and  N17_19 
ROOT
HETATM    1  O1  MIQ B 502      21.436   2.864   8.195  1.00142.91    -0.171 OA
HETATM    2  C2  MIQ B 502      21.167   4.050   7.509  1.00141.17     0.195 A 
HETATM    3  C3  MIQ B 502      22.180   4.867   6.645  1.00141.71     0.035 A 
HETATM    4  C4  MIQ B 502      23.609   4.676   6.299  1.00142.86     0.046 A 
HETATM    5  C5  MIQ B 502      24.276   5.612   5.469  1.00139.53     0.031 A 
HETATM    6  C12 MIQ B 502      23.553   6.766   4.954  1.00139.38     0.030 A 
HETATM    7  C13 MIQ B 502      22.183   6.948   5.284  1.00141.18     0.019 A 
HETATM    8  C14 MIQ B 502      21.487   5.961   6.154  1.00138.77     0.033 A 
HETATM    9  C15 MIQ B 502      20.034   5.823   6.716  1.00142.10     0.195 A 
HETATM   10  N17 MIQ B 502      20.026   4.716   7.440  1.00139.42    -0.288 N 
HETATM   11  O16 MIQ B 502      18.967   6.696   6.497  1.00148.93    -0.171 OA
ENDROOT
BRANCH  10  12
HETATM   12  C18 MIQ B 502      18.832   4.274   8.136  1.00139.82     0.187 C 
HETATM   13  C19 MIQ B 502      19.199   4.068   9.610  1.00140.06     0.247 C 
HETATM   14  O25 MIQ B 502      19.754   4.931  10.192  1.00143.95    -0.271 OA
HETATM   15  N20 MIQ B 502      18.878   2.842  10.313  1.00140.02    -0.296 N 
HETATM   16  H13 MIQ B 502      19.129   2.717  11.274  1.00142.77     0.171 HD
HETATM   17  C21 MIQ B 502      18.210   1.799   9.578  1.00142.22     0.224 C 
HETATM   18  C22 MIQ B 502      18.559   1.670   8.108  1.00139.52     0.106 C 
HETATM   19  O24 MIQ B 502      17.425   1.083  10.096  1.00146.13    -0.273 OA
HETATM   20  C23 MIQ B 502      18.266   3.018   7.475  1.00139.15     0.045 C 
ENDBRANCH  10  12
BRANCH   5  21
HETATM   21  N6  MIQ B 502      25.680   5.421   5.150  1.00140.95    -0.377 N 
HETATM   22  C7  MIQ B 502      26.580   6.555   5.271  1.00142.12     0.149 C 
HETATM   23  C8  MIQ B 502      27.782   6.428   4.345  1.00144.10     0.187 C 
HETATM   24  O9  MIQ B 502      28.390   5.172   4.412  1.00148.65    -0.388 OA
HETATM   25  C10 MIQ B 502      27.772   4.122   5.096  1.00147.44     0.187 C 
HETATM   26  C11 MIQ B 502      26.248   4.084   5.149  1.00144.08     0.149 C 
ENDBRANCH   5  21
TORSDOF 2
ENDMDL
