MODEL 1
REMARK VINA RESULT:      -6.6      0.000      0.000
REMARK  2 active torsions:
REMARK  status: ('A' for Active; 'I' for Inactive)
REMARK    1  A    between atoms: C5_5  and  N6_21 
REMARK    2  A    between atoms: C18_14  and  N17_19 
ROOT
HETATM    1  O1  MIQ B 502     -24.418  12.626   4.285  1.00142.91    -0.171 OA
HETATM    2  C2  MIQ B 502     -23.057  12.461   4.015  1.00141.17     0.195 A 
HETATM    3  C3  MIQ B 502     -21.874  12.941   4.915  1.00141.71     0.035 A 
HETATM    4  C4  MIQ B 502     -21.805  13.651   6.214  1.00142.86     0.046 A 
HETATM    5  C5  MIQ B 502     -20.549  13.956   6.798  1.00139.53     0.031 A 
HETATM    6  C12 MIQ B 502     -19.322  13.567   6.117  1.00139.38     0.030 A 
HETATM    7  C13 MIQ B 502     -19.389  12.885   4.873  1.00141.18     0.019 A 
HETATM    8  C14 MIQ B 502     -20.709  12.566   4.265  1.00138.77     0.033 A 
HETATM    9  C15 MIQ B 502     -21.172  11.849   2.955  1.00142.10     0.195 A 
HETATM   10  N17 MIQ B 502     -22.495  11.874   2.973  1.00139.42    -0.288 N 
HETATM   11  O16 MIQ B 502     -20.352  11.299   1.969  1.00148.93    -0.171 OA
ENDROOT
BRANCH  10  12
HETATM   12  C18 MIQ B 502     -23.277  11.305   1.891  1.00139.82     0.187 C 
HETATM   13  C19 MIQ B 502     -22.784   9.872   1.661  1.00140.06     0.247 C 
HETATM   14  O25 MIQ B 502     -22.703   9.136   2.580  1.00143.95    -0.271 OA
HETATM   15  N20 MIQ B 502     -22.421   9.391   0.344  1.00140.02    -0.296 N 
HETATM   16  H13 MIQ B 502     -22.094   8.455   0.208  1.00142.77     0.171 HD
HETATM   17  C21 MIQ B 502     -22.519  10.311  -0.760  1.00142.22     0.224 C 
HETATM   18  C22 MIQ B 502     -22.225  11.768  -0.461  1.00139.52     0.106 C 
HETATM   19  O24 MIQ B 502     -22.819   9.946  -1.843  1.00146.13    -0.273 OA
HETATM   20  C23 MIQ B 502     -23.178  12.183   0.644  1.00139.15     0.045 C 
ENDBRANCH  10  12
BRANCH   5  21
HETATM   21  N6  MIQ B 502     -20.496  14.665   8.064  1.00140.95    -0.377 N 
HETATM   22  C7  MIQ B 502     -19.910  13.994   9.211  1.00142.12     0.149 C 
HETATM   23  C8  MIQ B 502     -20.471  14.521  10.526  1.00144.10     0.187 C 
HETATM   24  O9  MIQ B 502     -20.484  15.915  10.592  1.00148.65    -0.388 OA
HETATM   25  C10 MIQ B 502     -20.220  16.680   9.452  1.00147.44     0.187 C 
HETATM   26  C11 MIQ B 502     -20.600  16.113   8.089  1.00144.08     0.149 C 
ENDBRANCH   5  21
TORSDOF 2
ENDMDL
MODEL 2
REMARK VINA RESULT:      -6.5      1.422      2.521
REMARK  2 active torsions:
REMARK  status: ('A' for Active; 'I' for Inactive)
REMARK    1  A    between atoms: C5_5  and  N6_21 
REMARK    2  A    between atoms: C18_14  and  N17_19 
ROOT
HETATM    1  O1  MIQ B 502     -20.221  11.691   2.366  1.00142.91    -0.171 OA
HETATM    2  C2  MIQ B 502     -21.264  12.033   3.228  1.00141.17     0.195 A 
HETATM    3  C3  MIQ B 502     -21.123  12.764   4.602  1.00141.71     0.035 A 
HETATM    4  C4  MIQ B 502     -19.964  13.284   5.365  1.00142.86     0.046 A 
HETATM    5  C5  MIQ B 502     -20.157  13.918   6.618  1.00139.53     0.031 A 
HETATM    6  C12 MIQ B 502     -21.502  14.059   7.157  1.00139.38     0.030 A 
HETATM    7  C13 MIQ B 502     -22.614  13.561   6.425  1.00141.18     0.019 A 
HETATM    8  C14 MIQ B 502     -22.405  12.898   5.109  1.00138.77     0.033 A 
HETATM    9  C15 MIQ B 502     -23.348  12.248   4.044  1.00142.10     0.195 A 
HETATM   10  N17 MIQ B 502     -22.560  11.823   3.070  1.00139.42    -0.288 N 
HETATM   11  O16 MIQ B 502     -24.737  12.138   4.114  1.00148.93    -0.171 OA
ENDROOT
BRANCH  10  12
HETATM   12  C18 MIQ B 502     -23.095  11.145   1.905  1.00139.82     0.187 C 
HETATM   13  C19 MIQ B 502     -22.314   9.837   1.725  1.00140.06     0.247 C 
HETATM   14  O25 MIQ B 502     -22.195   9.106   2.644  1.00143.95    -0.271 OA
HETATM   15  N20 MIQ B 502     -21.722   9.469   0.455  1.00140.02    -0.296 N 
HETATM   16  H13 MIQ B 502     -21.209   8.615   0.353  1.00142.77     0.171 HD
HETATM   17  C21 MIQ B 502     -21.872  10.382  -0.649  1.00142.22     0.224 C 
HETATM   18  C22 MIQ B 502     -21.897  11.860  -0.311  1.00139.52     0.106 C 
HETATM   19  O24 MIQ B 502     -21.976   9.995  -1.761  1.00146.13    -0.273 OA
HETATM   20  C23 MIQ B 502     -23.028  12.057   0.681  1.00139.15     0.045 C 
ENDBRANCH  10  12
BRANCH   5  21
HETATM   21  N6  MIQ B 502     -19.012  14.410   7.362  1.00140.95    -0.377 N 
HETATM   22  C7  MIQ B 502     -18.079  15.301   6.692  1.00142.12     0.149 C 
HETATM   23  C8  MIQ B 502     -16.682  15.218   7.293  1.00144.10     0.187 C 
HETATM   24  O9  MIQ B 502     -16.685  15.295   8.687  1.00148.65    -0.388 OA
HETATM   25  C10 MIQ B 502     -17.885  15.218   9.398  1.00147.44     0.187 C 
HETATM   26  C11 MIQ B 502     -19.026  14.392   8.814  1.00144.08     0.149 C 
ENDBRANCH   5  21
TORSDOF 2
ENDMDL
MODEL 3
REMARK VINA RESULT:      -6.2     10.335     13.318
REMARK  2 active torsions:
REMARK  status: ('A' for Active; 'I' for Inactive)
REMARK    1  A    between atoms: C5_5  and  N6_21 
REMARK    2  A    between atoms: C18_14  and  N17_19 
ROOT
HETATM    1  O1  MIQ B 502     -25.409   4.117   8.374  1.00142.91    -0.171 OA
HETATM    2  C2  MIQ B 502     -26.066   3.547   7.281  1.00141.17     0.195 A 
HETATM    3  C3  MIQ B 502     -25.939   2.066   6.799  1.00141.71     0.035 A 
HETATM    4  C4  MIQ B 502     -25.168   0.898   7.287  1.00142.86     0.046 A 
HETATM    5  C5  MIQ B 502     -25.262  -0.351   6.623  1.00139.53     0.031 A 
HETATM    6  C12 MIQ B 502     -26.122  -0.486   5.456  1.00139.38     0.030 A 
HETATM    7  C13 MIQ B 502     -26.862   0.633   4.989  1.00141.18     0.019 A 
HETATM    8  C14 MIQ B 502     -26.761   1.942   5.691  1.00138.77     0.033 A 
HETATM    9  C15 MIQ B 502     -27.403   3.353   5.484  1.00142.10     0.195 A 
HETATM   10  N17 MIQ B 502     -26.916   4.120   6.446  1.00139.42    -0.288 N 
HETATM   11  O16 MIQ B 502     -28.303   3.723   4.484  1.00148.93    -0.171 OA
ENDROOT
BRANCH  10  12
HETATM   12  C18 MIQ B 502     -27.284   5.519   6.559  1.00139.82     0.187 C 
HETATM   13  C19 MIQ B 502     -25.990   6.340   6.608  1.00140.06     0.247 C 
HETATM   14  O25 MIQ B 502     -25.166   6.167   5.782  1.00143.95    -0.271 OA
HETATM   15  N20 MIQ B 502     -25.753   7.330   7.639  1.00140.02    -0.296 N 
HETATM   16  H13 MIQ B 502     -24.901   7.855   7.663  1.00142.77     0.171 HD
HETATM   17  C21 MIQ B 502     -26.769   7.516   8.642  1.00142.22     0.224 C 
HETATM   18  C22 MIQ B 502     -27.560   6.287   9.047  1.00139.52     0.106 C 
HETATM   19  O24 MIQ B 502     -26.978   8.576   9.121  1.00146.13    -0.273 OA
HETATM   20  C23 MIQ B 502     -28.181   5.736   7.776  1.00139.15     0.045 C 
ENDBRANCH  10  12
BRANCH   5  21
HETATM   21  N6  MIQ B 502     -24.490  -1.482   7.103  1.00140.95    -0.377 N 
HETATM   22  C7  MIQ B 502     -24.122  -1.526   8.508  1.00142.12     0.149 C 
HETATM   23  C8  MIQ B 502     -22.852  -2.336   8.738  1.00144.10     0.187 C 
HETATM   24  O9  MIQ B 502     -22.869  -3.570   8.086  1.00148.65    -0.388 OA
HETATM   25  C10 MIQ B 502     -23.867  -3.865   7.154  1.00147.44     0.187 C 
HETATM   26  C11 MIQ B 502     -24.470  -2.721   6.345  1.00144.08     0.149 C 
ENDBRANCH   5  21
TORSDOF 2
ENDMDL
MODEL 4
REMARK VINA RESULT:      -6.1     12.721     15.670
REMARK  2 active torsions:
REMARK  status: ('A' for Active; 'I' for Inactive)
REMARK    1  A    between atoms: C5_5  and  N6_21 
REMARK    2  A    between atoms: C18_14  and  N17_19 
ROOT
HETATM    1  O1  MIQ B 502     -24.725   0.114   9.520  1.00142.91    -0.171 OA
HETATM    2  C2  MIQ B 502     -24.993  -0.042   8.158  1.00141.17     0.195 A 
HETATM    3  C3  MIQ B 502     -24.710  -1.317   7.303  1.00141.71     0.035 A 
HETATM    4  C4  MIQ B 502     -24.130  -2.645   7.615  1.00142.86     0.046 A 
HETATM    5  C5  MIQ B 502     -23.998  -3.626   6.599  1.00139.53     0.031 A 
HETATM    6  C12 MIQ B 502     -24.437  -3.326   5.244  1.00139.38     0.030 A 
HETATM    7  C13 MIQ B 502     -24.995  -2.054   4.945  1.00141.18     0.019 A 
HETATM    8  C14 MIQ B 502     -25.132  -1.029   6.015  1.00138.77     0.033 A 
HETATM    9  C15 MIQ B 502     -25.681   0.434   6.072  1.00142.10     0.195 A 
HETATM   10  N17 MIQ B 502     -25.533   0.831   7.325  1.00139.42    -0.288 N 
HETATM   11  O16 MIQ B 502     -26.215   1.168   5.012  1.00148.93    -0.171 OA
ENDROOT
BRANCH  10  12
HETATM   12  C18 MIQ B 502     -25.926   2.162   7.749  1.00139.82     0.187 C 
HETATM   13  C19 MIQ B 502     -27.343   2.422   7.223  1.00140.06     0.247 C 
HETATM   14  O25 MIQ B 502     -28.189   1.626   7.430  1.00143.95    -0.271 OA
HETATM   15  N20 MIQ B 502     -27.674   3.621   6.482  1.00140.02    -0.296 N 
HETATM   16  H13 MIQ B 502     -28.602   3.776   6.138  1.00142.77     0.171 HD
HETATM   17  C21 MIQ B 502     -26.622   4.573   6.233  1.00142.22     0.224 C 
HETATM   18  C22 MIQ B 502     -25.229   4.010   6.030  1.00139.52     0.106 C 
HETATM   19  O24 MIQ B 502     -26.836   5.735   6.195  1.00146.13    -0.273 OA
HETATM   20  C23 MIQ B 502     -24.908   3.195   7.269  1.00139.15     0.045 C 
ENDBRANCH  10  12
BRANCH   5  21
HETATM   21  N6  MIQ B 502     -23.415  -4.917   6.915  1.00140.95    -0.377 N 
HETATM   22  C7  MIQ B 502     -22.839  -5.115   8.235  1.00142.12     0.149 C 
HETATM   23  C8  MIQ B 502     -21.749  -6.178   8.226  1.00144.10     0.187 C 
HETATM   24  O9  MIQ B 502     -22.133  -7.345   7.561  1.00148.65    -0.388 OA
HETATM   25  C10 MIQ B 502     -23.309  -7.376   6.808  1.00147.44     0.187 C 
HETATM   26  C11 MIQ B 502     -23.781  -6.089   6.139  1.00144.08     0.149 C 
ENDBRANCH   5  21
TORSDOF 2
ENDMDL
MODEL 5
REMARK VINA RESULT:      -6.0     15.141     17.602
REMARK  2 active torsions:
REMARK  status: ('A' for Active; 'I' for Inactive)
REMARK    1  A    between atoms: C5_5  and  N6_21 
REMARK    2  A    between atoms: C18_14  and  N17_19 
ROOT
HETATM    1  O1  MIQ B 502     -25.929  -5.472   4.719  1.00142.91    -0.171 OA
HETATM    2  C2  MIQ B 502     -25.037  -5.126   5.736  1.00141.17     0.195 A 
HETATM    3  C3  MIQ B 502     -24.832  -3.698   6.336  1.00141.71     0.035 A 
HETATM    4  C4  MIQ B 502     -25.448  -2.379   6.061  1.00142.86     0.046 A 
HETATM    5  C5  MIQ B 502     -25.044  -1.233   6.791  1.00139.53     0.031 A 
HETATM    6  C12 MIQ B 502     -24.019  -1.354   7.818  1.00139.38     0.030 A 
HETATM    7  C13 MIQ B 502     -23.428  -2.620   8.083  1.00141.18     0.019 A 
HETATM    8  C14 MIQ B 502     -23.858  -3.820   7.314  1.00138.77     0.033 A 
HETATM    9  C15 MIQ B 502     -23.458  -5.331   7.322  1.00142.10     0.195 A 
HETATM   10  N17 MIQ B 502     -24.203  -5.911   6.395  1.00139.42    -0.288 N 
HETATM   11  O16 MIQ B 502     -22.504  -5.939   8.141  1.00148.93    -0.171 OA
ENDROOT
BRANCH  10  12
HETATM   12  C18 MIQ B 502     -24.088  -7.329   6.109  1.00139.82     0.187 C 
HETATM   13  C19 MIQ B 502     -23.887  -7.486   4.597  1.00140.06     0.247 C 
HETATM   14  O25 MIQ B 502     -23.045  -6.859   4.059  1.00143.95    -0.271 OA
HETATM   15  N20 MIQ B 502     -24.700  -8.389   3.808  1.00140.02    -0.296 N 
HETATM   16  H13 MIQ B 502     -24.564  -8.478   2.821  1.00142.77     0.171 HD
HETATM   17  C21 MIQ B 502     -25.729  -9.136   4.486  1.00142.22     0.224 C 
HETATM   18  C22 MIQ B 502     -26.409  -8.452   5.656  1.00139.52     0.106 C 
HETATM   19  O24 MIQ B 502     -26.022 -10.230   4.148  1.00146.13    -0.273 OA
HETATM   20  C23 MIQ B 502     -25.311  -8.078   6.634  1.00139.15     0.045 C 
ENDBRANCH  10  12
BRANCH   5  21
HETATM   21  N6  MIQ B 502     -25.645   0.056   6.501  1.00140.95    -0.377 N 
HETATM   22  C7  MIQ B 502     -25.112   1.236   7.160  1.00142.12     0.149 C 
HETATM   23  C8  MIQ B 502     -26.159   2.334   7.294  1.00144.10     0.187 C 
HETATM   24  O9  MIQ B 502     -26.848   2.576   6.104  1.00148.65    -0.388 OA
HETATM   25  C10 MIQ B 502     -26.708   1.710   5.016  1.00147.44     0.187 C 
HETATM   26  C11 MIQ B 502     -26.427   0.236   5.290  1.00144.08     0.149 C 
ENDBRANCH   5  21
TORSDOF 2
ENDMDL
MODEL 6
REMARK VINA RESULT:      -5.9      3.345      4.883
REMARK  2 active torsions:
REMARK  status: ('A' for Active; 'I' for Inactive)
REMARK    1  A    between atoms: C5_5  and  N6_21 
REMARK    2  A    between atoms: C18_14  and  N17_19 
ROOT
HETATM    1  O1  MIQ B 502     -26.099  12.157   1.574  1.00142.91    -0.171 OA
HETATM    2  C2  MIQ B 502     -24.929  11.689   0.973  1.00141.17     0.195 A 
HETATM    3  C3  MIQ B 502     -23.486  11.786   1.564  1.00141.71     0.035 A 
HETATM    4  C4  MIQ B 502     -22.936  12.343   2.822  1.00142.86     0.046 A 
HETATM    5  C5  MIQ B 502     -21.544  12.281   3.086  1.00139.53     0.031 A 
HETATM    6  C12 MIQ B 502     -20.652  11.666   2.113  1.00139.38     0.030 A 
HETATM    7  C13 MIQ B 502     -21.179  11.131   0.907  1.00141.18     0.019 A 
HETATM    8  C14 MIQ B 502     -22.641  11.197   0.637  1.00138.77     0.033 A 
HETATM    9  C15 MIQ B 502     -23.565  10.730  -0.535  1.00142.10     0.195 A 
HETATM   10  N17 MIQ B 502     -24.795  11.075  -0.190  1.00139.42    -0.288 N 
HETATM   11  O16 MIQ B 502     -23.167  10.084  -1.706  1.00148.93    -0.171 OA
ENDROOT
BRANCH  10  12
HETATM   12  C18 MIQ B 502     -25.927  10.810  -1.058  1.00139.82     0.187 C 
HETATM   13  C19 MIQ B 502     -26.656  12.138  -1.295  1.00140.06     0.247 C 
HETATM   14  O25 MIQ B 502     -26.040  13.078  -1.651  1.00143.95    -0.271 OA
HETATM   15  N20 MIQ B 502     -28.086  12.270  -1.099  1.00140.02    -0.296 N 
HETATM   16  H13 MIQ B 502     -28.549  13.144  -1.250  1.00142.77     0.171 HD
HETATM   17  C21 MIQ B 502     -28.815  11.110  -0.654  1.00142.22     0.224 C 
HETATM   18  C22 MIQ B 502     -28.084  10.161   0.277  1.00139.52     0.106 C 
HETATM   19  O24 MIQ B 502     -29.926  10.908  -1.002  1.00146.13    -0.273 OA
HETATM   20  C23 MIQ B 502     -26.822   9.732  -0.449  1.00139.15     0.045 C 
ENDBRANCH  10  12
BRANCH   5  21
HETATM   21  N6  MIQ B 502     -21.017  12.843   4.315  1.00140.95    -0.377 N 
HETATM   22  C7  MIQ B 502     -21.895  12.934   5.470  1.00142.12     0.149 C 
HETATM   23  C8  MIQ B 502     -21.483  14.059   6.410  1.00144.10     0.187 C 
HETATM   24  O9  MIQ B 502     -20.117  14.055   6.698  1.00148.65    -0.388 OA
HETATM   25  C10 MIQ B 502     -19.246  13.230   5.983  1.00147.44     0.187 C 
HETATM   26  C11 MIQ B 502     -19.582  12.896   4.533  1.00144.08     0.149 C 
ENDBRANCH   5  21
TORSDOF 2
ENDMDL
MODEL 7
REMARK VINA RESULT:      -5.9     13.049     16.101
REMARK  2 active torsions:
REMARK  status: ('A' for Active; 'I' for Inactive)
REMARK    1  A    between atoms: C5_5  and  N6_21 
REMARK    2  A    between atoms: C18_14  and  N17_19 
ROOT
HETATM    1  O1  MIQ B 502     -25.985   0.181   5.685  1.00142.91    -0.171 OA
HETATM    2  C2  MIQ B 502     -25.346  -0.172   6.875  1.00141.17     0.195 A 
HETATM    3  C3  MIQ B 502     -24.679  -1.549   7.191  1.00141.71     0.035 A 
HETATM    4  C4  MIQ B 502     -24.516  -2.803   6.417  1.00142.86     0.046 A 
HETATM    5  C5  MIQ B 502     -23.844  -3.913   6.987  1.00139.53     0.031 A 
HETATM    6  C12 MIQ B 502     -23.312  -3.821   8.339  1.00139.38     0.030 A 
HETATM    7  C13 MIQ B 502     -23.467  -2.618   9.080  1.00141.18     0.019 A 
HETATM    8  C14 MIQ B 502     -24.172  -1.454   8.476  1.00138.77     0.033 A 
HETATM    9  C15 MIQ B 502     -24.525  -0.011   8.961  1.00142.10     0.195 A 
HETATM   10  N17 MIQ B 502     -25.169   0.564   7.959  1.00139.42    -0.288 N 
HETATM   11  O16 MIQ B 502     -24.221   0.551  10.203  1.00148.93    -0.171 OA
ENDROOT
BRANCH  10  12
HETATM   12  C18 MIQ B 502     -25.669   1.923   8.060  1.00139.82     0.187 C 
HETATM   13  C19 MIQ B 502     -27.150   1.907   7.661  1.00140.06     0.247 C 
HETATM   14  O25 MIQ B 502     -27.876   1.131   8.174  1.00143.95    -0.271 OA
HETATM   15  N20 MIQ B 502     -27.685   2.823   6.675  1.00140.02    -0.296 N 
HETATM   16  H13 MIQ B 502     -28.652   2.798   6.419  1.00142.77     0.171 HD
HETATM   17  C21 MIQ B 502     -26.777   3.754   6.056  1.00142.22     0.224 C 
HETATM   18  C22 MIQ B 502     -25.354   3.276   5.840  1.00139.52     0.106 C 
HETATM   19  O24 MIQ B 502     -27.125   4.837   5.738  1.00146.13    -0.273 OA
HETATM   20  C23 MIQ B 502     -24.826   2.865   7.202  1.00139.15     0.045 C 
ENDBRANCH  10  12
BRANCH   5  21
HETATM   21  N6  MIQ B 502     -23.704  -5.140   6.224  1.00140.95    -0.377 N 
HETATM   22  C7  MIQ B 502     -23.602  -6.398   6.943  1.00142.12     0.149 C 
HETATM   23  C8  MIQ B 502     -22.844  -7.451   6.144  1.00144.10     0.187 C 
HETATM   24  O9  MIQ B 502     -23.285  -7.552   4.824  1.00148.65    -0.388 OA
HETATM   25  C10 MIQ B 502     -24.162  -6.602   4.295  1.00147.44     0.187 C 
HETATM   26  C11 MIQ B 502     -24.097  -5.174   4.826  1.00144.08     0.149 C 
ENDBRANCH   5  21
TORSDOF 2
ENDMDL
MODEL 8
REMARK VINA RESULT:      -5.9     12.268     15.477
REMARK  2 active torsions:
REMARK  status: ('A' for Active; 'I' for Inactive)
REMARK    1  A    between atoms: C5_5  and  N6_21 
REMARK    2  A    between atoms: C18_14  and  N17_19 
ROOT
HETATM    1  O1  MIQ B 502     -26.812   0.406   4.479  1.00142.91    -0.171 OA
HETATM    2  C2  MIQ B 502     -26.113   0.391   5.688  1.00141.17     0.195 A 
HETATM    3  C3  MIQ B 502     -25.308  -0.812   6.273  1.00141.71     0.035 A 
HETATM    4  C4  MIQ B 502     -25.042  -2.189   5.793  1.00142.86     0.046 A 
HETATM    5  C5  MIQ B 502     -24.251  -3.077   6.566  1.00139.53     0.031 A 
HETATM    6  C12 MIQ B 502     -23.698  -2.632   7.837  1.00139.38     0.030 A 
HETATM    7  C13 MIQ B 502     -23.953  -1.312   8.297  1.00141.18     0.019 A 
HETATM    8  C14 MIQ B 502     -24.781  -0.383   7.480  1.00138.77     0.033 A 
HETATM    9  C15 MIQ B 502     -25.262   1.095   7.645  1.00142.10     0.195 A 
HETATM   10  N17 MIQ B 502     -25.983   1.367   6.570  1.00139.42    -0.288 N 
HETATM   11  O16 MIQ B 502     -24.985   1.949   8.714  1.00148.93    -0.171 OA
ENDROOT
BRANCH  10  12
HETATM   12  C18 MIQ B 502     -26.610   2.663   6.387  1.00139.82     0.187 C 
HETATM   13  C19 MIQ B 502     -25.527   3.735   6.555  1.00140.06     0.247 C 
HETATM   14  O25 MIQ B 502     -24.524   3.642   5.942  1.00143.95    -0.271 OA
HETATM   15  N20 MIQ B 502     -25.703   4.866   7.443  1.00140.02    -0.296 N 
HETATM   16  H13 MIQ B 502     -24.986   5.556   7.549  1.00142.77     0.171 HD
HETATM   17  C21 MIQ B 502     -26.932   4.953   8.189  1.00142.22     0.224 C 
HETATM   18  C22 MIQ B 502     -27.561   3.642   8.622  1.00139.52     0.106 C 
HETATM   19  O24 MIQ B 502     -27.428   5.995   8.444  1.00146.13    -0.273 OA
HETATM   20  C23 MIQ B 502     -27.778   2.830   7.358  1.00139.15     0.045 C 
ENDBRANCH  10  12
BRANCH   5  21
HETATM   21  N6  MIQ B 502     -24.011  -4.428   6.091  1.00140.95    -0.377 N 
HETATM   22  C7  MIQ B 502     -23.985  -5.510   7.060  1.00142.12     0.149 C 
HETATM   23  C8  MIQ B 502     -23.128  -6.677   6.586  1.00144.10     0.187 C 
HETATM   24  O9  MIQ B 502     -23.407  -7.058   5.272  1.00148.65    -0.388 OA
HETATM   25  C10 MIQ B 502     -24.223  -6.264   4.463  1.00147.44     0.187 C 
HETATM   26  C11 MIQ B 502     -24.234  -4.756   4.694  1.00144.08     0.149 C 
ENDBRANCH   5  21
TORSDOF 2
ENDMDL
MODEL 9
REMARK VINA RESULT:      -5.8      2.517      3.538
REMARK  2 active torsions:
REMARK  status: ('A' for Active; 'I' for Inactive)
REMARK    1  A    between atoms: C5_5  and  N6_21 
REMARK    2  A    between atoms: C18_14  and  N17_19 
ROOT
HETATM    1  O1  MIQ B 502     -24.795  12.810   0.994  1.00142.91    -0.171 OA
HETATM    2  C2  MIQ B 502     -23.521  12.243   1.061  1.00141.17     0.195 A 
HETATM    3  C3  MIQ B 502     -22.431  12.548   2.138  1.00141.71     0.035 A 
HETATM    4  C4  MIQ B 502     -22.390  13.439   3.322  1.00142.86     0.046 A 
HETATM    5  C5  MIQ B 502     -21.228  13.501   4.132  1.00139.53     0.031 A 
HETATM    6  C12 MIQ B 502     -20.070  12.683   3.799  1.00139.38     0.030 A 
HETATM    7  C13 MIQ B 502     -20.110  11.828   2.665  1.00141.18     0.019 A 
HETATM    8  C14 MIQ B 502     -21.334  11.765   1.819  1.00138.77     0.033 A 
HETATM    9  C15 MIQ B 502     -21.744  10.970   0.537  1.00142.10     0.195 A 
HETATM   10  N17 MIQ B 502     -22.980  11.348   0.253  1.00139.42    -0.288 N 
HETATM   11  O16 MIQ B 502     -20.961  10.051  -0.163  1.00148.93    -0.171 OA
ENDROOT
BRANCH  10  12
HETATM   12  C18 MIQ B 502     -23.687  10.819  -0.898  1.00139.82     0.187 C 
HETATM   13  C19 MIQ B 502     -24.111  12.006  -1.772  1.00140.06     0.247 C 
HETATM   14  O25 MIQ B 502     -23.306  12.810  -2.082  1.00143.95    -0.271 OA
HETATM   15  N20 MIQ B 502     -25.475  12.165  -2.234  1.00140.02    -0.296 N 
HETATM   16  H13 MIQ B 502     -25.740  12.948  -2.799  1.00142.77     0.171 HD
HETATM   17  C21 MIQ B 502     -26.442  11.176  -1.835  1.00142.22     0.224 C 
HETATM   18  C22 MIQ B 502     -26.256  10.556  -0.463  1.00139.52     0.106 C 
HETATM   19  O24 MIQ B 502     -27.334  10.862  -2.544  1.00146.13    -0.273 OA
HETATM   20  C23 MIQ B 502     -24.863   9.954  -0.448  1.00139.15     0.045 C 
ENDBRANCH  10  12
BRANCH   5  21
HETATM   21  N6  MIQ B 502     -21.196  14.390   5.279  1.00140.95    -0.377 N 
HETATM   22  C7  MIQ B 502     -22.430  15.034   5.694  1.00142.12     0.149 C 
HETATM   23  C8  MIQ B 502     -22.170  16.349   6.417  1.00144.10     0.187 C 
HETATM   24  O9  MIQ B 502     -21.192  16.241   7.407  1.00148.65    -0.388 OA
HETATM   25  C10 MIQ B 502     -20.412  15.086   7.508  1.00147.44     0.187 C 
HETATM   26  C11 MIQ B 502     -20.109  14.297   6.238  1.00144.08     0.149 C 
ENDBRANCH   5  21
TORSDOF 2
ENDMDL
