MODEL 1
REMARK VINA RESULT:      -7.2      0.000      0.000
REMARK  2 active torsions:
REMARK  status: ('A' for Active; 'I' for Inactive)
REMARK    1  A    between atoms: C5_5  and  N6_21 
REMARK    2  A    between atoms: C18_14  and  N17_19 
ROOT
HETATM    1  O1  MIQ B 502      17.530  11.006   4.493  1.00142.91    -0.171 OA
HETATM    2  C2  MIQ B 502      16.749   9.960   3.995  1.00141.17     0.195 A 
HETATM    3  C3  MIQ B 502      17.183   8.465   3.868  1.00141.71     0.035 A 
HETATM    4  C4  MIQ B 502      18.429   7.734   4.202  1.00142.86     0.046 A 
HETATM    5  C5  MIQ B 502      18.525   6.339   3.968  1.00139.53     0.031 A 
HETATM    6  C12 MIQ B 502      17.393   5.622   3.398  1.00139.38     0.030 A 
HETATM    7  C13 MIQ B 502      16.199   6.322   3.079  1.00141.18     0.019 A 
HETATM    8  C14 MIQ B 502      16.102   7.787   3.329  1.00138.77     0.033 A 
HETATM    9  C15 MIQ B 502      14.991   8.867   3.120  1.00142.10     0.195 A 
HETATM   10  N17 MIQ B 502      15.509  10.009   3.540  1.00139.42    -0.288 N 
HETATM   11  O16 MIQ B 502      13.715   8.661   2.594  1.00148.93    -0.171 OA
ENDROOT
BRANCH  10  12
HETATM   12  C18 MIQ B 502      14.757  11.249   3.480  1.00139.82     0.187 C 
HETATM   13  C19 MIQ B 502      13.399  11.004   4.149  1.00140.06     0.247 C 
HETATM   14  O25 MIQ B 502      13.365  10.520   5.224  1.00143.95    -0.271 OA
HETATM   15  N20 MIQ B 502      12.153  11.357   3.499  1.00140.02    -0.296 N 
HETATM   16  H13 MIQ B 502      11.272  11.186   3.944  1.00142.77     0.171 HD
HETATM   17  C21 MIQ B 502      12.219  11.937   2.183  1.00142.22     0.224 C 
HETATM   18  C22 MIQ B 502      13.345  11.462   1.285  1.00139.52     0.106 C 
HETATM   19  O24 MIQ B 502      11.437  12.748   1.825  1.00146.13    -0.273 OA
HETATM   20  C23 MIQ B 502      14.637  11.729   2.035  1.00139.15     0.045 C 
ENDBRANCH  10  12
BRANCH   5  21
HETATM   21  N6  MIQ B 502      19.756   5.638   4.285  1.00140.95    -0.377 N 
HETATM   22  C7  MIQ B 502      19.839   4.216   3.999  1.00142.12     0.149 C 
HETATM   23  C8  MIQ B 502      20.831   3.509   4.914  1.00144.10     0.187 C 
HETATM   24  O9  MIQ B 502      22.056   4.172   5.003  1.00148.65    -0.388 OA
HETATM   25  C10 MIQ B 502      22.205   5.458   4.476  1.00147.44     0.187 C 
HETATM   26  C11 MIQ B 502      20.992   6.382   4.453  1.00144.08     0.149 C 
ENDBRANCH   5  21
TORSDOF 2
ENDMDL
MODEL 2
REMARK VINA RESULT:      -7.2      1.238      2.465
REMARK  2 active torsions:
REMARK  status: ('A' for Active; 'I' for Inactive)
REMARK    1  A    between atoms: C5_5  and  N6_21 
REMARK    2  A    between atoms: C18_14  and  N17_19 
ROOT
HETATM    1  O1  MIQ B 502      14.527   8.828   2.666  1.00142.91    -0.171 OA
HETATM    2  C2  MIQ B 502      15.610   9.209   3.461  1.00141.17     0.195 A 
HETATM    3  C3  MIQ B 502      16.865   8.340   3.789  1.00141.71     0.035 A 
HETATM    4  C4  MIQ B 502      17.285   6.971   3.405  1.00142.86     0.046 A 
HETATM    5  C5  MIQ B 502      18.515   6.442   3.871  1.00139.53     0.031 A 
HETATM    6  C12 MIQ B 502      19.369   7.248   4.731  1.00139.38     0.030 A 
HETATM    7  C13 MIQ B 502      18.968   8.561   5.098  1.00141.18     0.019 A 
HETATM    8  C14 MIQ B 502      17.677   9.112   4.604  1.00138.77     0.033 A 
HETATM    9  C15 MIQ B 502      16.921  10.469   4.783  1.00142.10     0.195 A 
HETATM   10  N17 MIQ B 502      15.801  10.358   4.087  1.00139.42    -0.288 N 
HETATM   11  O16 MIQ B 502      17.345  11.570   5.529  1.00148.93    -0.171 OA
ENDROOT
BRANCH  10  12
HETATM   12  C18 MIQ B 502      14.831  11.436   4.036  1.00139.82     0.187 C 
HETATM   13  C19 MIQ B 502      13.457  10.845   4.375  1.00140.06     0.247 C 
HETATM   14  O25 MIQ B 502      13.337  10.190   5.349  1.00143.95    -0.271 OA
HETATM   15  N20 MIQ B 502      12.299  11.074   3.536  1.00140.02    -0.296 N 
HETATM   16  H13 MIQ B 502      11.409  10.677   3.765  1.00142.77     0.171 HD
HETATM   17  C21 MIQ B 502      12.473  11.868   2.347  1.00142.22     0.224 C 
HETATM   18  C22 MIQ B 502      13.813  11.757   1.644  1.00139.52     0.106 C 
HETATM   19  O24 MIQ B 502      11.616  12.574   1.944  1.00146.13    -0.273 OA
HETATM   20  C23 MIQ B 502      14.870  12.122   2.671  1.00139.15     0.045 C 
ENDBRANCH  10  12
BRANCH   5  21
HETATM   21  N6  MIQ B 502      18.907   5.094   3.500  1.00140.95    -0.377 N 
HETATM   22  C7  MIQ B 502      19.966   4.446   4.254  1.00142.12     0.149 C 
HETATM   23  C8  MIQ B 502      20.696   3.397   3.424  1.00144.10     0.187 C 
HETATM   24  O9  MIQ B 502      19.827   2.535   2.752  1.00148.65    -0.388 OA
HETATM   25  C10 MIQ B 502      18.458   2.808   2.702  1.00147.44     0.187 C 
HETATM   26  C11 MIQ B 502      18.002   4.263   2.725  1.00144.08     0.149 C 
ENDBRANCH   5  21
TORSDOF 2
ENDMDL
MODEL 3
REMARK VINA RESULT:      -7.0      1.192      2.338
REMARK  2 active torsions:
REMARK  status: ('A' for Active; 'I' for Inactive)
REMARK    1  A    between atoms: C5_5  and  N6_21 
REMARK    2  A    between atoms: C18_14  and  N17_19 
ROOT
HETATM    1  O1  MIQ B 502      14.974   8.996   3.097  1.00142.91    -0.171 OA
HETATM    2  C2  MIQ B 502      16.029   9.627   3.760  1.00141.17     0.195 A 
HETATM    3  C3  MIQ B 502      17.400   8.981   4.137  1.00141.71     0.035 A 
HETATM    4  C4  MIQ B 502      17.979   7.631   3.937  1.00142.86     0.046 A 
HETATM    5  C5  MIQ B 502      19.286   7.336   4.402  1.00139.53     0.031 A 
HETATM    6  C12 MIQ B 502      20.062   8.366   5.078  1.00139.38     0.030 A 
HETATM    7  C13 MIQ B 502      19.508   9.660   5.268  1.00141.18     0.019 A 
HETATM    8  C14 MIQ B 502      18.136   9.965   4.777  1.00138.77     0.033 A 
HETATM    9  C15 MIQ B 502      17.217  11.230   4.796  1.00142.10     0.195 A 
HETATM   10  N17 MIQ B 502      16.094  10.875   4.194  1.00139.42    -0.288 N 
HETATM   11  O16 MIQ B 502      17.524  12.477   5.343  1.00148.93    -0.171 OA
ENDROOT
BRANCH  10  12
HETATM   12  C18 MIQ B 502      14.990  11.804   4.041  1.00139.82     0.187 C 
HETATM   13  C19 MIQ B 502      13.720  11.109   4.548  1.00140.06     0.247 C 
HETATM   14  O25 MIQ B 502      13.727  10.604   5.614  1.00143.95    -0.271 OA
HETATM   15  N20 MIQ B 502      12.509  11.059   3.756  1.00140.02    -0.296 N 
HETATM   16  H13 MIQ B 502      11.688  10.597   4.096  1.00142.77     0.171 HD
HETATM   17  C21 MIQ B 502      12.529  11.673   2.453  1.00142.22     0.224 C 
HETATM   18  C22 MIQ B 502      13.841  11.620   1.695  1.00139.52     0.106 C 
HETATM   19  O24 MIQ B 502      11.570  12.197   2.002  1.00146.13    -0.273 OA
HETATM   20  C23 MIQ B 502      14.883  12.268   2.589  1.00139.15     0.045 C 
ENDBRANCH  10  12
BRANCH   5  21
HETATM   21  N6  MIQ B 502      19.835   6.006   4.213  1.00140.95    -0.377 N 
HETATM   22  C7  MIQ B 502      19.130   5.081   3.343  1.00142.12     0.149 C 
HETATM   23  C8  MIQ B 502      19.398   3.629   3.720  1.00144.10     0.187 C 
HETATM   24  O9  MIQ B 502      20.755   3.358   3.906  1.00148.65    -0.388 OA
HETATM   25  C10 MIQ B 502      21.685   4.400   3.957  1.00147.44     0.187 C 
HETATM   26  C11 MIQ B 502      21.236   5.752   4.501  1.00144.08     0.149 C 
ENDBRANCH   5  21
TORSDOF 2
ENDMDL
MODEL 4
REMARK VINA RESULT:      -6.8     10.764     14.305
REMARK  2 active torsions:
REMARK  status: ('A' for Active; 'I' for Inactive)
REMARK    1  A    between atoms: C5_5  and  N6_21 
REMARK    2  A    between atoms: C18_14  and  N17_19 
ROOT
HETATM    1  O1  MIQ B 502      17.894  19.669  -0.603  1.00142.91    -0.171 OA
HETATM    2  C2  MIQ B 502      17.100  19.638   0.546  1.00141.17     0.195 A 
HETATM    3  C3  MIQ B 502      15.569  19.940   0.618  1.00141.71     0.035 A 
HETATM    4  C4  MIQ B 502      14.556  20.315  -0.397  1.00142.86     0.046 A 
HETATM    5  C5  MIQ B 502      13.207  20.527  -0.018  1.00139.53     0.031 A 
HETATM    6  C12 MIQ B 502      12.815  20.374   1.376  1.00139.38     0.030 A 
HETATM    7  C13 MIQ B 502      13.786  20.013   2.349  1.00141.18     0.019 A 
HETATM    8  C14 MIQ B 502      15.201  19.790   1.945  1.00138.77     0.033 A 
HETATM    9  C15 MIQ B 502      16.510  19.393   2.701  1.00142.10     0.195 A 
HETATM   10  N17 MIQ B 502      17.463  19.350   1.784  1.00139.42    -0.288 N 
HETATM   11  O16 MIQ B 502      16.642  19.138   4.067  1.00148.93    -0.171 OA
ENDROOT
BRANCH  10  12
HETATM   12  C18 MIQ B 502      18.834  19.026   2.132  1.00139.82     0.187 C 
HETATM   13  C19 MIQ B 502      19.733  20.139   1.579  1.00140.06     0.247 C 
HETATM   14  O25 MIQ B 502      19.472  21.263   1.822  1.00143.95    -0.271 OA
HETATM   15  N20 MIQ B 502      20.899  19.848   0.771  1.00140.02    -0.296 N 
HETATM   16  H13 MIQ B 502      21.474  20.584   0.411  1.00142.77     0.171 HD
HETATM   17  C21 MIQ B 502      21.191  18.468   0.480  1.00142.22     0.224 C 
HETATM   18  C22 MIQ B 502      20.003  17.540   0.320  1.00139.52     0.106 C 
HETATM   19  O24 MIQ B 502      22.303  18.081   0.376  1.00146.13    -0.273 OA
HETATM   20  C23 MIQ B 502      19.202  17.639   1.605  1.00139.15     0.045 C 
ENDBRANCH  10  12
BRANCH   5  21
HETATM   21  N6  MIQ B 502      12.228  20.908  -1.020  1.00140.95    -0.377 N 
HETATM   22  C7  MIQ B 502      12.660  21.736  -2.133  1.00142.12     0.149 C 
HETATM   23  C8  MIQ B 502      11.516  22.565  -2.703  1.00144.10     0.187 C 
HETATM   24  O9  MIQ B 502      10.361  21.813  -2.931  1.00148.65    -0.388 OA
HETATM   25  C10 MIQ B 502      10.260  20.507  -2.446  1.00147.44     0.187 C 
HETATM   26  C11 MIQ B 502      11.000  20.146  -1.162  1.00144.08     0.149 C 
ENDBRANCH   5  21
TORSDOF 2
ENDMDL
MODEL 5
REMARK VINA RESULT:      -6.6      8.625     11.658
REMARK  2 active torsions:
REMARK  status: ('A' for Active; 'I' for Inactive)
REMARK    1  A    between atoms: C5_5  and  N6_21 
REMARK    2  A    between atoms: C18_14  and  N17_19 
ROOT
HETATM    1  O1  MIQ B 502      20.176  -1.790   0.156  1.00142.91    -0.171 OA
HETATM    2  C2  MIQ B 502      19.735  -0.649  -0.519  1.00141.17     0.195 A 
HETATM    3  C3  MIQ B 502      19.618  -0.481  -2.068  1.00141.71     0.035 A 
HETATM    4  C4  MIQ B 502      19.901  -1.377  -3.214  1.00142.86     0.046 A 
HETATM    5  C5  MIQ B 502      19.688  -0.930  -4.543  1.00139.53     0.031 A 
HETATM    6  C12 MIQ B 502      19.190   0.417  -4.781  1.00139.38     0.030 A 
HETATM    7  C13 MIQ B 502      18.918   1.276  -3.682  1.00141.18     0.019 A 
HETATM    8  C14 MIQ B 502      19.140   0.800  -2.289  1.00138.77     0.033 A 
HETATM    9  C15 MIQ B 502      18.959   1.431  -0.870  1.00142.10     0.195 A 
HETATM   10  N17 MIQ B 502      19.329   0.500  -0.006  1.00139.42    -0.288 N 
HETATM   11  O16 MIQ B 502      18.502   2.718  -0.580  1.00148.93    -0.171 OA
ENDROOT
BRANCH  10  12
HETATM   12  C18 MIQ B 502      19.307   0.742   1.424  1.00139.82     0.187 C 
HETATM   13  C19 MIQ B 502      17.911   1.262   1.789  1.00140.06     0.247 C 
HETATM   14  O25 MIQ B 502      16.961   0.663   1.429  1.00143.95    -0.271 OA
HETATM   15  N20 MIQ B 502      17.725   2.468   2.570  1.00140.02    -0.296 N 
HETATM   16  H13 MIQ B 502      16.809   2.801   2.796  1.00142.77     0.171 HD
HETATM   17  C21 MIQ B 502      18.901   3.188   2.988  1.00142.22     0.224 C 
HETATM   18  C22 MIQ B 502      20.087   3.164   2.044  1.00139.52     0.106 C 
HETATM   19  O24 MIQ B 502      18.938   3.764   4.020  1.00146.13    -0.273 OA
HETATM   20  C23 MIQ B 502      20.428   1.702   1.818  1.00139.15     0.045 C 
ENDBRANCH  10  12
BRANCH   5  21
HETATM   21  N6  MIQ B 502      19.983  -1.813  -5.656  1.00140.95    -0.377 N 
HETATM   22  C7  MIQ B 502      20.493  -1.233  -6.887  1.00142.12     0.149 C 
HETATM   23  C8  MIQ B 502      20.153  -2.087  -8.102  1.00144.10     0.187 C 
HETATM   24  O9  MIQ B 502      20.445  -3.439  -7.914  1.00148.65    -0.388 OA
HETATM   25  C10 MIQ B 502      20.785  -3.921  -6.647  1.00147.44     0.187 C 
HETATM   26  C11 MIQ B 502      20.195  -3.231  -5.422  1.00144.08     0.149 C 
ENDBRANCH   5  21
TORSDOF 2
ENDMDL
MODEL 6
REMARK VINA RESULT:      -6.6      1.647      2.928
REMARK  2 active torsions:
REMARK  status: ('A' for Active; 'I' for Inactive)
REMARK    1  A    between atoms: C5_5  and  N6_21 
REMARK    2  A    between atoms: C18_14  and  N17_19 
ROOT
HETATM    1  O1  MIQ B 502      15.507   6.736   2.432  1.00142.91    -0.171 OA
HETATM    2  C2  MIQ B 502      16.187   7.635   3.255  1.00141.17     0.195 A 
HETATM    3  C3  MIQ B 502      17.670   7.511   3.730  1.00141.71     0.035 A 
HETATM    4  C4  MIQ B 502      18.736   6.510   3.491  1.00142.86     0.046 A 
HETATM    5  C5  MIQ B 502      20.018   6.675   4.073  1.00139.53     0.031 A 
HETATM    6  C12 MIQ B 502      20.287   7.836   4.910  1.00139.38     0.030 A 
HETATM    7  C13 MIQ B 502      19.265   8.796   5.139  1.00141.18     0.019 A 
HETATM    8  C14 MIQ B 502      17.922   8.619   4.523  1.00138.77     0.033 A 
HETATM    9  C15 MIQ B 502      16.589   9.436   4.540  1.00142.10     0.195 A 
HETATM   10  N17 MIQ B 502      15.736   8.757   3.790  1.00139.42    -0.288 N 
HETATM   11  O16 MIQ B 502      16.352  10.635   5.213  1.00148.93    -0.171 OA
ENDROOT
BRANCH  10  12
HETATM   12  C18 MIQ B 502      14.374   9.215   3.589  1.00139.82     0.187 C 
HETATM   13  C19 MIQ B 502      14.436  10.671   3.110  1.00140.06     0.247 C 
HETATM   14  O25 MIQ B 502      15.133  10.948   2.199  1.00143.95    -0.271 OA
HETATM   15  N20 MIQ B 502      13.657  11.717   3.741  1.00140.02    -0.296 N 
HETATM   16  H13 MIQ B 502      13.712  12.664   3.422  1.00142.77     0.171 HD
HETATM   17  C21 MIQ B 502      12.822  11.355   4.857  1.00142.22     0.224 C 
HETATM   18  C22 MIQ B 502      13.331  10.247   5.758  1.00139.52     0.106 C 
HETATM   19  O24 MIQ B 502      11.789  11.894   5.055  1.00146.13    -0.273 OA
HETATM   20  C23 MIQ B 502      13.559   9.038   4.869  1.00139.15     0.045 C 
ENDBRANCH  10  12
BRANCH   5  21
HETATM   21  N6  MIQ B 502      21.048   5.679   3.843  1.00140.95    -0.377 N 
HETATM   22  C7  MIQ B 502      21.968   5.368   4.924  1.00142.12     0.149 C 
HETATM   23  C8  MIQ B 502      23.305   4.858   4.403  1.00144.10     0.187 C 
HETATM   24  O9  MIQ B 502      23.167   3.864   3.432  1.00148.65    -0.388 OA
HETATM   25  C10 MIQ B 502      21.915   3.586   2.877  1.00147.44     0.187 C 
HETATM   26  C11 MIQ B 502      20.900   4.719   2.764  1.00144.08     0.149 C 
ENDBRANCH   5  21
TORSDOF 2
ENDMDL
MODEL 7
REMARK VINA RESULT:      -6.5     11.381     12.795
REMARK  2 active torsions:
REMARK  status: ('A' for Active; 'I' for Inactive)
REMARK    1  A    between atoms: C5_5  and  N6_21 
REMARK    2  A    between atoms: C18_14  and  N17_19 
ROOT
HETATM    1  O1  MIQ B 502      15.082  22.066  -2.077  1.00142.91    -0.171 OA
HETATM    2  C2  MIQ B 502      14.766  21.345  -0.924  1.00141.17     0.195 A 
HETATM    3  C3  MIQ B 502      15.775  20.585  -0.005  1.00141.71     0.035 A 
HETATM    4  C4  MIQ B 502      17.245  20.398  -0.042  1.00142.86     0.046 A 
HETATM    5  C5  MIQ B 502      17.896  19.636   0.960  1.00139.53     0.031 A 
HETATM    6  C12 MIQ B 502      17.116  19.035   2.033  1.00139.38     0.030 A 
HETATM    7  C13 MIQ B 502      15.707  19.216   2.069  1.00141.18     0.019 A 
HETATM    8  C14 MIQ B 502      15.029  20.019   1.015  1.00138.77     0.033 A 
HETATM    9  C15 MIQ B 502      13.548  20.430   0.729  1.00142.10     0.195 A 
HETATM   10  N17 MIQ B 502      13.578  21.160  -0.374  1.00139.42    -0.288 N 
HETATM   11  O16 MIQ B 502      12.425  20.090   1.485  1.00148.93    -0.171 OA
ENDROOT
BRANCH  10  12
HETATM   12  C18 MIQ B 502      12.366  21.708  -0.953  1.00139.82     0.187 C 
HETATM   13  C19 MIQ B 502      11.573  22.384   0.172  1.00140.06     0.247 C 
HETATM   14  O25 MIQ B 502      12.117  23.163   0.871  1.00143.95    -0.271 OA
HETATM   15  N20 MIQ B 502      10.171  22.099   0.397  1.00140.02    -0.296 N 
HETATM   16  H13 MIQ B 502       9.667  22.542   1.140  1.00142.77     0.171 HD
HETATM   17  C21 MIQ B 502       9.532  21.137  -0.463  1.00142.22     0.224 C 
HETATM   18  C22 MIQ B 502      10.390  19.988  -0.957  1.00139.52     0.106 C 
HETATM   19  O24 MIQ B 502       8.396  21.243  -0.771  1.00146.13    -0.273 OA
HETATM   20  C23 MIQ B 502      11.577  20.612  -1.669  1.00139.15     0.045 C 
ENDBRANCH  10  12
BRANCH   5  21
HETATM   21  N6  MIQ B 502      19.334  19.448   0.903  1.00140.95    -0.377 N 
HETATM   22  C7  MIQ B 502      20.166  20.149   1.866  1.00142.12     0.149 C 
HETATM   23  C8  MIQ B 502      21.572  20.393   1.333  1.00144.10     0.187 C 
HETATM   24  O9  MIQ B 502      22.145  19.251   0.770  1.00148.65    -0.388 OA
HETATM   25  C10 MIQ B 502      21.371  18.111   0.539  1.00147.44     0.187 C 
HETATM   26  C11 MIQ B 502      19.888  18.286   0.229  1.00144.08     0.149 C 
ENDBRANCH   5  21
TORSDOF 2
ENDMDL
MODEL 8
REMARK VINA RESULT:      -6.4      2.762      3.703
REMARK  2 active torsions:
REMARK  status: ('A' for Active; 'I' for Inactive)
REMARK    1  A    between atoms: C5_5  and  N6_21 
REMARK    2  A    between atoms: C18_14  and  N17_19 
ROOT
HETATM    1  O1  MIQ B 502      16.457  11.050   5.356  1.00142.91    -0.171 OA
HETATM    2  C2  MIQ B 502      16.767   9.869   4.679  1.00141.17     0.195 A 
HETATM    3  C3  MIQ B 502      18.186   9.232   4.539  1.00141.71     0.035 A 
HETATM    4  C4  MIQ B 502      19.531   9.622   5.026  1.00142.86     0.046 A 
HETATM    5  C5  MIQ B 502      20.661   8.818   4.731  1.00139.53     0.031 A 
HETATM    6  C12 MIQ B 502      20.498   7.603   3.946  1.00139.38     0.030 A 
HETATM    7  C13 MIQ B 502      19.209   7.228   3.480  1.00141.18     0.019 A 
HETATM    8  C14 MIQ B 502      18.026   8.075   3.794  1.00138.77     0.033 A 
HETATM    9  C15 MIQ B 502      16.499   7.993   3.470  1.00142.10     0.195 A 
HETATM   10  N17 MIQ B 502      15.949   9.056   4.033  1.00139.42    -0.288 N 
HETATM   11  O16 MIQ B 502      15.853   6.998   2.734  1.00148.93    -0.171 OA
ENDROOT
BRANCH  10  12
HETATM   12  C18 MIQ B 502      14.526   9.320   3.924  1.00139.82     0.187 C 
HETATM   13  C19 MIQ B 502      14.354  10.712   3.304  1.00140.06     0.247 C 
HETATM   14  O25 MIQ B 502      14.928  10.973   2.307  1.00143.95    -0.271 OA
HETATM   15  N20 MIQ B 502      13.501  11.716   3.906  1.00140.02    -0.296 N 
HETATM   16  H13 MIQ B 502      13.403  12.624   3.494  1.00142.77     0.171 HD
HETATM   17  C21 MIQ B 502      12.819  11.377   5.128  1.00142.22     0.224 C 
HETATM   18  C22 MIQ B 502      13.546  10.443   6.077  1.00139.52     0.106 C 
HETATM   19  O24 MIQ B 502      11.745  11.804   5.375  1.00146.13    -0.273 OA
HETATM   20  C23 MIQ B 502      13.854   9.183   5.289  1.00139.15     0.045 C 
ENDBRANCH  10  12
BRANCH   5  21
HETATM   21  N6  MIQ B 502      21.974   9.220   5.203  1.00140.95    -0.377 N 
HETATM   22  C7  MIQ B 502      22.061  10.263   6.210  1.00142.12     0.149 C 
HETATM   23  C8  MIQ B 502      23.386  11.012   6.140  1.00144.10     0.187 C 
HETATM   24  O9  MIQ B 502      24.489  10.159   6.066  1.00148.65    -0.388 OA
HETATM   25  C10 MIQ B 502      24.312   8.791   5.846  1.00147.44     0.187 C 
HETATM   26  C11 MIQ B 502      23.111   8.333   5.026  1.00144.08     0.149 C 
ENDBRANCH   5  21
TORSDOF 2
ENDMDL
MODEL 9
REMARK VINA RESULT:      -6.3      9.711     12.493
REMARK  2 active torsions:
REMARK  status: ('A' for Active; 'I' for Inactive)
REMARK    1  A    between atoms: C5_5  and  N6_21 
REMARK    2  A    between atoms: C18_14  and  N17_19 
ROOT
HETATM    1  O1  MIQ B 502      17.603  -1.024  -2.577  1.00142.91    -0.171 OA
HETATM    2  C2  MIQ B 502      18.628  -0.086  -2.436  1.00141.17     0.195 A 
HETATM    3  C3  MIQ B 502      19.704   0.271  -3.511  1.00141.71     0.035 A 
HETATM    4  C4  MIQ B 502      19.968  -0.208  -4.888  1.00142.86     0.046 A 
HETATM    5  C5  MIQ B 502      21.049   0.321  -5.637  1.00139.53     0.031 A 
HETATM    6  C12 MIQ B 502      21.904   1.343  -5.049  1.00139.38     0.030 A 
HETATM    7  C13 MIQ B 502      21.651   1.804  -3.729  1.00141.18     0.019 A 
HETATM    8  C14 MIQ B 502      20.513   1.245  -2.948  1.00138.77     0.033 A 
HETATM    9  C15 MIQ B 502      19.935   1.494  -1.517  1.00142.10     0.195 A 
HETATM   10  N17 MIQ B 502      18.898   0.683  -1.395  1.00139.42    -0.288 N 
HETATM   11  O16 MIQ B 502      20.421   2.391  -0.563  1.00148.93    -0.171 OA
ENDROOT
BRANCH  10  12
HETATM   12  C18 MIQ B 502      18.116   0.630  -0.174  1.00139.82     0.187 C 
HETATM   13  C19 MIQ B 502      17.989  -0.843   0.236  1.00140.06     0.247 C 
HETATM   14  O25 MIQ B 502      18.961  -1.507   0.307  1.00143.95    -0.271 OA
HETATM   15  N20 MIQ B 502      16.706  -1.441   0.547  1.00140.02    -0.296 N 
HETATM   16  H13 MIQ B 502      16.636  -2.405   0.807  1.00142.77     0.171 HD
HETATM   17  C21 MIQ B 502      15.533  -0.612   0.444  1.00142.22     0.224 C 
HETATM   18  C22 MIQ B 502      15.544   0.454  -0.635  1.00139.52     0.106 C 
HETATM   19  O24 MIQ B 502      14.610  -0.754   1.169  1.00146.13    -0.273 OA
HETATM   20  C23 MIQ B 502      16.766   1.316  -0.376  1.00139.15     0.045 C 
ENDBRANCH  10  12
BRANCH   5  21
HETATM   21  N6  MIQ B 502      21.304  -0.168  -6.979  1.00140.95    -0.377 N 
HETATM   22  C7  MIQ B 502      22.136   0.630  -7.863  1.00142.12     0.149 C 
HETATM   23  C8  MIQ B 502      21.808   0.382  -9.330  1.00144.10     0.187 C 
HETATM   24  O9  MIQ B 502      21.731  -0.975  -9.648  1.00148.65    -0.388 OA
HETATM   25  C10 MIQ B 502      21.730  -1.940  -8.637  1.00147.44     0.187 C 
HETATM   26  C11 MIQ B 502      21.127  -1.577  -7.284  1.00144.08     0.149 C 
ENDBRANCH   5  21
TORSDOF 2
ENDMDL
