MODEL 1
REMARK VINA RESULT:      -6.0      0.000      0.000
REMARK  2 active torsions:
REMARK  status: ('A' for Active; 'I' for Inactive)
REMARK    1  A    between atoms: C5_5  and  N6_21 
REMARK    2  A    between atoms: C18_14  and  N17_19 
ROOT
HETATM    1  O1  MIQ B 502       2.030  -5.405 -22.430  1.00142.91    -0.171 OA
HETATM    2  C2  MIQ B 502       2.266  -6.587 -23.136  1.00141.17     0.195 A 
HETATM    3  C3  MIQ B 502       1.211  -7.690 -23.466  1.00141.71     0.035 A 
HETATM    4  C4  MIQ B 502      -0.235  -7.836 -23.177  1.00142.86     0.046 A 
HETATM    5  C5  MIQ B 502      -0.943  -8.982 -23.620  1.00139.53     0.031 A 
HETATM    6  C12 MIQ B 502      -0.244 -10.020 -24.365  1.00139.38     0.030 A 
HETATM    7  C13 MIQ B 502       1.142  -9.879 -24.644  1.00141.18     0.019 A 
HETATM    8  C14 MIQ B 502       1.880  -8.673 -24.177  1.00138.77     0.033 A 
HETATM    9  C15 MIQ B 502       3.358  -8.177 -24.290  1.00142.10     0.195 A 
HETATM   10  N17 MIQ B 502       3.400  -7.012 -23.666  1.00139.42    -0.288 N 
HETATM   11  O16 MIQ B 502       4.415  -8.837 -24.919  1.00148.93    -0.171 OA
ENDROOT
BRANCH  10  12
HETATM   12  C18 MIQ B 502       4.634  -6.256 -23.555  1.00139.82     0.187 C 
HETATM   13  C19 MIQ B 502       4.895  -6.001 -22.066  1.00140.06     0.247 C 
HETATM   14  O25 MIQ B 502       4.864  -6.907 -21.312  1.00143.95    -0.271 OA
HETATM   15  N20 MIQ B 502       5.183  -4.675 -21.557  1.00140.02    -0.296 N 
HETATM   16  H13 MIQ B 502       5.344  -4.521 -20.581  1.00142.77     0.171 HD
HETATM   17  C21 MIQ B 502       5.204  -3.583 -22.495  1.00142.22     0.224 C 
HETATM   18  C22 MIQ B 502       4.241  -3.670 -23.664  1.00139.52     0.106 C 
HETATM   19  O24 MIQ B 502       5.940  -2.668 -22.362  1.00146.13    -0.273 OA
HETATM   20  C23 MIQ B 502       4.548  -4.973 -24.379  1.00139.15     0.045 C 
ENDBRANCH  10  12
BRANCH   5  21
HETATM   21  N6  MIQ B 502      -2.356  -9.119 -23.317  1.00140.95    -0.377 N 
HETATM   22  C7  MIQ B 502      -2.903 -10.453 -23.144  1.00142.12     0.149 C 
HETATM   23  C8  MIQ B 502      -4.389 -10.506 -23.475  1.00144.10     0.187 C 
HETATM   24  O9  MIQ B 502      -5.117  -9.480 -22.870  1.00148.65    -0.388 OA
HETATM   25  C10 MIQ B 502      -4.458  -8.421 -22.240  1.00147.44     0.187 C 
HETATM   26  C11 MIQ B 502      -3.092  -7.994 -22.768  1.00144.08     0.149 C 
ENDBRANCH   5  21
TORSDOF 2
ENDMDL
MODEL 2
REMARK VINA RESULT:      -6.0      3.067      8.576
REMARK  2 active torsions:
REMARK  status: ('A' for Active; 'I' for Inactive)
REMARK    1  A    between atoms: C5_5  and  N6_21 
REMARK    2  A    between atoms: C18_14  and  N17_19 
ROOT
HETATM    1  O1  MIQ B 502       3.832 -10.849 -23.190  1.00142.91    -0.171 OA
HETATM    2  C2  MIQ B 502       3.544  -9.518 -22.881  1.00141.17     0.195 A 
HETATM    3  C3  MIQ B 502       4.535  -8.477 -22.269  1.00141.71     0.035 A 
HETATM    4  C4  MIQ B 502       5.958  -8.545 -21.857  1.00142.86     0.046 A 
HETATM    5  C5  MIQ B 502       6.604  -7.402 -21.320  1.00139.53     0.031 A 
HETATM    6  C12 MIQ B 502       5.864  -6.157 -21.174  1.00139.38     0.030 A 
HETATM    7  C13 MIQ B 502       4.501  -6.091 -21.569  1.00141.18     0.019 A 
HETATM    8  C14 MIQ B 502       3.829  -7.293 -22.134  1.00138.77     0.033 A 
HETATM    9  C15 MIQ B 502       2.391  -7.600 -22.667  1.00142.10     0.195 A 
HETATM   10  N17 MIQ B 502       2.404  -8.868 -23.042  1.00139.42    -0.288 N 
HETATM   11  O16 MIQ B 502       1.316  -6.712 -22.729  1.00148.93    -0.171 OA
ENDROOT
BRANCH  10  12
HETATM   12  C18 MIQ B 502       1.219  -9.511 -23.581  1.00139.82     0.187 C 
HETATM   13  C19 MIQ B 502       0.711  -8.654 -24.746  1.00140.06     0.247 C 
HETATM   14  O25 MIQ B 502       1.464  -8.334 -25.597  1.00143.95    -0.271 OA
HETATM   15  N20 MIQ B 502      -0.671  -8.229 -24.837  1.00140.02    -0.296 N 
HETATM   16  H13 MIQ B 502      -0.988  -7.664 -25.599  1.00142.77     0.171 HD
HETATM   17  C21 MIQ B 502      -1.568  -8.623 -23.781  1.00142.22     0.224 C 
HETATM   18  C22 MIQ B 502      -0.977  -8.727 -22.388  1.00139.52     0.106 C 
HETATM   19  O24 MIQ B 502      -2.706  -8.858 -23.993  1.00146.13    -0.273 OA
HETATM   20  C23 MIQ B 502       0.177  -9.710 -22.482  1.00139.15     0.045 C 
ENDBRANCH  10  12
BRANCH   5  21
HETATM   21  N6  MIQ B 502       7.993  -7.487 -20.908  1.00140.95    -0.377 N 
HETATM   22  C7  MIQ B 502       8.373  -8.515 -19.955  1.00142.12     0.149 C 
HETATM   23  C8  MIQ B 502       9.602  -8.117 -19.148  1.00144.10     0.187 C 
HETATM   24  O9  MIQ B 502      10.640  -7.628 -19.945  1.00148.65    -0.388 OA
HETATM   25  C10 MIQ B 502      10.421  -7.341 -21.295  1.00147.44     0.187 C 
HETATM   26  C11 MIQ B 502       9.031  -6.887 -21.728  1.00144.08     0.149 C 
ENDBRANCH   5  21
TORSDOF 2
ENDMDL
MODEL 3
REMARK VINA RESULT:      -5.8      2.342      2.986
REMARK  2 active torsions:
REMARK  status: ('A' for Active; 'I' for Inactive)
REMARK    1  A    between atoms: C5_5  and  N6_21 
REMARK    2  A    between atoms: C18_14  and  N17_19 
ROOT
HETATM    1  O1  MIQ B 502       3.307  -5.208 -21.319  1.00142.91    -0.171 OA
HETATM    2  C2  MIQ B 502       3.650  -6.404 -21.953  1.00141.17     0.195 A 
HETATM    3  C3  MIQ B 502       2.658  -7.422 -22.601  1.00141.71     0.035 A 
HETATM    4  C4  MIQ B 502       1.183  -7.456 -22.747  1.00142.86     0.046 A 
HETATM    5  C5  MIQ B 502       0.553  -8.543 -23.403  1.00139.53     0.031 A 
HETATM    6  C12 MIQ B 502       1.360  -9.631 -23.937  1.00139.38     0.030 A 
HETATM    7  C13 MIQ B 502       2.774  -9.598 -23.798  1.00141.18     0.019 A 
HETATM    8  C14 MIQ B 502       3.430  -8.453 -23.110  1.00138.77     0.033 A 
HETATM    9  C15 MIQ B 502       4.910  -8.073 -22.777  1.00142.10     0.195 A 
HETATM   10  N17 MIQ B 502       4.855  -6.914 -22.141  1.00139.42    -0.288 N 
HETATM   11  O16 MIQ B 502       6.053  -8.811 -23.088  1.00148.93    -0.171 OA
ENDROOT
BRANCH  10  12
HETATM   12  C18 MIQ B 502       6.055  -6.257 -21.660  1.00139.82     0.187 C 
HETATM   13  C19 MIQ B 502       7.015  -6.107 -22.847  1.00140.06     0.247 C 
HETATM   14  O25 MIQ B 502       6.620  -5.625 -23.849  1.00143.95    -0.271 OA
HETATM   15  N20 MIQ B 502       8.396  -6.536 -22.772  1.00140.02    -0.296 N 
HETATM   16  H13 MIQ B 502       9.010  -6.439 -23.556  1.00142.77     0.171 HD
HETATM   17  C21 MIQ B 502       8.851  -7.131 -21.542  1.00142.22     0.224 C 
HETATM   18  C22 MIQ B 502       7.839  -7.953 -20.767  1.00139.52     0.106 C 
HETATM   19  O24 MIQ B 502       9.958  -6.980 -21.155  1.00146.13    -0.273 OA
HETATM   20  C23 MIQ B 502       6.659  -7.038 -20.494  1.00139.15     0.045 C 
ENDBRANCH  10  12
BRANCH   5  21
HETATM   21  N6  MIQ B 502      -0.893  -8.570 -23.526  1.00140.95    -0.377 N 
HETATM   22  C7  MIQ B 502      -1.505  -9.647 -24.286  1.00142.12     0.149 C 
HETATM   23  C8  MIQ B 502      -2.851  -9.236 -24.869  1.00144.10     0.187 C 
HETATM   24  O9  MIQ B 502      -3.683  -8.618 -23.934  1.00148.65    -0.388 OA
HETATM   25  C10 MIQ B 502      -3.184  -8.236 -22.686  1.00147.44     0.187 C 
HETATM   26  C11 MIQ B 502      -1.716  -7.839 -22.578  1.00144.08     0.149 C 
ENDBRANCH   5  21
TORSDOF 2
ENDMDL
MODEL 4
REMARK VINA RESULT:      -5.8     14.785     19.662
REMARK  2 active torsions:
REMARK  status: ('A' for Active; 'I' for Inactive)
REMARK    1  A    between atoms: C5_5  and  N6_21 
REMARK    2  A    between atoms: C18_14  and  N17_19 
ROOT
HETATM    1  O1  MIQ B 502       6.040  11.609 -22.539  1.00142.91    -0.171 OA
HETATM    2  C2  MIQ B 502       7.159  11.387 -21.734  1.00141.17     0.195 A 
HETATM    3  C3  MIQ B 502       8.045  10.101 -21.720  1.00141.71     0.035 A 
HETATM    4  C4  MIQ B 502       8.002   8.826 -22.474  1.00142.86     0.046 A 
HETATM    5  C5  MIQ B 502       8.971   7.819 -22.234  1.00139.53     0.031 A 
HETATM    6  C12 MIQ B 502      10.014   8.040 -21.243  1.00139.38     0.030 A 
HETATM    7  C13 MIQ B 502      10.056   9.263 -20.520  1.00141.18     0.019 A 
HETATM    8  C14 MIQ B 502       9.037  10.318 -20.778  1.00138.77     0.033 A 
HETATM    9  C15 MIQ B 502       8.767  11.747 -20.205  1.00142.10     0.195 A 
HETATM   10  N17 MIQ B 502       7.698  12.199 -20.840  1.00139.42    -0.288 N 
HETATM   11  O16 MIQ B 502       9.504  12.406 -19.220  1.00148.93    -0.171 OA
ENDROOT
BRANCH  10  12
HETATM   12  C18 MIQ B 502       7.141  13.507 -20.550  1.00139.82     0.187 C 
HETATM   13  C19 MIQ B 502       5.642  13.328 -20.281  1.00140.06     0.247 C 
HETATM   14  O25 MIQ B 502       5.290  12.517 -19.500  1.00143.95    -0.271 OA
HETATM   15  N20 MIQ B 502       4.643  14.132 -20.955  1.00140.02    -0.296 N 
HETATM   16  H13 MIQ B 502       3.668  14.001 -20.775  1.00142.77     0.171 HD
HETATM   17  C21 MIQ B 502       5.097  15.109 -21.911  1.00142.22     0.224 C 
HETATM   18  C22 MIQ B 502       6.339  14.757 -22.707  1.00139.52     0.106 C 
HETATM   19  O24 MIQ B 502       4.531  16.135 -22.062  1.00146.13    -0.273 OA
HETATM   20  C23 MIQ B 502       7.435  14.475 -21.695  1.00139.15     0.045 C 
ENDBRANCH  10  12
BRANCH   5  21
HETATM   21  N6  MIQ B 502       8.908   6.569 -22.970  1.00140.95    -0.377 N 
HETATM   22  C7  MIQ B 502       8.255   6.558 -24.267  1.00142.12     0.149 C 
HETATM   23  C8  MIQ B 502       7.696   5.183 -24.612  1.00144.10     0.187 C 
HETATM   24  O9  MIQ B 502       8.615   4.154 -24.398  1.00148.65    -0.388 OA
HETATM   25  C10 MIQ B 502       9.811   4.403 -23.718  1.00147.44     0.187 C 
HETATM   26  C11 MIQ B 502       9.831   5.493 -22.652  1.00144.08     0.149 C 
ENDBRANCH   5  21
TORSDOF 2
ENDMDL
MODEL 5
REMARK VINA RESULT:      -5.8     21.264     23.994
REMARK  2 active torsions:
REMARK  status: ('A' for Active; 'I' for Inactive)
REMARK    1  A    between atoms: C5_5  and  N6_21 
REMARK    2  A    between atoms: C18_14  and  N17_19 
ROOT
HETATM    1  O1  MIQ B 502      -6.450  12.961 -20.211  1.00142.91    -0.171 OA
HETATM    2  C2  MIQ B 502      -5.608  13.947 -20.729  1.00141.17     0.195 A 
HETATM    3  C3  MIQ B 502      -4.161  14.274 -20.241  1.00141.71     0.035 A 
HETATM    4  C4  MIQ B 502      -3.290  13.709 -19.184  1.00142.86     0.046 A 
HETATM    5  C5  MIQ B 502      -1.988  14.229 -18.974  1.00139.53     0.031 A 
HETATM    6  C12 MIQ B 502      -1.505  15.325 -19.803  1.00139.38     0.030 A 
HETATM    7  C13 MIQ B 502      -2.339  15.866 -20.817  1.00141.18     0.019 A 
HETATM    8  C14 MIQ B 502      -3.704  15.314 -21.035  1.00138.77     0.033 A 
HETATM    9  C15 MIQ B 502      -4.875  15.634 -22.021  1.00142.10     0.195 A 
HETATM   10  N17 MIQ B 502      -5.847  14.789 -21.721  1.00139.42    -0.288 N 
HETATM   11  O16 MIQ B 502      -4.887  16.615 -23.014  1.00148.93    -0.171 OA
ENDROOT
BRANCH  10  12
HETATM   12  C18 MIQ B 502      -7.112  14.806 -22.431  1.00139.82     0.187 C 
HETATM   13  C19 MIQ B 502      -6.809  14.669 -23.928  1.00140.06     0.247 C 
HETATM   14  O25 MIQ B 502      -6.109  13.794 -24.297  1.00143.95    -0.271 OA
HETATM   15  N20 MIQ B 502      -7.365  15.582 -24.906  1.00140.02    -0.296 N 
HETATM   16  H13 MIQ B 502      -7.154  15.486 -25.880  1.00142.77     0.171 HD
HETATM   17  C21 MIQ B 502      -8.208  16.648 -24.431  1.00142.22     0.224 C 
HETATM   18  C22 MIQ B 502      -7.871  17.229 -23.071  1.00139.52     0.106 C 
HETATM   19  O24 MIQ B 502      -9.121  17.045 -25.069  1.00146.13    -0.273 OA
HETATM   20  C23 MIQ B 502      -7.897  16.071 -22.090  1.00139.15     0.045 C 
ENDBRANCH  10  12
BRANCH   5  21
HETATM   21  N6  MIQ B 502      -1.151  13.676 -17.925  1.00140.95    -0.377 N 
HETATM   22  C7  MIQ B 502      -1.367  12.298 -17.518  1.00142.12     0.149 C 
HETATM   23  C8  MIQ B 502      -0.935  12.056 -16.078  1.00144.10     0.187 C 
HETATM   24  O9  MIQ B 502       0.333  12.569 -15.797  1.00148.65    -0.388 OA
HETATM   25  C10 MIQ B 502       0.976  13.406 -16.712  1.00147.44     0.187 C 
HETATM   26  C11 MIQ B 502       0.124  14.297 -17.610  1.00144.08     0.149 C 
ENDBRANCH   5  21
TORSDOF 2
ENDMDL
MODEL 6
REMARK VINA RESULT:      -5.7      3.279      5.056
REMARK  2 active torsions:
REMARK  status: ('A' for Active; 'I' for Inactive)
REMARK    1  A    between atoms: C5_5  and  N6_21 
REMARK    2  A    between atoms: C18_14  and  N17_19 
ROOT
HETATM    1  O1  MIQ B 502       6.419  -9.069 -22.358  1.00142.91    -0.171 OA
HETATM    2  C2  MIQ B 502       5.938  -7.785 -22.092  1.00141.17     0.195 A 
HETATM    3  C3  MIQ B 502       4.472  -7.288 -22.297  1.00141.71     0.035 A 
HETATM    4  C4  MIQ B 502       3.234  -7.940 -22.785  1.00142.86     0.046 A 
HETATM    5  C5  MIQ B 502       2.021  -7.211 -22.859  1.00139.53     0.031 A 
HETATM    6  C12 MIQ B 502       1.992  -5.813 -22.452  1.00139.38     0.030 A 
HETATM    7  C13 MIQ B 502       3.178  -5.188 -21.982  1.00141.18     0.019 A 
HETATM    8  C14 MIQ B 502       4.449  -5.960 -21.905  1.00138.77     0.033 A 
HETATM    9  C15 MIQ B 502       5.909  -5.630 -21.453  1.00142.10     0.195 A 
HETATM   10  N17 MIQ B 502       6.602  -6.745 -21.617  1.00139.42    -0.288 N 
HETATM   11  O16 MIQ B 502       6.381  -4.405 -20.978  1.00148.93    -0.171 OA
ENDROOT
BRANCH  10  12
HETATM   12  C18 MIQ B 502       8.019  -6.808 -21.309  1.00139.82     0.187 C 
HETATM   13  C19 MIQ B 502       8.759  -7.198 -22.594  1.00140.06     0.247 C 
HETATM   14  O25 MIQ B 502       8.550  -6.593 -23.586  1.00143.95    -0.271 OA
HETATM   15  N20 MIQ B 502       9.715  -8.286 -22.625  1.00140.02    -0.296 N 
HETATM   16  H13 MIQ B 502      10.187  -8.535 -23.472  1.00142.77     0.171 HD
HETATM   17  C21 MIQ B 502       9.945  -9.016 -21.405  1.00142.22     0.224 C 
HETATM   18  C22 MIQ B 502       8.760  -9.176 -20.473  1.00139.52     0.106 C 
HETATM   19  O24 MIQ B 502      11.008  -9.462 -21.143  1.00146.13    -0.273 OA
HETATM   20  C23 MIQ B 502       8.270  -7.775 -20.154  1.00139.15     0.045 C 
ENDBRANCH  10  12
BRANCH   5  21
HETATM   21  N6  MIQ B 502       0.819  -7.858 -23.354  1.00140.95    -0.377 N 
HETATM   22  C7  MIQ B 502       0.948  -8.847 -24.410  1.00142.12     0.149 C 
HETATM   23  C8  MIQ B 502      -0.321  -8.953 -25.247  1.00144.10     0.187 C 
HETATM   24  O9  MIQ B 502      -1.477  -9.056 -24.471  1.00148.65    -0.388 OA
HETATM   25  C10 MIQ B 502      -1.425  -8.839 -23.092  1.00147.44     0.187 C 
HETATM   26  C11 MIQ B 502      -0.387  -7.864 -22.545  1.00144.08     0.149 C 
ENDBRANCH   5  21
TORSDOF 2
ENDMDL
MODEL 7
REMARK VINA RESULT:      -5.7     13.709     16.765
REMARK  2 active torsions:
REMARK  status: ('A' for Active; 'I' for Inactive)
REMARK    1  A    between atoms: C5_5  and  N6_21 
REMARK    2  A    between atoms: C18_14  and  N17_19 
ROOT
HETATM    1  O1  MIQ B 502       7.116   6.722 -27.263  1.00142.91    -0.171 OA
HETATM    2  C2  MIQ B 502       7.823   5.839 -26.443  1.00141.17     0.195 A 
HETATM    3  C3  MIQ B 502       8.386   6.152 -25.020  1.00141.71     0.035 A 
HETATM    4  C4  MIQ B 502       8.360   7.357 -24.157  1.00142.86     0.046 A 
HETATM    5  C5  MIQ B 502       8.974   7.335 -22.879  1.00139.53     0.031 A 
HETATM    6  C12 MIQ B 502       9.633   6.123 -22.414  1.00139.38     0.030 A 
HETATM    7  C13 MIQ B 502       9.657   4.968 -23.241  1.00141.18     0.019 A 
HETATM    8  C14 MIQ B 502       9.009   4.996 -24.581  1.00138.77     0.033 A 
HETATM    9  C15 MIQ B 502       8.830   3.958 -25.737  1.00142.10     0.195 A 
HETATM   10  N17 MIQ B 502       8.153   4.582 -26.686  1.00139.42    -0.288 N 
HETATM   11  O16 MIQ B 502       9.295   2.642 -25.758  1.00148.93    -0.171 OA
ENDROOT
BRANCH  10  12
HETATM   12  C18 MIQ B 502       7.814   3.923 -27.933  1.00139.82     0.187 C 
HETATM   13  C19 MIQ B 502       8.380   4.769 -29.080  1.00140.06     0.247 C 
HETATM   14  O25 MIQ B 502       9.513   5.097 -29.049  1.00143.95    -0.271 OA
HETATM   15  N20 MIQ B 502       7.563   5.175 -30.205  1.00140.02    -0.296 N 
HETATM   16  H13 MIQ B 502       7.943   5.733 -30.944  1.00142.77     0.171 HD
HETATM   17  C21 MIQ B 502       6.180   4.772 -30.215  1.00142.22     0.224 C 
HETATM   18  C22 MIQ B 502       5.488   4.680 -28.869  1.00139.52     0.106 C 
HETATM   19  O24 MIQ B 502       5.617   4.521 -31.223  1.00146.13    -0.273 OA
HETATM   20  C23 MIQ B 502       6.303   3.713 -28.030  1.00139.15     0.045 C 
ENDBRANCH  10  12
BRANCH   5  21
HETATM   21  N6  MIQ B 502       8.954   8.526 -22.049  1.00140.95    -0.377 N 
HETATM   22  C7  MIQ B 502       7.680   9.179 -21.802  1.00142.12     0.149 C 
HETATM   23  C8  MIQ B 502       7.849  10.665 -21.512  1.00144.10     0.187 C 
HETATM   24  O9  MIQ B 502       8.846  10.925 -20.570  1.00148.65    -0.388 OA
HETATM   25  C10 MIQ B 502       9.712   9.910 -20.158  1.00147.44     0.187 C 
HETATM   26  C11 MIQ B 502      10.057   8.800 -21.145  1.00144.08     0.149 C 
ENDBRANCH   5  21
TORSDOF 2
ENDMDL
MODEL 8
REMARK VINA RESULT:      -5.7     18.759     21.324
REMARK  2 active torsions:
REMARK  status: ('A' for Active; 'I' for Inactive)
REMARK    1  A    between atoms: C5_5  and  N6_21 
REMARK    2  A    between atoms: C18_14  and  N17_19 
ROOT
HETATM    1  O1  MIQ B 502      -9.278   7.813 -17.827  1.00142.91    -0.171 OA
HETATM    2  C2  MIQ B 502      -8.391   8.508 -17.002  1.00141.17     0.195 A 
HETATM    3  C3  MIQ B 502      -7.571   9.779 -17.393  1.00141.71     0.035 A 
HETATM    4  C4  MIQ B 502      -7.474  10.588 -18.631  1.00142.86     0.046 A 
HETATM    5  C5  MIQ B 502      -6.620  11.719 -18.683  1.00139.53     0.031 A 
HETATM    6  C12 MIQ B 502      -5.837  12.087 -17.512  1.00139.38     0.030 A 
HETATM    7  C13 MIQ B 502      -5.930  11.312 -16.325  1.00141.18     0.019 A 
HETATM    8  C14 MIQ B 502      -6.830  10.127 -16.275  1.00138.77     0.033 A 
HETATM    9  C15 MIQ B 502      -7.192   9.067 -15.185  1.00142.10     0.195 A 
HETATM   10  N17 MIQ B 502      -8.066   8.249 -15.747  1.00139.42    -0.288 N 
HETATM   11  O16 MIQ B 502      -6.688   9.000 -13.884  1.00148.93    -0.171 OA
ENDROOT
BRANCH  10  12
HETATM   12  C18 MIQ B 502      -8.617   7.117 -15.025  1.00139.82     0.187 C 
HETATM   13  C19 MIQ B 502      -8.373   5.860 -15.868  1.00140.06     0.247 C 
HETATM   14  O25 MIQ B 502      -7.286   5.638 -16.269  1.00143.95    -0.271 OA
HETATM   15  N20 MIQ B 502      -9.440   4.931 -16.181  1.00140.02    -0.296 N 
HETATM   16  H13 MIQ B 502      -9.268   4.117 -16.738  1.00142.77     0.171 HD
HETATM   17  C21 MIQ B 502     -10.760   5.229 -15.688  1.00142.22     0.224 C 
HETATM   18  C22 MIQ B 502     -11.138   6.694 -15.595  1.00139.52     0.106 C 
HETATM   19  O24 MIQ B 502     -11.507   4.372 -15.366  1.00146.13    -0.273 OA
HETATM   20  C23 MIQ B 502     -10.094   7.355 -14.713  1.00139.15     0.045 C 
ENDBRANCH  10  12
BRANCH   5  21
HETATM   21  N6  MIQ B 502      -6.524  12.493 -19.907  1.00140.95    -0.377 N 
HETATM   22  C7  MIQ B 502      -5.206  12.876 -20.384  1.00142.12     0.149 C 
HETATM   23  C8  MIQ B 502      -5.252  14.147 -21.223  1.00144.10     0.187 C 
HETATM   24  O9  MIQ B 502      -6.254  14.119 -22.195  1.00148.65    -0.388 OA
HETATM   25  C10 MIQ B 502      -7.221  13.111 -22.187  1.00147.44     0.187 C 
HETATM   26  C11 MIQ B 502      -7.629  12.502 -20.849  1.00144.08     0.149 C 
ENDBRANCH   5  21
TORSDOF 2
ENDMDL
MODEL 9
REMARK VINA RESULT:      -5.7      2.139      3.214
REMARK  2 active torsions:
REMARK  status: ('A' for Active; 'I' for Inactive)
REMARK    1  A    between atoms: C5_5  and  N6_21 
REMARK    2  A    between atoms: C18_14  and  N17_19 
ROOT
HETATM    1  O1  MIQ B 502       4.309  -5.054 -25.848  1.00142.91    -0.171 OA
HETATM    2  C2  MIQ B 502       4.117  -5.443 -24.521  1.00141.17     0.195 A 
HETATM    3  C3  MIQ B 502       2.966  -6.351 -23.983  1.00141.71     0.035 A 
HETATM    4  C4  MIQ B 502       1.818  -7.032 -24.629  1.00142.86     0.046 A 
HETATM    5  C5  MIQ B 502       0.919  -7.810 -23.857  1.00139.53     0.031 A 
HETATM    6  C12 MIQ B 502       1.125  -7.941 -22.422  1.00139.38     0.030 A 
HETATM    7  C13 MIQ B 502       2.225  -7.289 -21.802  1.00141.18     0.019 A 
HETATM    8  C14 MIQ B 502       3.168  -6.475 -22.618  1.00138.77     0.033 A 
HETATM    9  C15 MIQ B 502       4.452  -5.640 -22.307  1.00142.10     0.195 A 
HETATM   10  N17 MIQ B 502       4.852  -5.140 -23.464  1.00139.42    -0.288 N 
HETATM   11  O16 MIQ B 502       5.050  -5.460 -21.058  1.00148.93    -0.171 OA
ENDROOT
BRANCH  10  12
HETATM   12  C18 MIQ B 502       6.022  -4.287 -23.557  1.00139.82     0.187 C 
HETATM   13  C19 MIQ B 502       7.158  -4.966 -22.783  1.00140.06     0.247 C 
HETATM   14  O25 MIQ B 502       7.417  -6.095 -23.011  1.00143.95    -0.271 OA
HETATM   15  N20 MIQ B 502       7.930  -4.259 -21.781  1.00140.02    -0.296 N 
HETATM   16  H13 MIQ B 502       8.665  -4.716 -21.278  1.00142.77     0.171 HD
HETATM   17  C21 MIQ B 502       7.589  -2.885 -21.514  1.00142.22     0.224 C 
HETATM   18  C22 MIQ B 502       6.125  -2.511 -21.636  1.00139.52     0.106 C 
HETATM   19  O24 MIQ B 502       8.412  -2.091 -21.218  1.00146.13    -0.273 OA
HETATM   20  C23 MIQ B 502       5.700  -2.884 -23.045  1.00139.15     0.045 C 
ENDBRANCH  10  12
BRANCH   5  21
HETATM   21  N6  MIQ B 502      -0.208  -8.459 -24.501  1.00140.95    -0.377 N 
HETATM   22  C7  MIQ B 502       0.021  -9.181 -25.741  1.00142.12     0.149 C 
HETATM   23  C8  MIQ B 502      -1.232  -9.239 -26.605  1.00144.10     0.187 C 
HETATM   24  O9  MIQ B 502      -2.368  -9.625 -25.891  1.00148.65    -0.388 OA
HETATM   25  C10 MIQ B 502      -2.334  -9.703 -24.496  1.00147.44     0.187 C 
HETATM   26  C11 MIQ B 502      -1.404  -8.764 -23.735  1.00144.08     0.149 C 
ENDBRANCH   5  21
TORSDOF 2
ENDMDL
