MODEL 1
REMARK VINA RESULT:      -7.1      0.000      0.000
REMARK  2 active torsions:
REMARK  status: ('A' for Active; 'I' for Inactive)
REMARK    1  A    between atoms: C5_5  and  N6_21 
REMARK    2  A    between atoms: C18_14  and  N17_19 
ROOT
HETATM    1  O1  MIQ B 502       8.004   1.223 -12.487  1.00142.91    -0.171 OA
HETATM    2  C2  MIQ B 502       7.294   1.097 -13.683  1.00141.17     0.195 A 
HETATM    3  C3  MIQ B 502       6.232   2.099 -14.235  1.00141.71     0.035 A 
HETATM    4  C4  MIQ B 502       5.683   3.382 -13.733  1.00142.86     0.046 A 
HETATM    5  C5  MIQ B 502       4.702   4.082 -14.479  1.00139.53     0.031 A 
HETATM    6  C12 MIQ B 502       4.232   3.538 -15.745  1.00139.38     0.030 A 
HETATM    7  C13 MIQ B 502       4.758   2.309 -16.227  1.00141.18     0.019 A 
HETATM    8  C14 MIQ B 502       5.790   1.579 -15.441  1.00138.77     0.033 A 
HETATM    9  C15 MIQ B 502       6.583   0.247 -15.638  1.00142.10     0.195 A 
HETATM   10  N17 MIQ B 502       7.371   0.130 -14.582  1.00139.42    -0.288 N 
HETATM   11  O16 MIQ B 502       6.476  -0.638 -16.713  1.00148.93    -0.171 OA
ENDROOT
BRANCH  10  12
HETATM   12  C18 MIQ B 502       8.252  -1.011 -14.416  1.00139.82     0.187 C 
HETATM   13  C19 MIQ B 502       7.959  -1.632 -13.044  1.00140.06     0.247 C 
HETATM   14  O25 MIQ B 502       6.845  -1.890 -12.755  1.00143.95    -0.271 OA
HETATM   15  N20 MIQ B 502       9.015  -1.917 -12.094  1.00140.02    -0.296 N 
HETATM   16  H13 MIQ B 502       8.810  -2.317 -11.200  1.00142.77     0.171 HD
HETATM   17  C21 MIQ B 502      10.366  -1.583 -12.466  1.00142.22     0.224 C 
HETATM   18  C22 MIQ B 502      10.548  -0.357 -13.340  1.00139.52     0.106 C 
HETATM   19  O24 MIQ B 502      11.284  -2.237 -12.111  1.00146.13    -0.273 OA
HETATM   20  C23 MIQ B 502       9.710  -0.585 -14.584  1.00139.15     0.045 C 
ENDBRANCH  10  12
BRANCH   5  21
HETATM   21  N6  MIQ B 502       4.162   5.329 -13.969  1.00140.95    -0.377 N 
HETATM   22  C7  MIQ B 502       5.086   6.330 -13.463  1.00142.12     0.149 C 
HETATM   23  C8  MIQ B 502       4.434   7.231 -12.422  1.00144.10     0.187 C 
HETATM   24  O9  MIQ B 502       3.190   7.718 -12.827  1.00148.65    -0.388 OA
HETATM   25  C10 MIQ B 502       2.567   7.206 -13.968  1.00147.44     0.187 C 
HETATM   26  C11 MIQ B 502       2.827   5.753 -14.351  1.00144.08     0.149 C 
ENDBRANCH   5  21
TORSDOF 2
ENDMDL
MODEL 2
REMARK VINA RESULT:      -7.1      5.375      9.101
REMARK  2 active torsions:
REMARK  status: ('A' for Active; 'I' for Inactive)
REMARK    1  A    between atoms: C5_5  and  N6_21 
REMARK    2  A    between atoms: C18_14  and  N17_19 
ROOT
HETATM    1  O1  MIQ B 502       2.159   9.394 -12.501  1.00142.91    -0.171 OA
HETATM    2  C2  MIQ B 502       3.372   9.492 -13.187  1.00141.17     0.195 A 
HETATM    3  C3  MIQ B 502       3.949  10.776 -13.862  1.00141.71     0.035 A 
HETATM    4  C4  MIQ B 502       3.460  12.170 -13.985  1.00142.86     0.046 A 
HETATM    5  C5  MIQ B 502       4.229  13.141 -14.675  1.00139.53     0.031 A 
HETATM    6  C12 MIQ B 502       5.506  12.765 -15.265  1.00139.38     0.030 A 
HETATM    7  C13 MIQ B 502       5.976  11.430 -15.146  1.00141.18     0.019 A 
HETATM    8  C14 MIQ B 502       5.165  10.415 -14.418  1.00138.77     0.033 A 
HETATM    9  C15 MIQ B 502       5.344   8.898 -14.086  1.00142.10     0.195 A 
HETATM   10  N17 MIQ B 502       4.269   8.545 -13.401  1.00139.42    -0.288 N 
HETATM   11  O16 MIQ B 502       6.421   8.085 -14.444  1.00148.93    -0.171 OA
ENDROOT
BRANCH  10  12
HETATM   12  C18 MIQ B 502       4.082   7.184 -12.933  1.00139.82     0.187 C 
HETATM   13  C19 MIQ B 502       5.377   6.747 -12.237  1.00140.06     0.247 C 
HETATM   14  O25 MIQ B 502       5.845   7.439 -11.404  1.00143.95    -0.271 OA
HETATM   15  N20 MIQ B 502       6.041   5.503 -12.570  1.00140.02    -0.296 N 
HETATM   16  H13 MIQ B 502       6.889   5.232 -12.113  1.00142.77     0.171 HD
HETATM   17  C21 MIQ B 502       5.456   4.681 -13.597  1.00142.22     0.224 C 
HETATM   18  C22 MIQ B 502       4.754   5.403 -14.731  1.00139.52     0.106 C 
HETATM   19  O24 MIQ B 502       5.517   3.501 -13.553  1.00146.13    -0.273 OA
HETATM   20  C23 MIQ B 502       3.686   6.272 -14.093  1.00139.15     0.045 C 
ENDBRANCH  10  12
BRANCH   5  21
HETATM   21  N6  MIQ B 502       3.731  14.499 -14.801  1.00140.95    -0.377 N 
HETATM   22  C7  MIQ B 502       3.398  14.996 -16.125  1.00142.12     0.149 C 
HETATM   23  C8  MIQ B 502       3.522  16.512 -16.211  1.00144.10     0.187 C 
HETATM   24  O9  MIQ B 502       2.895  17.169 -15.151  1.00148.65    -0.388 OA
HETATM   25  C10 MIQ B 502       2.431  16.450 -14.047  1.00147.44     0.187 C 
HETATM   26  C11 MIQ B 502       3.165  15.174 -13.647  1.00144.08     0.149 C 
ENDBRANCH   5  21
TORSDOF 2
ENDMDL
MODEL 3
REMARK VINA RESULT:      -7.0      4.641      6.625
REMARK  2 active torsions:
REMARK  status: ('A' for Active; 'I' for Inactive)
REMARK    1  A    between atoms: C5_5  and  N6_21 
REMARK    2  A    between atoms: C18_14  and  N17_19 
ROOT
HETATM    1  O1  MIQ B 502       9.899  -2.491 -15.530  1.00142.91    -0.171 OA
HETATM    2  C2  MIQ B 502       9.639  -1.212 -15.030  1.00141.17     0.195 A 
HETATM    3  C3  MIQ B 502       9.810   0.133 -15.806  1.00141.71     0.035 A 
HETATM    4  C4  MIQ B 502      10.252   0.468 -17.180  1.00142.86     0.046 A 
HETATM    5  C5  MIQ B 502      10.302   1.818 -17.608  1.00139.53     0.031 A 
HETATM    6  C12 MIQ B 502       9.917   2.881 -16.691  1.00139.38     0.030 A 
HETATM    7  C13 MIQ B 502       9.492   2.561 -15.373  1.00141.18     0.019 A 
HETATM    8  C14 MIQ B 502       9.439   1.141 -14.931  1.00138.77     0.033 A 
HETATM    9  C15 MIQ B 502       9.035   0.417 -13.605  1.00142.10     0.195 A 
HETATM   10  N17 MIQ B 502       9.201  -0.876 -13.829  1.00139.42    -0.288 N 
HETATM   11  O16 MIQ B 502       8.593   1.019 -12.425  1.00148.93    -0.171 OA
ENDROOT
BRANCH  10  12
HETATM   12  C18 MIQ B 502       8.934  -1.864 -12.801  1.00139.82     0.187 C 
HETATM   13  C19 MIQ B 502      10.182  -2.744 -12.662  1.00140.06     0.247 C 
HETATM   14  O25 MIQ B 502      11.235  -2.231 -12.517  1.00143.95    -0.271 OA
HETATM   15  N20 MIQ B 502      10.105  -4.190 -12.697  1.00140.02    -0.296 N 
HETATM   16  H13 MIQ B 502      10.928  -4.753 -12.611  1.00142.77     0.171 HD
HETATM   17  C21 MIQ B 502       8.810  -4.792 -12.884  1.00142.22     0.224 C 
HETATM   18  C22 MIQ B 502       7.827  -4.036 -13.757  1.00139.52     0.106 C 
HETATM   19  O24 MIQ B 502       8.528  -5.821 -12.377  1.00146.13    -0.273 OA
HETATM   20  C23 MIQ B 502       7.673  -2.658 -13.140  1.00139.15     0.045 C 
ENDBRANCH  10  12
BRANCH   5  21
HETATM   21  N6  MIQ B 502      10.751   2.133 -18.952  1.00140.95    -0.377 N 
HETATM   22  C7  MIQ B 502      11.762   3.163 -19.123  1.00142.12     0.149 C 
HETATM   23  C8  MIQ B 502      11.671   3.826 -20.492  1.00144.10     0.187 C 
HETATM   24  O9  MIQ B 502      11.573   2.905 -21.537  1.00148.65    -0.388 OA
HETATM   25  C10 MIQ B 502      11.350   1.552 -21.269  1.00147.44     0.187 C 
HETATM   26  C11 MIQ B 502      10.550   1.177 -20.026  1.00144.08     0.149 C 
ENDBRANCH   5  21
TORSDOF 2
ENDMDL
MODEL 4
REMARK VINA RESULT:      -6.9      4.668      9.429
REMARK  2 active torsions:
REMARK  status: ('A' for Active; 'I' for Inactive)
REMARK    1  A    between atoms: C5_5  and  N6_21 
REMARK    2  A    between atoms: C18_14  and  N17_19 
ROOT
HETATM    1  O1  MIQ B 502       7.705  -1.995 -15.270  1.00142.91    -0.171 OA
HETATM    2  C2  MIQ B 502       8.213  -2.814 -14.259  1.00141.17     0.195 A 
HETATM    3  C3  MIQ B 502       7.991  -4.354 -14.119  1.00141.71     0.035 A 
HETATM    4  C4  MIQ B 502       7.250  -5.353 -14.925  1.00142.86     0.046 A 
HETATM    5  C5  MIQ B 502       7.232  -6.716 -14.535  1.00139.53     0.031 A 
HETATM    6  C12 MIQ B 502       7.945  -7.135 -13.338  1.00139.38     0.030 A 
HETATM    7  C13 MIQ B 502       8.656  -6.177 -12.566  1.00141.18     0.019 A 
HETATM    8  C14 MIQ B 502       8.674  -4.748 -12.981  1.00138.77     0.033 A 
HETATM    9  C15 MIQ B 502       9.325  -3.446 -12.410  1.00142.10     0.195 A 
HETATM   10  N17 MIQ B 502       8.976  -2.472 -13.234  1.00139.42    -0.288 N 
HETATM   11  O16 MIQ B 502      10.113  -3.339 -11.263  1.00148.93    -0.171 OA
ENDROOT
BRANCH  10  12
HETATM   12  C18 MIQ B 502       9.393  -1.101 -13.006  1.00139.82     0.187 C 
HETATM   13  C19 MIQ B 502       8.136  -0.222 -13.012  1.00140.06     0.247 C 
HETATM   14  O25 MIQ B 502       7.220  -0.523 -12.332  1.00143.95    -0.271 OA
HETATM   15  N20 MIQ B 502       8.042   0.972 -13.826  1.00140.02    -0.296 N 
HETATM   16  H13 MIQ B 502       7.214   1.533 -13.826  1.00142.77     0.171 HD
HETATM   17  C21 MIQ B 502       9.169   1.312 -14.656  1.00142.22     0.224 C 
HETATM   18  C22 MIQ B 502       9.966   0.157 -15.230  1.00139.52     0.106 C 
HETATM   19  O24 MIQ B 502       9.460   2.437 -14.872  1.00146.13    -0.273 OA
HETATM   20  C23 MIQ B 502      10.426  -0.679 -14.050  1.00139.15     0.045 C 
ENDBRANCH  10  12
BRANCH   5  21
HETATM   21  N6  MIQ B 502       6.490  -7.682 -15.326  1.00140.95    -0.377 N 
HETATM   22  C7  MIQ B 502       5.744  -7.209 -16.479  1.00142.12     0.149 C 
HETATM   23  C8  MIQ B 502       4.563  -8.115 -16.803  1.00144.10     0.187 C 
HETATM   24  O9  MIQ B 502       4.907  -9.468 -16.828  1.00148.65    -0.388 OA
HETATM   25  C10 MIQ B 502       6.156  -9.889 -16.366  1.00147.44     0.187 C 
HETATM   26  C11 MIQ B 502       6.829  -9.092 -15.253  1.00144.08     0.149 C 
ENDBRANCH   5  21
TORSDOF 2
ENDMDL
MODEL 5
REMARK VINA RESULT:      -6.6      2.627      4.035
REMARK  2 active torsions:
REMARK  status: ('A' for Active; 'I' for Inactive)
REMARK    1  A    between atoms: C5_5  and  N6_21 
REMARK    2  A    between atoms: C18_14  and  N17_19 
ROOT
HETATM    1  O1  MIQ B 502       7.212  -2.430 -15.385  1.00142.91    -0.171 OA
HETATM    2  C2  MIQ B 502       7.746  -1.614 -14.385  1.00141.17     0.195 A 
HETATM    3  C3  MIQ B 502       7.300  -0.155 -14.049  1.00141.71     0.035 A 
HETATM    4  C4  MIQ B 502       6.272   0.752 -14.613  1.00142.86     0.046 A 
HETATM    5  C5  MIQ B 502       6.097   2.054 -14.082  1.00139.53     0.031 A 
HETATM    6  C12 MIQ B 502       6.930   2.502 -12.976  1.00139.38     0.030 A 
HETATM    7  C13 MIQ B 502       7.915   1.633 -12.434  1.00141.18     0.019 A 
HETATM    8  C14 MIQ B 502       8.094   0.265 -12.994  1.00138.77     0.033 A 
HETATM    9  C15 MIQ B 502       9.037  -0.939 -12.673  1.00142.10     0.195 A 
HETATM   10  N17 MIQ B 502       8.714  -1.895 -13.529  1.00139.42    -0.288 N 
HETATM   11  O16 MIQ B 502      10.022  -0.990 -11.685  1.00148.93    -0.171 OA
ENDROOT
BRANCH  10  12
HETATM   12  C18 MIQ B 502       9.403  -3.172 -13.535  1.00139.82     0.187 C 
HETATM   13  C19 MIQ B 502       9.827  -3.468 -14.979  1.00140.06     0.247 C 
HETATM   14  O25 MIQ B 502      10.417  -2.646 -15.586  1.00143.95    -0.271 OA
HETATM   15  N20 MIQ B 502       9.528  -4.733 -15.618  1.00140.02    -0.296 N 
HETATM   16  H13 MIQ B 502       9.805  -4.911 -16.564  1.00142.77     0.171 HD
HETATM   17  C21 MIQ B 502       8.798  -5.716 -14.860  1.00142.22     0.224 C 
HETATM   18  C22 MIQ B 502       7.771  -5.191 -13.875  1.00139.52     0.106 C 
HETATM   19  O24 MIQ B 502       8.995  -6.873 -14.998  1.00146.13    -0.273 OA
HETATM   20  C23 MIQ B 502       8.513  -4.259 -12.935  1.00139.15     0.045 C 
ENDBRANCH  10  12
BRANCH   5  21
HETATM   21  N6  MIQ B 502       5.096   2.937 -14.653  1.00140.95    -0.377 N 
HETATM   22  C7  MIQ B 502       5.226   4.367 -14.436  1.00142.12     0.149 C 
HETATM   23  C8  MIQ B 502       3.879   5.076 -14.494  1.00144.10     0.187 C 
HETATM   24  O9  MIQ B 502       3.119   4.709 -15.606  1.00148.65    -0.388 OA
HETATM   25  C10 MIQ B 502       3.510   3.631 -16.405  1.00147.44     0.187 C 
HETATM   26  C11 MIQ B 502       4.269   2.479 -15.756  1.00144.08     0.149 C 
ENDBRANCH   5  21
TORSDOF 2
ENDMDL
MODEL 6
REMARK VINA RESULT:      -6.6      3.702      8.827
REMARK  2 active torsions:
REMARK  status: ('A' for Active; 'I' for Inactive)
REMARK    1  A    between atoms: C5_5  and  N6_21 
REMARK    2  A    between atoms: C18_14  and  N17_19 
ROOT
HETATM    1  O1  MIQ B 502       7.164  -0.530 -15.727  1.00142.91    -0.171 OA
HETATM    2  C2  MIQ B 502       7.950  -0.915 -14.638  1.00141.17     0.195 A 
HETATM    3  C3  MIQ B 502       8.163  -2.376 -14.126  1.00141.71     0.035 A 
HETATM    4  C4  MIQ B 502       7.661  -3.696 -14.574  1.00142.86     0.046 A 
HETATM    5  C5  MIQ B 502       8.042  -4.878 -13.889  1.00139.53     0.031 A 
HETATM    6  C12 MIQ B 502       8.930  -4.792 -12.739  1.00139.38     0.030 A 
HETATM    7  C13 MIQ B 502       9.412  -3.526 -12.309  1.00141.18     0.019 A 
HETATM    8  C14 MIQ B 502       9.011  -2.289 -13.034  1.00138.77     0.033 A 
HETATM    9  C15 MIQ B 502       9.328  -0.767 -12.868  1.00142.10     0.195 A 
HETATM   10  N17 MIQ B 502       8.666  -0.149 -13.833  1.00139.42    -0.288 N 
HETATM   11  O16 MIQ B 502      10.141  -0.183 -11.895  1.00148.93    -0.171 OA
ENDROOT
BRANCH  10  12
HETATM   12  C18 MIQ B 502       8.713   1.293 -13.981  1.00139.82     0.187 C 
HETATM   13  C19 MIQ B 502       7.271   1.798 -14.102  1.00140.06     0.247 C 
HETATM   14  O25 MIQ B 502       6.474   1.463 -13.300  1.00143.95    -0.271 OA
HETATM   15  N20 MIQ B 502       6.858   2.682 -15.173  1.00140.02    -0.296 N 
HETATM   16  H13 MIQ B 502       5.912   2.999 -15.245  1.00142.77     0.171 HD
HETATM   17  C21 MIQ B 502       7.847   3.069 -16.147  1.00142.22     0.224 C 
HETATM   18  C22 MIQ B 502       8.911   2.041 -16.482  1.00139.52     0.106 C 
HETATM   19  O24 MIQ B 502       7.830   4.136 -16.654  1.00146.13    -0.273 OA
HETATM   20  C23 MIQ B 502       9.587   1.678 -15.173  1.00139.15     0.045 C 
ENDBRANCH  10  12
BRANCH   5  21
HETATM   21  N6  MIQ B 502       7.531  -6.163 -14.330  1.00140.95    -0.377 N 
HETATM   22  C7  MIQ B 502       7.133  -6.312 -15.719  1.00142.12     0.149 C 
HETATM   23  C8  MIQ B 502       6.073  -7.393 -15.894  1.00144.10     0.187 C 
HETATM   24  O9  MIQ B 502       6.394  -8.581 -15.234  1.00148.65    -0.388 OA
HETATM   25  C10 MIQ B 502       7.465  -8.625 -14.338  1.00147.44     0.187 C 
HETATM   26  C11 MIQ B 502       7.820  -7.361 -13.562  1.00144.08     0.149 C 
ENDBRANCH   5  21
TORSDOF 2
ENDMDL
MODEL 7
REMARK VINA RESULT:      -6.6      1.962      8.317
REMARK  2 active torsions:
REMARK  status: ('A' for Active; 'I' for Inactive)
REMARK    1  A    between atoms: C5_5  and  N6_21 
REMARK    2  A    between atoms: C18_14  and  N17_19 
ROOT
HETATM    1  O1  MIQ B 502       5.346   6.109 -12.602  1.00142.91    -0.171 OA
HETATM    2  C2  MIQ B 502       4.939   5.409 -13.739  1.00141.17     0.195 A 
HETATM    3  C3  MIQ B 502       5.360   3.956 -14.128  1.00141.71     0.035 A 
HETATM    4  C4  MIQ B 502       6.234   2.943 -13.490  1.00142.86     0.046 A 
HETATM    5  C5  MIQ B 502       6.427   1.677 -14.098  1.00139.53     0.031 A 
HETATM    6  C12 MIQ B 502       5.762   1.371 -15.356  1.00139.38     0.030 A 
HETATM    7  C13 MIQ B 502       4.923   2.341 -15.968  1.00141.18     0.019 A 
HETATM    8  C14 MIQ B 502       4.722   3.668 -15.324  1.00138.77     0.033 A 
HETATM    9  C15 MIQ B 502       3.900   4.949 -15.679  1.00142.10     0.195 A 
HETATM   10  N17 MIQ B 502       4.127   5.812 -14.702  1.00139.42    -0.288 N 
HETATM   11  O16 MIQ B 502       3.093   5.140 -16.802  1.00148.93    -0.171 OA
ENDROOT
BRANCH  10  12
HETATM   12  C18 MIQ B 502       3.532   7.135 -14.706  1.00139.82     0.187 C 
HETATM   13  C19 MIQ B 502       4.658   8.156 -14.506  1.00140.06     0.247 C 
HETATM   14  O25 MIQ B 502       5.614   8.102 -15.195  1.00143.95    -0.271 OA
HETATM   15  N20 MIQ B 502       4.580   9.192 -13.496  1.00140.02    -0.296 N 
HETATM   16  H13 MIQ B 502       5.325   9.848 -13.371  1.00142.77     0.171 HD
HETATM   17  C21 MIQ B 502       3.408   9.231 -12.660  1.00142.22     0.224 C 
HETATM   18  C22 MIQ B 502       2.768   7.899 -12.321  1.00139.52     0.106 C 
HETATM   19  O24 MIQ B 502       2.966  10.253 -12.264  1.00146.13    -0.273 OA
HETATM   20  C23 MIQ B 502       2.439   7.229 -13.642  1.00139.15     0.045 C 
ENDBRANCH  10  12
BRANCH   5  21
HETATM   21  N6  MIQ B 502       7.297   0.700 -13.469  1.00140.95    -0.377 N 
HETATM   22  C7  MIQ B 502       7.395  -0.624 -14.058  1.00142.12     0.149 C 
HETATM   23  C8  MIQ B 502       7.771  -1.679 -13.026  1.00144.10     0.187 C 
HETATM   24  O9  MIQ B 502       8.852  -1.300 -12.229  1.00148.65    -0.388 OA
HETATM   25  C10 MIQ B 502       9.335   0.011 -12.269  1.00147.44     0.187 C 
HETATM   26  C11 MIQ B 502       8.357   1.140 -12.578  1.00144.08     0.149 C 
ENDBRANCH   5  21
TORSDOF 2
ENDMDL
MODEL 8
REMARK VINA RESULT:      -6.6      1.745      2.823
REMARK  2 active torsions:
REMARK  status: ('A' for Active; 'I' for Inactive)
REMARK    1  A    between atoms: C5_5  and  N6_21 
REMARK    2  A    between atoms: C18_14  and  N17_19 
ROOT
HETATM    1  O1  MIQ B 502       7.726  -0.198 -16.547  1.00142.91    -0.171 OA
HETATM    2  C2  MIQ B 502       7.590   0.409 -15.297  1.00141.17     0.195 A 
HETATM    3  C3  MIQ B 502       6.732   1.673 -14.973  1.00141.71     0.035 A 
HETATM    4  C4  MIQ B 502       5.868   2.555 -15.793  1.00142.86     0.046 A 
HETATM    5  C5  MIQ B 502       5.199   3.656 -15.199  1.00139.53     0.031 A 
HETATM    6  C12 MIQ B 502       5.363   3.919 -13.777  1.00139.38     0.030 A 
HETATM    7  C13 MIQ B 502       6.190   3.073 -12.991  1.00141.18     0.019 A 
HETATM    8  C14 MIQ B 502       6.888   1.918 -13.618  1.00138.77     0.033 A 
HETATM    9  C15 MIQ B 502       7.848   0.798 -13.098  1.00142.10     0.195 A 
HETATM   10  N17 MIQ B 502       8.138   0.049 -14.149  1.00139.42    -0.288 N 
HETATM   11  O16 MIQ B 502       8.304   0.630 -11.789  1.00148.93    -0.171 OA
ENDROOT
BRANCH  10  12
HETATM   12  C18 MIQ B 502       9.029  -1.091 -14.042  1.00139.82     0.187 C 
HETATM   13  C19 MIQ B 502       8.450  -2.040 -12.986  1.00140.06     0.247 C 
HETATM   14  O25 MIQ B 502       7.321  -2.370 -13.065  1.00143.95    -0.271 OA
HETATM   15  N20 MIQ B 502       9.255  -2.549 -11.894  1.00140.02    -0.296 N 
HETATM   16  H13 MIQ B 502       8.863  -3.162 -11.206  1.00142.77     0.171 HD
HETATM   17  C21 MIQ B 502      10.628  -2.124 -11.813  1.00142.22     0.224 C 
HETATM   18  C22 MIQ B 502      10.935  -0.716 -12.286  1.00139.52     0.106 C 
HETATM   19  O24 MIQ B 502      11.474  -2.840 -11.402  1.00146.13    -0.273 OA
HETATM   20  C23 MIQ B 502      10.449  -0.628 -13.722  1.00139.15     0.045 C 
ENDBRANCH  10  12
BRANCH   5  21
HETATM   21  N6  MIQ B 502       4.367   4.520 -16.017  1.00140.95    -0.377 N 
HETATM   22  C7  MIQ B 502       3.435   3.908 -16.948  1.00142.12     0.149 C 
HETATM   23  C8  MIQ B 502       3.131   4.820 -18.130  1.00144.10     0.187 C 
HETATM   24  O9  MIQ B 502       2.820   6.125 -17.744  1.00148.65    -0.388 OA
HETATM   25  C10 MIQ B 502       3.016   6.538 -16.424  1.00147.44     0.187 C 
HETATM   26  C11 MIQ B 502       4.141   5.898 -15.618  1.00144.08     0.149 C 
ENDBRANCH   5  21
TORSDOF 2
ENDMDL
MODEL 9
REMARK VINA RESULT:      -6.6      6.005      9.203
REMARK  2 active torsions:
REMARK  status: ('A' for Active; 'I' for Inactive)
REMARK    1  A    between atoms: C5_5  and  N6_21 
REMARK    2  A    between atoms: C18_14  and  N17_19 
ROOT
HETATM    1  O1  MIQ B 502       5.787  -5.687 -16.854  1.00142.91    -0.171 OA
HETATM    2  C2  MIQ B 502       6.488  -6.273 -15.797  1.00141.17     0.195 A 
HETATM    3  C3  MIQ B 502       7.265  -5.517 -14.674  1.00141.71     0.035 A 
HETATM    4  C4  MIQ B 502       7.493  -4.081 -14.381  1.00142.86     0.046 A 
HETATM    5  C5  MIQ B 502       8.263  -3.693 -13.256  1.00139.53     0.031 A 
HETATM    6  C12 MIQ B 502       8.831  -4.710 -12.383  1.00139.38     0.030 A 
HETATM    7  C13 MIQ B 502       8.612  -6.086 -12.662  1.00141.18     0.019 A 
HETATM    8  C14 MIQ B 502       7.801  -6.488 -13.844  1.00138.77     0.033 A 
HETATM    9  C15 MIQ B 502       7.353  -7.855 -14.455  1.00142.10     0.195 A 
HETATM   10  N17 MIQ B 502       6.635  -7.559 -15.526  1.00139.42    -0.288 N 
HETATM   11  O16 MIQ B 502       7.655  -9.128 -13.968  1.00148.93    -0.171 OA
ENDROOT
BRANCH  10  12
HETATM   12  C18 MIQ B 502       6.060  -8.595 -16.363  1.00139.82     0.187 C 
HETATM   13  C19 MIQ B 502       6.471  -8.307 -17.812  1.00140.06     0.247 C 
HETATM   14  O25 MIQ B 502       7.609  -8.119 -18.062  1.00143.95    -0.271 OA
HETATM   15  N20 MIQ B 502       5.501  -8.264 -18.887  1.00140.02    -0.296 N 
HETATM   16  H13 MIQ B 502       5.781  -8.068 -19.828  1.00142.77     0.171 HD
HETATM   17  C21 MIQ B 502       4.117  -8.486 -18.556  1.00142.22     0.224 C 
HETATM   18  C22 MIQ B 502       3.653  -7.991 -17.200  1.00139.52     0.106 C 
HETATM   19  O24 MIQ B 502       3.383  -9.032 -19.304  1.00146.13    -0.273 OA
HETATM   20  C23 MIQ B 502       4.546  -8.658 -16.169  1.00139.15     0.045 C 
ENDBRANCH  10  12
BRANCH   5  21
HETATM   21  N6  MIQ B 502       8.490  -2.284 -12.990  1.00140.95    -0.377 N 
HETATM   22  C7  MIQ B 502       7.340  -1.404 -12.874  1.00142.12     0.149 C 
HETATM   23  C8  MIQ B 502       7.684   0.034 -13.240  1.00144.10     0.187 C 
HETATM   24  O9  MIQ B 502       8.849   0.489 -12.619  1.00148.65    -0.388 OA
HETATM   25  C10 MIQ B 502       9.683  -0.402 -11.939  1.00147.44     0.187 C 
HETATM   26  C11 MIQ B 502       9.754  -1.848 -12.421  1.00144.08     0.149 C 
ENDBRANCH   5  21
TORSDOF 2
ENDMDL
