MODEL 1
REMARK VINA RESULT:      -7.3      0.000      0.000
REMARK  2 active torsions:
REMARK  status: ('A' for Active; 'I' for Inactive)
REMARK    1  A    between atoms: C5_5  and  N6_21 
REMARK    2  A    between atoms: C18_14  and  N17_19 
ROOT
HETATM    1  O1  MIQ B 502       2.432  13.842 -15.569  1.00142.91    -0.171 OA
HETATM    2  C2  MIQ B 502       1.707  12.899 -14.837  1.00141.17     0.195 A 
HETATM    3  C3  MIQ B 502       2.078  11.393 -14.650  1.00141.71     0.035 A 
HETATM    4  C4  MIQ B 502       3.199  10.553 -15.131  1.00142.86     0.046 A 
HETATM    5  C5  MIQ B 502       3.265   9.179 -14.785  1.00139.53     0.031 A 
HETATM    6  C12 MIQ B 502       2.225   8.593 -13.952  1.00139.38     0.030 A 
HETATM    7  C13 MIQ B 502       1.150   9.399 -13.490  1.00141.18     0.019 A 
HETATM    8  C14 MIQ B 502       1.087  10.841 -13.854  1.00138.77     0.033 A 
HETATM    9  C15 MIQ B 502       0.097  12.011 -13.545  1.00142.10     0.195 A 
HETATM   10  N17 MIQ B 502       0.586  13.076 -14.158  1.00139.42    -0.288 N 
HETATM   11  O16 MIQ B 502      -1.067  11.940 -12.778  1.00148.93    -0.171 OA
ENDROOT
BRANCH  10  12
HETATM   12  C18 MIQ B 502      -0.089  14.359 -14.103  1.00139.82     0.187 C 
HETATM   13  C19 MIQ B 502      -0.297  14.714 -12.626  1.00140.06     0.247 C 
HETATM   14  O25 MIQ B 502       0.622  14.668 -11.887  1.00143.95    -0.271 OA
HETATM   15  N20 MIQ B 502      -1.591  15.112 -12.111  1.00140.02    -0.296 N 
HETATM   16  H13 MIQ B 502      -1.715  15.336 -11.143  1.00142.77     0.171 HD
HETATM   17  C21 MIQ B 502      -2.700  15.151 -13.030  1.00142.22     0.224 C 
HETATM   18  C22 MIQ B 502      -2.697  14.123 -14.145  1.00139.52     0.106 C 
HETATM   19  O24 MIQ B 502      -3.564  15.949 -12.921  1.00146.13    -0.273 OA
HETATM   20  C23 MIQ B 502      -1.392  14.309 -14.899  1.00139.15     0.045 C 
ENDBRANCH  10  12
BRANCH   5  21
HETATM   21  N6  MIQ B 502       4.362   8.364 -15.276  1.00140.95    -0.377 N 
HETATM   22  C7  MIQ B 502       5.170   8.873 -16.370  1.00142.12     0.149 C 
HETATM   23  C8  MIQ B 502       5.802   7.750 -17.181  1.00144.10     0.187 C 
HETATM   24  O9  MIQ B 502       6.418   6.783 -16.383  1.00148.65    -0.388 OA
HETATM   25  C10 MIQ B 502       6.232   6.786 -14.998  1.00147.44     0.187 C 
HETATM   26  C11 MIQ B 502       4.914   7.312 -14.440  1.00144.08     0.149 C 
ENDBRANCH   5  21
TORSDOF 2
ENDMDL
MODEL 2
REMARK VINA RESULT:      -7.1      1.682      2.603
REMARK  2 active torsions:
REMARK  status: ('A' for Active; 'I' for Inactive)
REMARK    1  A    between atoms: C5_5  and  N6_21 
REMARK    2  A    between atoms: C18_14  and  N17_19 
ROOT
HETATM    1  O1  MIQ B 502       1.003  13.444 -13.025  1.00142.91    -0.171 OA
HETATM    2  C2  MIQ B 502       1.115  13.280 -14.407  1.00141.17     0.195 A 
HETATM    3  C3  MIQ B 502       1.992  12.216 -15.141  1.00141.71     0.035 A 
HETATM    4  C4  MIQ B 502       2.898  11.142 -14.670  1.00142.86     0.046 A 
HETATM    5  C5  MIQ B 502       3.574  10.314 -15.602  1.00139.53     0.031 A 
HETATM    6  C12 MIQ B 502       3.375  10.521 -17.029  1.00139.38     0.030 A 
HETATM    7  C13 MIQ B 502       2.506  11.551 -17.481  1.00141.18     0.019 A 
HETATM    8  C14 MIQ B 502       1.798  12.415 -16.498  1.00138.77     0.033 A 
HETATM    9  C15 MIQ B 502       0.793  13.608 -16.607  1.00142.10     0.195 A 
HETATM   10  N17 MIQ B 502       0.515  13.966 -15.364  1.00139.42    -0.288 N 
HETATM   11  O16 MIQ B 502       0.296  14.178 -17.781  1.00148.93    -0.171 OA
ENDROOT
BRANCH  10  12
HETATM   12  C18 MIQ B 502      -0.385  15.067 -15.077  1.00139.82     0.187 C 
HETATM   13  C19 MIQ B 502       0.341  16.030 -14.130  1.00140.06     0.247 C 
HETATM   14  O25 MIQ B 502       1.423  16.407 -14.410  1.00143.95    -0.271 OA
HETATM   15  N20 MIQ B 502      -0.266  16.495 -12.900  1.00140.02    -0.296 N 
HETATM   16  H13 MIQ B 502       0.221  17.118 -12.287  1.00142.77     0.171 HD
HETATM   17  C21 MIQ B 502      -1.584  16.012 -12.574  1.00142.22     0.224 C 
HETATM   18  C22 MIQ B 502      -1.917  14.597 -13.005  1.00139.52     0.106 C 
HETATM   19  O24 MIQ B 502      -2.366  16.690 -12.002  1.00146.13    -0.273 OA
HETATM   20  C23 MIQ B 502      -1.702  14.543 -14.507  1.00139.15     0.045 C 
ENDBRANCH  10  12
BRANCH   5  21
HETATM   21  N6  MIQ B 502       4.469   9.275 -15.126  1.00140.95    -0.377 N 
HETATM   22  C7  MIQ B 502       4.095   8.524 -13.940  1.00142.12     0.149 C 
HETATM   23  C8  MIQ B 502       5.312   7.979 -13.205  1.00144.10     0.187 C 
HETATM   24  O9  MIQ B 502       6.219   7.340 -14.054  1.00148.65    -0.388 OA
HETATM   25  C10 MIQ B 502       6.078   7.437 -15.440  1.00147.44     0.187 C 
HETATM   26  C11 MIQ B 502       5.456   8.701 -16.024  1.00144.08     0.149 C 
ENDBRANCH   5  21
TORSDOF 2
ENDMDL
MODEL 3
REMARK VINA RESULT:      -7.1      2.061      7.954
REMARK  2 active torsions:
REMARK  status: ('A' for Active; 'I' for Inactive)
REMARK    1  A    between atoms: C5_5  and  N6_21 
REMARK    2  A    between atoms: C18_14  and  N17_19 
ROOT
HETATM    1  O1  MIQ B 502       3.828  11.126 -15.269  1.00142.91    -0.171 OA
HETATM    2  C2  MIQ B 502       2.602  10.712 -14.743  1.00141.17     0.195 A 
HETATM    3  C3  MIQ B 502       1.510  11.634 -14.113  1.00141.71     0.035 A 
HETATM    4  C4  MIQ B 502       1.417  13.096 -13.889  1.00142.86     0.046 A 
HETATM    5  C5  MIQ B 502       0.267  13.655 -13.277  1.00139.53     0.031 A 
HETATM    6  C12 MIQ B 502      -0.829  12.788 -12.869  1.00139.38     0.030 A 
HETATM    7  C13 MIQ B 502      -0.740  11.386 -13.084  1.00141.18     0.019 A 
HETATM    8  C14 MIQ B 502       0.469  10.805 -13.729  1.00138.77     0.033 A 
HETATM    9  C15 MIQ B 502       0.917   9.360 -14.124  1.00142.10     0.195 A 
HETATM   10  N17 MIQ B 502       2.114   9.485 -14.673  1.00139.42    -0.288 N 
HETATM   11  O16 MIQ B 502       0.197   8.179 -13.931  1.00148.93    -0.171 OA
ENDROOT
BRANCH  10  12
HETATM   12  C18 MIQ B 502       2.853   8.332 -15.151  1.00139.82     0.187 C 
HETATM   13  C19 MIQ B 502       4.201   8.304 -14.420  1.00140.06     0.247 C 
HETATM   14  O25 MIQ B 502       4.220   8.383 -13.244  1.00143.95    -0.271 OA
HETATM   15  N20 MIQ B 502       5.455   8.179 -15.135  1.00140.02    -0.296 N 
HETATM   16  H13 MIQ B 502       6.328   8.169 -14.647  1.00142.77     0.171 HD
HETATM   17  C21 MIQ B 502       5.406   8.095 -16.572  1.00142.22     0.224 C 
HETATM   18  C22 MIQ B 502       4.303   8.873 -17.263  1.00139.52     0.106 C 
HETATM   19  O24 MIQ B 502       6.186   7.447 -17.180  1.00146.13    -0.273 OA
HETATM   20  C23 MIQ B 502       2.994   8.383 -16.671  1.00139.15     0.045 C 
ENDBRANCH  10  12
BRANCH   5  21
HETATM   21  N6  MIQ B 502       0.195  15.087 -13.050  1.00140.95    -0.377 N 
HETATM   22  C7  MIQ B 502      -0.048  15.960 -14.186  1.00142.12     0.149 C 
HETATM   23  C8  MIQ B 502       0.523  17.354 -13.965  1.00144.10     0.187 C 
HETATM   24  O9  MIQ B 502       0.185  17.888 -12.720  1.00148.65    -0.388 OA
HETATM   25  C10 MIQ B 502      -0.411  17.086 -11.743  1.00147.44     0.187 C 
HETATM   26  C11 MIQ B 502      -0.075  15.598 -11.717  1.00144.08     0.149 C 
ENDBRANCH   5  21
TORSDOF 2
ENDMDL
MODEL 4
REMARK VINA RESULT:      -6.9      1.893      2.463
REMARK  2 active torsions:
REMARK  status: ('A' for Active; 'I' for Inactive)
REMARK    1  A    between atoms: C5_5  and  N6_21 
REMARK    2  A    between atoms: C18_14  and  N17_19 
ROOT
HETATM    1  O1  MIQ B 502       1.317  14.946 -14.157  1.00142.91    -0.171 OA
HETATM    2  C2  MIQ B 502       0.503  13.872 -13.791  1.00141.17     0.195 A 
HETATM    3  C3  MIQ B 502       0.871  12.357 -13.898  1.00141.71     0.035 A 
HETATM    4  C4  MIQ B 502       2.075  11.632 -14.369  1.00142.86     0.046 A 
HETATM    5  C5  MIQ B 502       2.114  10.215 -14.343  1.00139.53     0.031 A 
HETATM    6  C12 MIQ B 502       0.964   9.470 -13.850  1.00139.38     0.030 A 
HETATM    7  C13 MIQ B 502      -0.190  10.165 -13.398  1.00141.18     0.019 A 
HETATM    8  C14 MIQ B 502      -0.224  11.653 -13.425  1.00138.77     0.033 A 
HETATM    9  C15 MIQ B 502      -1.277  12.735 -13.021  1.00142.10     0.195 A 
HETATM   10  N17 MIQ B 502      -0.717  13.905 -13.284  1.00139.42    -0.288 N 
HETATM   11  O16 MIQ B 502      -2.549  12.508 -12.493  1.00148.93    -0.171 OA
ENDROOT
BRANCH  10  12
HETATM   12  C18 MIQ B 502      -1.421  15.151 -13.046  1.00139.82     0.187 C 
HETATM   13  C19 MIQ B 502      -1.353  15.980 -14.334  1.00140.06     0.247 C 
HETATM   14  O25 MIQ B 502      -1.671  15.484 -15.356  1.00143.95    -0.271 OA
HETATM   15  N20 MIQ B 502      -0.914  17.361 -14.332  1.00140.02    -0.296 N 
HETATM   16  H13 MIQ B 502      -0.868  17.889 -15.181  1.00142.77     0.171 HD
HETATM   17  C21 MIQ B 502      -0.521  17.942 -13.074  1.00142.22     0.224 C 
HETATM   18  C22 MIQ B 502       0.141  17.015 -12.073  1.00139.52     0.106 C 
HETATM   19  O24 MIQ B 502      -0.712  19.083 -12.834  1.00146.13    -0.273 OA
HETATM   20  C23 MIQ B 502      -0.830  15.873 -11.835  1.00139.15     0.045 C 
ENDBRANCH  10  12
BRANCH   5  21
HETATM   21  N6  MIQ B 502       3.293   9.517 -14.821  1.00140.95    -0.377 N 
HETATM   22  C7  MIQ B 502       4.385  10.299 -15.377  1.00142.12     0.149 C 
HETATM   23  C8  MIQ B 502       5.205   9.497 -16.379  1.00144.10     0.187 C 
HETATM   24  O9  MIQ B 502       5.558   8.232 -15.904  1.00148.65    -0.388 OA
HETATM   25  C10 MIQ B 502       4.989   7.733 -14.729  1.00147.44     0.187 C 
HETATM   26  C11 MIQ B 502       3.574   8.168 -14.363  1.00144.08     0.149 C 
ENDBRANCH   5  21
TORSDOF 2
ENDMDL
MODEL 5
REMARK VINA RESULT:      -6.8      1.567      2.487
REMARK  2 active torsions:
REMARK  status: ('A' for Active; 'I' for Inactive)
REMARK    1  A    between atoms: C5_5  and  N6_21 
REMARK    2  A    between atoms: C18_14  and  N17_19 
ROOT
HETATM    1  O1  MIQ B 502       0.440  10.162 -12.219  1.00142.91    -0.171 OA
HETATM    2  C2  MIQ B 502       0.667  10.821 -13.429  1.00141.17     0.195 A 
HETATM    3  C3  MIQ B 502       1.761  10.462 -14.484  1.00141.71     0.035 A 
HETATM    4  C4  MIQ B 502       2.810   9.416 -14.549  1.00142.86     0.046 A 
HETATM    5  C5  MIQ B 502       3.677   9.340 -15.668  1.00139.53     0.031 A 
HETATM    6  C12 MIQ B 502       3.536  10.294 -16.759  1.00139.38     0.030 A 
HETATM    7  C13 MIQ B 502       2.530  11.296 -16.697  1.00141.18     0.019 A 
HETATM    8  C14 MIQ B 502       1.621  11.370 -15.521  1.00138.77     0.033 A 
HETATM    9  C15 MIQ B 502       0.432  12.298 -15.107  1.00142.10     0.195 A 
HETATM   10  N17 MIQ B 502       0.017  11.857 -13.931  1.00139.42    -0.288 N 
HETATM   11  O16 MIQ B 502      -0.082  13.372 -15.835  1.00148.93    -0.171 OA
ENDROOT
BRANCH  10  12
HETATM   12  C18 MIQ B 502      -1.078  12.497 -13.226  1.00139.82     0.187 C 
HETATM   13  C19 MIQ B 502      -2.259  12.608 -14.198  1.00140.06     0.247 C 
HETATM   14  O25 MIQ B 502      -2.614  11.648 -14.784  1.00143.95    -0.271 OA
HETATM   15  N20 MIQ B 502      -2.957  13.859 -14.413  1.00140.02    -0.296 N 
HETATM   16  H13 MIQ B 502      -3.722  13.919 -15.055  1.00142.77     0.171 HD
HETATM   17  C21 MIQ B 502      -2.498  15.019 -13.693  1.00142.22     0.224 C 
HETATM   18  C22 MIQ B 502      -1.009  15.107 -13.422  1.00139.52     0.106 C 
HETATM   19  O24 MIQ B 502      -3.248  15.856 -13.329  1.00146.13    -0.273 OA
HETATM   20  C23 MIQ B 502      -0.633  13.847 -12.665  1.00139.15     0.045 C 
ENDBRANCH  10  12
BRANCH   5  21
HETATM   21  N6  MIQ B 502       4.709   8.320 -15.712  1.00140.95    -0.377 N 
HETATM   22  C7  MIQ B 502       5.616   8.297 -16.847  1.00142.12     0.149 C 
HETATM   23  C8  MIQ B 502       6.170   6.902 -17.104  1.00144.10     0.187 C 
HETATM   24  O9  MIQ B 502       6.648   6.285 -15.947  1.00148.65    -0.388 OA
HETATM   25  C10 MIQ B 502       6.397   6.844 -14.691  1.00147.44     0.187 C 
HETATM   26  C11 MIQ B 502       5.112   7.643 -14.492  1.00144.08     0.149 C 
ENDBRANCH   5  21
TORSDOF 2
ENDMDL
MODEL 6
REMARK VINA RESULT:      -6.8      2.903      7.881
REMARK  2 active torsions:
REMARK  status: ('A' for Active; 'I' for Inactive)
REMARK    1  A    between atoms: C5_5  and  N6_21 
REMARK    2  A    between atoms: C18_14  and  N17_19 
ROOT
HETATM    1  O1  MIQ B 502       0.391  10.247 -12.399  1.00142.91    -0.171 OA
HETATM    2  C2  MIQ B 502       0.904  10.640 -13.637  1.00141.17     0.195 A 
HETATM    3  C3  MIQ B 502       1.015  12.105 -14.166  1.00141.71     0.035 A 
HETATM    4  C4  MIQ B 502       0.657  13.425 -13.594  1.00142.86     0.046 A 
HETATM    5  C5  MIQ B 502       0.885  14.613 -14.335  1.00139.53     0.031 A 
HETATM    6  C12 MIQ B 502       1.475  14.534 -15.663  1.00139.38     0.030 A 
HETATM    7  C13 MIQ B 502       1.819  13.269 -16.211  1.00141.18     0.019 A 
HETATM    8  C14 MIQ B 502       1.579  12.026 -15.429  1.00138.77     0.033 A 
HETATM    9  C15 MIQ B 502       1.821  10.502 -15.684  1.00142.10     0.195 A 
HETATM   10  N17 MIQ B 502       1.396   9.878 -14.598  1.00139.42    -0.288 N 
HETATM   11  O16 MIQ B 502       2.371   9.924 -16.830  1.00148.93    -0.171 OA
ENDROOT
BRANCH  10  12
HETATM   12  C18 MIQ B 502       1.451   8.432 -14.485  1.00139.82     0.187 C 
HETATM   13  C19 MIQ B 502       0.066   7.944 -14.044  1.00140.06     0.247 C 
HETATM   14  O25 MIQ B 502      -0.888   8.303 -14.639  1.00143.95    -0.271 OA
HETATM   15  N20 MIQ B 502      -0.106   7.048 -12.919  1.00140.02    -0.296 N 
HETATM   16  H13 MIQ B 502      -1.016   6.742 -12.637  1.00142.77     0.171 HD
HETATM   17  C21 MIQ B 502       1.072   6.632 -12.202  1.00142.22     0.224 C 
HETATM   18  C22 MIQ B 502       2.201   7.639 -12.105  1.00139.52     0.106 C 
HETATM   19  O24 MIQ B 502       1.154   5.556 -11.720  1.00146.13    -0.273 OA
HETATM   20  C23 MIQ B 502       2.568   8.016 -13.529  1.00139.15     0.045 C 
ENDBRANCH  10  12
BRANCH   5  21
HETATM   21  N6  MIQ B 502       0.516  15.897 -13.768  1.00140.95    -0.377 N 
HETATM   22  C7  MIQ B 502       0.322  15.993 -12.332  1.00142.12     0.149 C 
HETATM   23  C8  MIQ B 502      -0.639  17.116 -11.961  1.00144.10     0.187 C 
HETATM   24  O9  MIQ B 502      -0.343  18.319 -12.605  1.00148.65    -0.388 OA
HETATM   25  C10 MIQ B 502       0.596  18.356 -13.640  1.00147.44     0.187 C 
HETATM   26  C11 MIQ B 502       0.766  17.118 -14.514  1.00144.08     0.149 C 
ENDBRANCH   5  21
TORSDOF 2
ENDMDL
MODEL 7
REMARK VINA RESULT:      -6.8      5.497     10.124
REMARK  2 active torsions:
REMARK  status: ('A' for Active; 'I' for Inactive)
REMARK    1  A    between atoms: C5_5  and  N6_21 
REMARK    2  A    between atoms: C18_14  and  N17_19 
ROOT
HETATM    1  O1  MIQ B 502      -0.543  17.571 -15.935  1.00142.91    -0.171 OA
HETATM    2  C2  MIQ B 502      -0.332  17.571 -14.554  1.00141.17     0.195 A 
HETATM    3  C3  MIQ B 502       0.056  18.806 -13.680  1.00141.71     0.035 A 
HETATM    4  C4  MIQ B 502       0.301  20.235 -13.987  1.00142.86     0.046 A 
HETATM    5  C5  MIQ B 502       0.645  21.142 -12.953  1.00139.53     0.031 A 
HETATM    6  C12 MIQ B 502       0.758  20.665 -11.582  1.00139.38     0.030 A 
HETATM    7  C13 MIQ B 502       0.523  19.295 -11.287  1.00141.18     0.019 A 
HETATM    8  C14 MIQ B 502       0.160  18.348 -12.377  1.00138.77     0.033 A 
HETATM    9  C15 MIQ B 502      -0.167  16.820 -12.442  1.00142.10     0.195 A 
HETATM   10  N17 MIQ B 502      -0.418  16.554 -13.713  1.00139.42    -0.288 N 
HETATM   11  O16 MIQ B 502      -0.186  15.923 -11.373  1.00148.93    -0.171 OA
ENDROOT
BRANCH  10  12
HETATM   12  C18 MIQ B 502      -0.748  15.212 -14.156  1.00139.82     0.187 C 
HETATM   13  C19 MIQ B 502      -1.895  14.699 -13.277  1.00140.06     0.247 C 
HETATM   14  O25 MIQ B 502      -2.858  15.366 -13.139  1.00143.95    -0.271 OA
HETATM   15  N20 MIQ B 502      -1.832  13.412 -12.614  1.00140.02    -0.296 N 
HETATM   16  H13 MIQ B 502      -2.585  13.092 -12.037  1.00142.77     0.171 HD
HETATM   17  C21 MIQ B 502      -0.642  12.621 -12.789  1.00142.22     0.224 C 
HETATM   18  C22 MIQ B 502       0.664  13.377 -12.933  1.00139.52     0.106 C 
HETATM   19  O24 MIQ B 502      -0.685  11.440 -12.824  1.00146.13    -0.273 OA
HETATM   20  C23 MIQ B 502       0.490  14.318 -14.111  1.00139.15     0.045 C 
ENDBRANCH  10  12
BRANCH   5  21
HETATM   21  N6  MIQ B 502       0.896  22.536 -13.270  1.00140.95    -0.377 N 
HETATM   22  C7  MIQ B 502       1.212  22.890 -14.643  1.00142.12     0.149 C 
HETATM   23  C8  MIQ B 502       2.049  24.160 -14.726  1.00144.10     0.187 C 
HETATM   24  O9  MIQ B 502       1.538  25.198 -13.944  1.00148.65    -0.388 OA
HETATM   25  C10 MIQ B 502       0.509  24.956 -13.030  1.00147.44     0.187 C 
HETATM   26  C11 MIQ B 502       0.419  23.580 -12.380  1.00144.08     0.149 C 
ENDBRANCH   5  21
TORSDOF 2
ENDMDL
MODEL 8
REMARK VINA RESULT:      -6.7      2.593      3.867
REMARK  2 active torsions:
REMARK  status: ('A' for Active; 'I' for Inactive)
REMARK    1  A    between atoms: C5_5  and  N6_21 
REMARK    2  A    between atoms: C18_14  and  N17_19 
ROOT
HETATM    1  O1  MIQ B 502       0.521  14.507 -12.332  1.00142.91    -0.171 OA
HETATM    2  C2  MIQ B 502      -0.352  14.033 -13.314  1.00141.17     0.195 A 
HETATM    3  C3  MIQ B 502      -0.454  12.561 -13.825  1.00141.71     0.035 A 
HETATM    4  C4  MIQ B 502       0.260  11.309 -13.475  1.00142.86     0.046 A 
HETATM    5  C5  MIQ B 502      -0.063  10.094 -14.129  1.00139.53     0.031 A 
HETATM    6  C12 MIQ B 502      -1.103  10.075 -15.148  1.00139.38     0.030 A 
HETATM    7  C13 MIQ B 502      -1.788  11.274 -15.482  1.00141.18     0.019 A 
HETATM    8  C14 MIQ B 502      -1.446  12.547 -14.791  1.00138.77     0.033 A 
HETATM    9  C15 MIQ B 502      -1.964  14.020 -14.881  1.00142.10     0.195 A 
HETATM   10  N17 MIQ B 502      -1.258  14.709 -13.999  1.00139.42    -0.288 N 
HETATM   11  O16 MIQ B 502      -2.966  14.504 -15.724  1.00148.93    -0.171 OA
ENDROOT
BRANCH  10  12
HETATM   12  C18 MIQ B 502      -1.459  16.135 -13.817  1.00139.82     0.187 C 
HETATM   13  C19 MIQ B 502      -0.101  16.825 -13.993  1.00140.06     0.247 C 
HETATM   14  O25 MIQ B 502       0.544  16.591 -14.953  1.00143.95    -0.271 OA
HETATM   15  N20 MIQ B 502       0.411  17.763 -13.016  1.00140.02    -0.296 N 
HETATM   16  H13 MIQ B 502       1.302  18.202 -13.139  1.00142.77     0.171 HD
HETATM   17  C21 MIQ B 502      -0.389  18.025 -11.847  1.00142.22     0.224 C 
HETATM   18  C22 MIQ B 502      -1.215  16.870 -11.315  1.00139.52     0.106 C 
HETATM   19  O24 MIQ B 502      -0.404  19.089 -11.334  1.00146.13    -0.273 OA
HETATM   20  C23 MIQ B 502      -2.102  16.411 -12.458  1.00139.15     0.045 C 
ENDBRANCH  10  12
BRANCH   5  21
HETATM   21  N6  MIQ B 502       0.654   8.879 -13.787  1.00140.95    -0.377 N 
HETATM   22  C7  MIQ B 502       2.106   8.908 -13.783  1.00142.12     0.149 C 
HETATM   23  C8  MIQ B 502       2.703   7.532 -14.053  1.00144.10     0.187 C 
HETATM   24  O9  MIQ B 502       2.124   6.527 -13.276  1.00148.65    -0.388 OA
HETATM   25  C10 MIQ B 502       0.971   6.784 -12.531  1.00147.44     0.187 C 
HETATM   26  C11 MIQ B 502      -0.018   7.822 -13.051  1.00144.08     0.149 C 
ENDBRANCH   5  21
TORSDOF 2
ENDMDL
MODEL 9
REMARK VINA RESULT:      -6.6      2.736      4.155
REMARK  2 active torsions:
REMARK  status: ('A' for Active; 'I' for Inactive)
REMARK    1  A    between atoms: C5_5  and  N6_21 
REMARK    2  A    between atoms: C18_14  and  N17_19 
ROOT
HETATM    1  O1  MIQ B 502       0.870  14.692 -11.480  1.00142.91    -0.171 OA
HETATM    2  C2  MIQ B 502       0.083  14.418 -12.601  1.00141.17     0.195 A 
HETATM    3  C3  MIQ B 502      -0.085  13.027 -13.291  1.00141.71     0.035 A 
HETATM    4  C4  MIQ B 502       0.470  11.680 -13.018  1.00142.86     0.046 A 
HETATM    5  C5  MIQ B 502       0.122  10.581 -13.843  1.00139.53     0.031 A 
HETATM    6  C12 MIQ B 502      -0.785  10.778 -14.965  1.00139.38     0.030 A 
HETATM    7  C13 MIQ B 502      -1.318  12.069 -15.226  1.00141.18     0.019 A 
HETATM    8  C14 MIQ B 502      -0.951  13.218 -14.355  1.00138.77     0.033 A 
HETATM    9  C15 MIQ B 502      -1.324  14.737 -14.324  1.00142.10     0.195 A 
HETATM   10  N17 MIQ B 502      -0.672  15.252 -13.295  1.00139.42    -0.288 N 
HETATM   11  O16 MIQ B 502      -2.171  15.407 -15.208  1.00148.93    -0.171 OA
ENDROOT
BRANCH  10  12
HETATM   12  C18 MIQ B 502      -0.768  16.662 -12.966  1.00139.82     0.187 C 
HETATM   13  C19 MIQ B 502      -2.255  17.034 -12.933  1.00140.06     0.247 C 
HETATM   14  O25 MIQ B 502      -2.998  16.380 -12.291  1.00143.95    -0.271 OA
HETATM   15  N20 MIQ B 502      -2.775  18.171 -13.665  1.00140.02    -0.296 N 
HETATM   16  H13 MIQ B 502      -3.749  18.399 -13.640  1.00142.77     0.171 HD
HETATM   17  C21 MIQ B 502      -1.850  18.947 -14.450  1.00142.22     0.224 C 
HETATM   18  C22 MIQ B 502      -0.699  18.194 -15.089  1.00139.52     0.106 C 
HETATM   19  O24 MIQ B 502      -1.981  20.114 -14.584  1.00146.13    -0.273 OA
HETATM   20  C23 MIQ B 502       0.038  17.496 -13.961  1.00139.15     0.045 C 
ENDBRANCH  10  12
BRANCH   5  21
HETATM   21  N6  MIQ B 502       0.685   9.270 -13.573  1.00140.95    -0.377 N 
HETATM   22  C7  MIQ B 502      -0.219   8.141 -13.436  1.00142.12     0.149 C 
HETATM   23  C8  MIQ B 502       0.370   7.044 -12.559  1.00144.10     0.187 C 
HETATM   24  O9  MIQ B 502       1.683   6.718 -12.905  1.00148.65    -0.388 OA
HETATM   25  C10 MIQ B 502       2.395   7.513 -13.807  1.00147.44     0.187 C 
HETATM   26  C11 MIQ B 502       2.081   9.004 -13.871  1.00144.08     0.149 C 
ENDBRANCH   5  21
TORSDOF 2
ENDMDL
