MODEL 1
REMARK VINA RESULT:      -6.9      0.000      0.000
REMARK  2 active torsions:
REMARK  status: ('A' for Active; 'I' for Inactive)
REMARK    1  A    between atoms: C5_5  and  N6_21 
REMARK    2  A    between atoms: C18_14  and  N17_19 
ROOT
HETATM    1  O1  MIQ B 502      -9.933   8.304  11.331  1.00142.91    -0.171 OA
HETATM    2  C2  MIQ B 502     -10.161   8.843  12.599  1.00141.17     0.195 A 
HETATM    3  C3  MIQ B 502      -9.330   8.550  13.889  1.00141.71     0.035 A 
HETATM    4  C4  MIQ B 502      -8.150   7.697  14.169  1.00142.86     0.046 A 
HETATM    5  C5  MIQ B 502      -7.604   7.636  15.476  1.00139.53     0.031 A 
HETATM    6  C12 MIQ B 502      -8.206   8.416  16.548  1.00139.38     0.030 A 
HETATM    7  C13 MIQ B 502      -9.337   9.234  16.279  1.00141.18     0.019 A 
HETATM    8  C14 MIQ B 502      -9.904   9.296  14.905  1.00138.77     0.033 A 
HETATM    9  C15 MIQ B 502     -11.098  10.058  14.242  1.00142.10     0.195 A 
HETATM   10  N17 MIQ B 502     -11.098   9.699  12.969  1.00139.42    -0.288 N 
HETATM   11  O16 MIQ B 502     -11.982  10.935  14.872  1.00148.93    -0.171 OA
ENDROOT
BRANCH  10  12
HETATM   12  C18 MIQ B 502     -12.091  10.205  12.039  1.00139.82     0.187 C 
HETATM   13  C19 MIQ B 502     -12.715   9.002  11.321  1.00140.06     0.247 C 
HETATM   14  O25 MIQ B 502     -13.129   8.101  11.960  1.00143.95    -0.271 OA
HETATM   15  N20 MIQ B 502     -12.817   8.944   9.877  1.00140.02    -0.296 N 
HETATM   16  H13 MIQ B 502     -13.221   8.150   9.420  1.00142.77     0.171 HD
HETATM   17  C21 MIQ B 502     -12.296  10.051   9.119  1.00142.22     0.224 C 
HETATM   18  C22 MIQ B 502     -11.078  10.753   9.688  1.00139.52     0.106 C 
HETATM   19  O24 MIQ B 502     -12.797  10.397   8.106  1.00146.13    -0.273 OA
HETATM   20  C23 MIQ B 502     -11.458  11.214  11.083  1.00139.15     0.045 C 
ENDBRANCH  10  12
BRANCH   5  21
HETATM   21  N6  MIQ B 502      -6.458   6.785  15.739  1.00140.95    -0.377 N 
HETATM   22  C7  MIQ B 502      -5.184   7.128  15.129  1.00142.12     0.149 C 
HETATM   23  C8  MIQ B 502      -4.298   5.903  14.938  1.00144.10     0.187 C 
HETATM   24  O9  MIQ B 502      -4.217   5.107  16.082  1.00148.65    -0.388 OA
HETATM   25  C10 MIQ B 502      -5.067   5.338  17.167  1.00147.44     0.187 C 
HETATM   26  C11 MIQ B 502      -6.455   5.909  16.897  1.00144.08     0.149 C 
ENDBRANCH   5  21
TORSDOF 2
ENDMDL
MODEL 2
REMARK VINA RESULT:      -6.9      4.349      7.375
REMARK  2 active torsions:
REMARK  status: ('A' for Active; 'I' for Inactive)
REMARK    1  A    between atoms: C5_5  and  N6_21 
REMARK    2  A    between atoms: C18_14  and  N17_19 
ROOT
HETATM    1  O1  MIQ B 502      -9.983  11.949   5.842  1.00142.91    -0.171 OA
HETATM    2  C2  MIQ B 502     -11.153  12.069   6.594  1.00141.17     0.195 A 
HETATM    3  C3  MIQ B 502     -11.473  11.322   7.928  1.00141.71     0.035 A 
HETATM    4  C4  MIQ B 502     -10.722  10.347   8.755  1.00142.86     0.046 A 
HETATM    5  C5  MIQ B 502     -11.289   9.833   9.949  1.00139.53     0.031 A 
HETATM    6  C12 MIQ B 502     -12.616  10.267  10.364  1.00139.38     0.030 A 
HETATM    7  C13 MIQ B 502     -13.335  11.203   9.572  1.00141.18     0.019 A 
HETATM    8  C14 MIQ B 502     -12.733  11.741   8.321  1.00138.77     0.033 A 
HETATM    9  C15 MIQ B 502     -13.199  12.754   7.225  1.00142.10     0.195 A 
HETATM   10  N17 MIQ B 502     -12.211  12.822   6.348  1.00139.42    -0.288 N 
HETATM   11  O16 MIQ B 502     -14.413  13.441   7.184  1.00148.93    -0.171 OA
ENDROOT
BRANCH  10  12
HETATM   12  C18 MIQ B 502     -12.301  13.665   5.170  1.00139.82     0.187 C 
HETATM   13  C19 MIQ B 502     -11.895  12.820   3.957  1.00140.06     0.247 C 
HETATM   14  O25 MIQ B 502     -12.409  11.771   3.788  1.00143.95    -0.271 OA
HETATM   15  N20 MIQ B 502     -10.901  13.275   3.007  1.00140.02    -0.296 N 
HETATM   16  H13 MIQ B 502     -10.640  12.710   2.223  1.00142.77     0.171 HD
HETATM   17  C21 MIQ B 502     -10.280  14.553   3.240  1.00142.22     0.224 C 
HETATM   18  C22 MIQ B 502     -10.075  14.956   4.688  1.00139.52     0.106 C 
HETATM   19  O24 MIQ B 502      -9.954  15.254   2.346  1.00146.13    -0.273 OA
HETATM   20  C23 MIQ B 502     -11.442  14.917   5.345  1.00139.15     0.045 C 
ENDBRANCH  10  12
BRANCH   5  21
HETATM   21  N6  MIQ B 502     -10.550   8.867  10.741  1.00140.95    -0.377 N 
HETATM   22  C7  MIQ B 502      -9.108   8.793  10.577  1.00142.12     0.149 C 
HETATM   23  C8  MIQ B 502      -8.567   7.411  10.920  1.00144.10     0.187 C 
HETATM   24  O9  MIQ B 502      -9.056   6.922  12.133  1.00148.65    -0.388 OA
HETATM   25  C10 MIQ B 502     -10.103   7.575  12.789  1.00147.44     0.187 C 
HETATM   26  C11 MIQ B 502     -11.136   8.321  11.952  1.00144.08     0.149 C 
ENDBRANCH   5  21
TORSDOF 2
ENDMDL
MODEL 3
REMARK VINA RESULT:      -6.8     10.187     14.092
REMARK  2 active torsions:
REMARK  status: ('A' for Active; 'I' for Inactive)
REMARK    1  A    between atoms: C5_5  and  N6_21 
REMARK    2  A    between atoms: C18_14  and  N17_19 
ROOT
HETATM    1  O1  MIQ B 502     -17.046  11.716   2.915  1.00142.91    -0.171 OA
HETATM    2  C2  MIQ B 502     -16.400  12.299   1.823  1.00141.17     0.195 A 
HETATM    3  C3  MIQ B 502     -14.915  12.783   1.780  1.00141.71     0.035 A 
HETATM    4  C4  MIQ B 502     -13.814  12.783   2.773  1.00142.86     0.046 A 
HETATM    5  C5  MIQ B 502     -12.541  13.304   2.431  1.00139.53     0.031 A 
HETATM    6  C12 MIQ B 502     -12.314  13.840   1.096  1.00139.38     0.030 A 
HETATM    7  C13 MIQ B 502     -13.369  13.839   0.144  1.00141.18     0.019 A 
HETATM    8  C14 MIQ B 502     -14.703  13.289   0.508  1.00138.77     0.033 A 
HETATM    9  C15 MIQ B 502     -16.064  13.117  -0.243  1.00142.10     0.195 A 
HETATM   10  N17 MIQ B 502     -16.891  12.554   0.623  1.00139.42    -0.288 N 
HETATM   11  O16 MIQ B 502     -16.344  13.488  -1.559  1.00148.93    -0.171 OA
ENDROOT
BRANCH  10  12
HETATM   12  C18 MIQ B 502     -18.267  12.257   0.272  1.00139.82     0.187 C 
HETATM   13  C19 MIQ B 502     -19.171  12.932   1.310  1.00140.06     0.247 C 
HETATM   14  O25 MIQ B 502     -19.016  14.076   1.551  1.00143.95    -0.271 OA
HETATM   15  N20 MIQ B 502     -20.216  12.205   2.001  1.00140.02    -0.296 N 
HETATM   16  H13 MIQ B 502     -20.795  12.656   2.681  1.00142.77     0.171 HD
HETATM   17  C21 MIQ B 502     -20.379  10.807   1.697  1.00142.22     0.224 C 
HETATM   18  C22 MIQ B 502     -19.120  10.032   1.358  1.00139.52     0.106 C 
HETATM   19  O24 MIQ B 502     -21.443  10.292   1.706  1.00146.13    -0.273 OA
HETATM   20  C23 MIQ B 502     -18.478  10.746   0.183  1.00139.15     0.045 C 
ENDBRANCH  10  12
BRANCH   5  21
HETATM   21  N6  MIQ B 502     -11.476  13.311   3.417  1.00140.95    -0.377 N 
HETATM   22  C7  MIQ B 502     -11.161  12.073   4.108  1.00142.12     0.149 C 
HETATM   23  C8  MIQ B 502     -10.549  12.326   5.480  1.00144.10     0.187 C 
HETATM   24  O9  MIQ B 502      -9.522  13.272   5.450  1.00148.65    -0.388 OA
HETATM   25  C10 MIQ B 502      -9.293  14.033   4.301  1.00147.44     0.187 C 
HETATM   26  C11 MIQ B 502     -10.478  14.366   3.399  1.00144.08     0.149 C 
ENDBRANCH   5  21
TORSDOF 2
ENDMDL
MODEL 4
REMARK VINA RESULT:      -6.8      4.738      8.093
REMARK  2 active torsions:
REMARK  status: ('A' for Active; 'I' for Inactive)
REMARK    1  A    between atoms: C5_5  and  N6_21 
REMARK    2  A    between atoms: C18_14  and  N17_19 
ROOT
HETATM    1  O1  MIQ B 502     -10.040  12.503   5.657  1.00142.91    -0.171 OA
HETATM    2  C2  MIQ B 502     -11.272  12.641   6.299  1.00141.17     0.195 A 
HETATM    3  C3  MIQ B 502     -11.723  11.902   7.599  1.00141.71     0.035 A 
HETATM    4  C4  MIQ B 502     -11.065  10.918   8.491  1.00142.86     0.046 A 
HETATM    5  C5  MIQ B 502     -11.746  10.415   9.629  1.00139.53     0.031 A 
HETATM    6  C12 MIQ B 502     -13.098  10.869   9.922  1.00139.38     0.030 A 
HETATM    7  C13 MIQ B 502     -13.728  11.814   9.067  1.00141.18     0.019 A 
HETATM    8  C14 MIQ B 502     -13.008  12.340   7.876  1.00138.77     0.033 A 
HETATM    9  C15 MIQ B 502     -13.357  13.358   6.741  1.00142.10     0.195 A 
HETATM   10  N17 MIQ B 502     -12.292  13.410   5.957  1.00139.42    -0.288 N 
HETATM   11  O16 MIQ B 502     -14.552  14.062   6.589  1.00148.93    -0.171 OA
ENDROOT
BRANCH  10  12
HETATM   12  C18 MIQ B 502     -12.262  14.252   4.776  1.00139.82     0.187 C 
HETATM   13  C19 MIQ B 502     -11.825  13.381   3.592  1.00140.06     0.247 C 
HETATM   14  O25 MIQ B 502     -12.382  12.360   3.391  1.00143.95    -0.271 OA
HETATM   15  N20 MIQ B 502     -10.750  13.779   2.707  1.00140.02    -0.296 N 
HETATM   16  H13 MIQ B 502     -10.470  13.198   1.941  1.00142.77     0.171 HD
HETATM   17  C21 MIQ B 502     -10.079  15.024   2.979  1.00142.22     0.224 C 
HETATM   18  C22 MIQ B 502      -9.944  15.422   4.436  1.00139.52     0.106 C 
HETATM   19  O24 MIQ B 502      -9.659  15.703   2.107  1.00146.13    -0.273 OA
HETATM   20  C23 MIQ B 502     -11.351  15.457   5.005  1.00139.15     0.045 C 
ENDBRANCH  10  12
BRANCH   5  21
HETATM   21  N6  MIQ B 502     -11.096   9.440  10.486  1.00140.95    -0.377 N 
HETATM   22  C7  MIQ B 502     -11.923   8.595  11.330  1.00142.12     0.149 C 
HETATM   23  C8  MIQ B 502     -11.176   8.127  12.572  1.00144.10     0.187 C 
HETATM   24  O9  MIQ B 502      -9.907   7.622  12.284  1.00148.65    -0.388 OA
HETATM   25  C10 MIQ B 502      -9.355   7.778  11.010  1.00147.44     0.187 C 
HETATM   26  C11 MIQ B 502      -9.740   9.008  10.195  1.00144.08     0.149 C 
ENDBRANCH   5  21
TORSDOF 2
ENDMDL
MODEL 5
REMARK VINA RESULT:      -6.7      6.089     12.487
REMARK  2 active torsions:
REMARK  status: ('A' for Active; 'I' for Inactive)
REMARK    1  A    between atoms: C5_5  and  N6_21 
REMARK    2  A    between atoms: C18_14  and  N17_19 
ROOT
HETATM    1  O1  MIQ B 502     -15.318  11.027   6.671  1.00142.91    -0.171 OA
HETATM    2  C2  MIQ B 502     -14.038  11.413   6.266  1.00141.17     0.195 A 
HETATM    3  C3  MIQ B 502     -13.647  11.985   4.867  1.00141.71     0.035 A 
HETATM    4  C4  MIQ B 502     -14.418  12.282   3.636  1.00142.86     0.046 A 
HETATM    5  C5  MIQ B 502     -13.768  12.813   2.493  1.00139.53     0.031 A 
HETATM    6  C12 MIQ B 502     -12.335  13.068   2.531  1.00139.38     0.030 A 
HETATM    7  C13 MIQ B 502     -11.596  12.785   3.711  1.00141.18     0.019 A 
HETATM    8  C14 MIQ B 502     -12.285  12.230   4.908  1.00138.77     0.033 A 
HETATM    9  C15 MIQ B 502     -11.827  11.807   6.342  1.00142.10     0.195 A 
HETATM   10  N17 MIQ B 502     -12.915  11.382   6.963  1.00139.42    -0.288 N 
HETATM   11  O16 MIQ B 502     -10.530  11.865   6.857  1.00148.93    -0.171 OA
ENDROOT
BRANCH  10  12
HETATM   12  C18 MIQ B 502     -12.866  10.890   8.327  1.00139.82     0.187 C 
HETATM   13  C19 MIQ B 502     -12.168  11.954   9.183  1.00140.06     0.247 C 
HETATM   14  O25 MIQ B 502     -12.542  13.071   9.131  1.00143.95    -0.271 OA
HETATM   15  N20 MIQ B 502     -11.063  11.624  10.060  1.00140.02    -0.296 N 
HETATM   16  H13 MIQ B 502     -10.612  12.329  10.609  1.00142.77     0.171 HD
HETATM   17  C21 MIQ B 502     -10.617  10.255  10.098  1.00142.22     0.224 C 
HETATM   18  C22 MIQ B 502     -10.718   9.470   8.805  1.00139.52     0.106 C 
HETATM   19  O24 MIQ B 502     -10.199   9.769  11.091  1.00146.13    -0.273 OA
HETATM   20  C23 MIQ B 502     -12.173   9.529   8.377  1.00139.15     0.045 C 
ENDBRANCH  10  12
BRANCH   5  21
HETATM   21  N6  MIQ B 502     -14.532  13.085   1.290  1.00140.95    -0.377 N 
HETATM   22  C7  MIQ B 502     -13.817  13.470   0.085  1.00142.12     0.149 C 
HETATM   23  C8  MIQ B 502     -14.680  14.315  -0.843  1.00144.10     0.187 C 
HETATM   24  O9  MIQ B 502     -15.949  13.771  -1.050  1.00148.65    -0.388 OA
HETATM   25  C10 MIQ B 502     -16.394  12.697  -0.275  1.00147.44     0.187 C 
HETATM   26  C11 MIQ B 502     -15.883  12.569   1.156  1.00144.08     0.149 C 
ENDBRANCH   5  21
TORSDOF 2
ENDMDL
MODEL 6
REMARK VINA RESULT:      -6.6      8.887     13.885
REMARK  2 active torsions:
REMARK  status: ('A' for Active; 'I' for Inactive)
REMARK    1  A    between atoms: C5_5  and  N6_21 
REMARK    2  A    between atoms: C18_14  and  N17_19 
ROOT
HETATM    1  O1  MIQ B 502     -14.400  14.369   6.082  1.00142.91    -0.171 OA
HETATM    2  C2  MIQ B 502     -13.258  14.381   5.278  1.00141.17     0.195 A 
HETATM    3  C3  MIQ B 502     -13.222  14.228   3.724  1.00141.71     0.035 A 
HETATM    4  C4  MIQ B 502     -14.271  14.043   2.694  1.00142.86     0.046 A 
HETATM    5  C5  MIQ B 502     -13.920  13.936   1.325  1.00139.53     0.031 A 
HETATM    6  C12 MIQ B 502     -12.521  14.008   0.930  1.00139.38     0.030 A 
HETATM    7  C13 MIQ B 502     -11.515  14.186   1.917  1.00141.18     0.019 A 
HETATM    8  C14 MIQ B 502     -11.889  14.301   3.353  1.00138.77     0.033 A 
HETATM    9  C15 MIQ B 502     -11.093  14.500   4.684  1.00142.10     0.195 A 
HETATM   10  N17 MIQ B 502     -11.997  14.525   5.649  1.00139.42    -0.288 N 
HETATM   11  O16 MIQ B 502      -9.710  14.623   4.820  1.00148.93    -0.171 OA
ENDROOT
BRANCH  10  12
HETATM   12  C18 MIQ B 502     -11.615  14.681   7.041  1.00139.82     0.187 C 
HETATM   13  C19 MIQ B 502     -12.250  13.531   7.832  1.00140.06     0.247 C 
HETATM   14  O25 MIQ B 502     -12.103  12.423   7.456  1.00143.95    -0.271 OA
HETATM   15  N20 MIQ B 502     -13.024  13.767   9.034  1.00140.02    -0.296 N 
HETATM   16  H13 MIQ B 502     -13.439  13.008   9.538  1.00142.77     0.171 HD
HETATM   17  C21 MIQ B 502     -13.199  15.130   9.466  1.00142.22     0.224 C 
HETATM   18  C22 MIQ B 502     -13.291  16.183   8.379  1.00139.52     0.106 C 
HETATM   19  O24 MIQ B 502     -13.263  15.410  10.613  1.00146.13    -0.273 OA
HETATM   20  C23 MIQ B 502     -12.023  16.061   7.553  1.00139.15     0.045 C 
ENDBRANCH  10  12
BRANCH   5  21
HETATM   21  N6  MIQ B 502     -14.957  13.740   0.328  1.00140.95    -0.377 N 
HETATM   22  C7  MIQ B 502     -16.317  13.498   0.778  1.00142.12     0.149 C 
HETATM   23  C8  MIQ B 502     -17.121  12.703  -0.242  1.00144.10     0.187 C 
HETATM   24  O9  MIQ B 502     -17.003  13.207  -1.539  1.00148.65    -0.388 OA
HETATM   25  C10 MIQ B 502     -16.051  14.186  -1.834  1.00147.44     0.187 C 
HETATM   26  C11 MIQ B 502     -14.753  14.206  -1.033  1.00144.08     0.149 C 
ENDBRANCH   5  21
TORSDOF 2
ENDMDL
MODEL 7
REMARK VINA RESULT:      -6.6      3.522      4.914
REMARK  2 active torsions:
REMARK  status: ('A' for Active; 'I' for Inactive)
REMARK    1  A    between atoms: C5_5  and  N6_21 
REMARK    2  A    between atoms: C18_14  and  N17_19 
ROOT
HETATM    1  O1  MIQ B 502     -10.449  10.791   7.191  1.00142.91    -0.171 OA
HETATM    2  C2  MIQ B 502     -10.978  10.876   8.481  1.00141.17     0.195 A 
HETATM    3  C3  MIQ B 502     -10.508  10.059   9.727  1.00141.71     0.035 A 
HETATM    4  C4  MIQ B 502      -9.458   9.034   9.936  1.00142.86     0.046 A 
HETATM    5  C5  MIQ B 502      -9.263   8.460  11.217  1.00139.53     0.031 A 
HETATM    6  C12 MIQ B 502     -10.099   8.879  12.333  1.00139.38     0.030 A 
HETATM    7  C13 MIQ B 502     -11.105   9.863  12.133  1.00141.18     0.019 A 
HETATM    8  C14 MIQ B 502     -11.304  10.464  10.786  1.00138.77     0.033 A 
HETATM    9  C15 MIQ B 502     -12.273  11.540  10.195  1.00142.10     0.195 A 
HETATM   10  N17 MIQ B 502     -11.959  11.650   8.914  1.00139.42    -0.288 N 
HETATM   11  O16 MIQ B 502     -13.268  12.237  10.882  1.00148.93    -0.171 OA
ENDROOT
BRANCH  10  12
HETATM   12  C18 MIQ B 502     -12.672  12.557   8.035  1.00139.82     0.187 C 
HETATM   13  C19 MIQ B 502     -13.114  11.762   6.801  1.00140.06     0.247 C 
HETATM   14  O25 MIQ B 502     -13.694  10.745   6.948  1.00143.95    -0.271 OA
HETATM   15  N20 MIQ B 502     -12.845  12.226   5.455  1.00140.02    -0.296 N 
HETATM   16  H13 MIQ B 502     -13.133  11.694   4.658  1.00142.77     0.171 HD
HETATM   17  C21 MIQ B 502     -12.126  13.465   5.301  1.00142.22     0.224 C 
HETATM   18  C22 MIQ B 502     -11.081  13.782   6.353  1.00139.52     0.106 C 
HETATM   19  O24 MIQ B 502     -12.346  14.199   4.401  1.00146.13    -0.273 OA
HETATM   20  C23 MIQ B 502     -11.797  13.762   7.692  1.00139.15     0.045 C 
ENDBRANCH  10  12
BRANCH   5  21
HETATM   21  N6  MIQ B 502      -8.240   7.446  11.405  1.00140.95    -0.377 N 
HETATM   22  C7  MIQ B 502      -8.613   6.049  11.264  1.00142.12     0.149 C 
HETATM   23  C8  MIQ B 502      -7.706   5.134  12.077  1.00144.10     0.187 C 
HETATM   24  O9  MIQ B 502      -6.350   5.411  11.894  1.00148.65    -0.388 OA
HETATM   25  C10 MIQ B 502      -5.948   6.564  11.215  1.00147.44     0.187 C 
HETATM   26  C11 MIQ B 502      -6.837   7.802  11.290  1.00144.08     0.149 C 
ENDBRANCH   5  21
TORSDOF 2
ENDMDL
MODEL 8
REMARK VINA RESULT:      -6.5      3.551      6.538
REMARK  2 active torsions:
REMARK  status: ('A' for Active; 'I' for Inactive)
REMARK    1  A    between atoms: C5_5  and  N6_21 
REMARK    2  A    between atoms: C18_14  and  N17_19 
ROOT
HETATM    1  O1  MIQ B 502      -8.863   8.977  17.606  1.00142.91    -0.171 OA
HETATM    2  C2  MIQ B 502      -9.737   9.395  16.600  1.00141.17     0.195 A 
HETATM    3  C3  MIQ B 502      -9.674   8.984  15.095  1.00141.71     0.035 A 
HETATM    4  C4  MIQ B 502      -8.767   8.108  14.314  1.00142.86     0.046 A 
HETATM    5  C5  MIQ B 502      -8.970   7.925  12.923  1.00139.53     0.031 A 
HETATM    6  C12 MIQ B 502     -10.075   8.601  12.259  1.00139.38     0.030 A 
HETATM    7  C13 MIQ B 502     -10.944   9.440  13.007  1.00141.18     0.019 A 
HETATM    8  C14 MIQ B 502     -10.728   9.627  14.467  1.00138.77     0.033 A 
HETATM    9  C15 MIQ B 502     -11.451  10.440  15.590  1.00142.10     0.195 A 
HETATM   10  N17 MIQ B 502     -10.780  10.200  16.705  1.00139.42    -0.288 N 
HETATM   11  O16 MIQ B 502     -12.574  11.255  15.441  1.00148.93    -0.171 OA
ENDROOT
BRANCH  10  12
HETATM   12  C18 MIQ B 502     -11.161  10.810  17.965  1.00139.82     0.187 C 
HETATM   13  C19 MIQ B 502      -9.904  11.436  18.582  1.00140.06     0.247 C 
HETATM   14  O25 MIQ B 502      -9.240  12.158  17.927  1.00143.95    -0.271 OA
HETATM   15  N20 MIQ B 502      -9.512  11.170  19.950  1.00140.02    -0.296 N 
HETATM   16  H13 MIQ B 502      -8.685  11.579  20.339  1.00142.77     0.171 HD
HETATM   17  C21 MIQ B 502     -10.333  10.277  20.726  1.00142.22     0.224 C 
HETATM   18  C22 MIQ B 502     -11.001   9.141  19.976  1.00139.52     0.106 C 
HETATM   19  O24 MIQ B 502     -10.482  10.428  21.889  1.00146.13    -0.273 OA
HETATM   20  C23 MIQ B 502     -11.827   9.778  18.874  1.00139.15     0.045 C 
ENDBRANCH  10  12
BRANCH   5  21
HETATM   21  N6  MIQ B 502      -8.066   7.076  12.169  1.00140.95    -0.377 N 
HETATM   22  C7  MIQ B 502      -6.688   6.960  12.614  1.00142.12     0.149 C 
HETATM   23  C8  MIQ B 502      -5.747   6.619  11.466  1.00144.10     0.187 C 
HETATM   24  O9  MIQ B 502      -6.210   5.564  10.678  1.00148.65    -0.388 OA
HETATM   25  C10 MIQ B 502      -7.510   5.079  10.839  1.00147.44     0.187 C 
HETATM   26  C11 MIQ B 502      -8.598   6.046  11.295  1.00144.08     0.149 C 
ENDBRANCH   5  21
TORSDOF 2
ENDMDL
MODEL 9
REMARK VINA RESULT:      -6.5      1.150      2.255
REMARK  2 active torsions:
REMARK  status: ('A' for Active; 'I' for Inactive)
REMARK    1  A    between atoms: C5_5  and  N6_21 
REMARK    2  A    between atoms: C18_14  and  N17_19 
ROOT
HETATM    1  O1  MIQ B 502     -10.787   9.592  15.101  1.00142.91    -0.171 OA
HETATM    2  C2  MIQ B 502     -10.176   9.042  13.972  1.00141.17     0.195 A 
HETATM    3  C3  MIQ B 502      -8.891   8.154  13.959  1.00141.71     0.035 A 
HETATM    4  C4  MIQ B 502      -7.990   7.650  15.023  1.00142.86     0.046 A 
HETATM    5  C5  MIQ B 502      -6.873   6.842  14.692  1.00139.53     0.031 A 
HETATM    6  C12 MIQ B 502      -6.612   6.505  13.300  1.00139.38     0.030 A 
HETATM    7  C13 MIQ B 502      -7.476   6.987  12.280  1.00141.18     0.019 A 
HETATM    8  C14 MIQ B 502      -8.648   7.834  12.633  1.00138.77     0.033 A 
HETATM    9  C15 MIQ B 502      -9.790   8.526  11.819  1.00142.10     0.195 A 
HETATM   10  N17 MIQ B 502     -10.547   9.148  12.708  1.00139.42    -0.288 N 
HETATM   11  O16 MIQ B 502      -9.967   8.493  10.435  1.00148.93    -0.171 OA
ENDROOT
BRANCH  10  12
HETATM   12  C18 MIQ B 502     -11.708   9.920  12.305  1.00139.82     0.187 C 
HETATM   13  C19 MIQ B 502     -12.603   9.010  11.456  1.00140.06     0.247 C 
HETATM   14  O25 MIQ B 502     -12.903   7.947  11.871  1.00143.95    -0.271 OA
HETATM   15  N20 MIQ B 502     -13.097   9.421  10.157  1.00140.02    -0.296 N 
HETATM   16  H13 MIQ B 502     -13.676   8.815   9.610  1.00142.77     0.171 HD
HETATM   17  C21 MIQ B 502     -12.709  10.718   9.668  1.00142.22     0.224 C 
HETATM   18  C22 MIQ B 502     -11.327  11.208  10.057  1.00139.52     0.106 C 
HETATM   19  O24 MIQ B 502     -13.434  11.369   9.000  1.00146.13    -0.273 OA
HETATM   20  C23 MIQ B 502     -11.275  11.189  11.574  1.00139.15     0.045 C 
ENDBRANCH  10  12
BRANCH   5  21
HETATM   21  N6  MIQ B 502      -5.991   6.367  15.742  1.00140.95    -0.377 N 
HETATM   22  C7  MIQ B 502      -4.662   5.906  15.377  1.00142.12     0.149 C 
HETATM   23  C8  MIQ B 502      -4.120   4.888  16.373  1.00144.10     0.187 C 
HETATM   24  O9  MIQ B 502      -4.267   5.295  17.700  1.00148.65    -0.388 OA
HETATM   25  C10 MIQ B 502      -5.046   6.411  18.016  1.00147.44     0.187 C 
HETATM   26  C11 MIQ B 502      -6.235   6.748  17.122  1.00144.08     0.149 C 
ENDBRANCH   5  21
TORSDOF 2
ENDMDL
