MODEL 1
REMARK VINA RESULT:      -6.2      0.000      0.000
REMARK  2 active torsions:
REMARK  status: ('A' for Active; 'I' for Inactive)
REMARK    1  A    between atoms: C5_5  and  N6_21 
REMARK    2  A    between atoms: C18_14  and  N17_19 
ROOT
HETATM    1  O1  MIQ B 502      -0.143  -1.943 -19.210  1.00142.91    -0.171 OA
HETATM    2  C2  MIQ B 502      -1.162  -2.599 -19.904  1.00141.17     0.195 A 
HETATM    3  C3  MIQ B 502      -1.580  -4.095 -19.733  1.00141.71     0.035 A 
HETATM    4  C4  MIQ B 502      -1.091  -5.197 -18.871  1.00142.86     0.046 A 
HETATM    5  C5  MIQ B 502      -1.688  -6.481 -18.942  1.00139.53     0.031 A 
HETATM    6  C12 MIQ B 502      -2.787  -6.717 -19.867  1.00139.38     0.030 A 
HETATM    7  C13 MIQ B 502      -3.256  -5.660 -20.693  1.00141.18     0.019 A 
HETATM    8  C14 MIQ B 502      -2.628  -4.313 -20.612  1.00138.77     0.033 A 
HETATM    9  C15 MIQ B 502      -2.863  -2.945 -21.333  1.00142.10     0.195 A 
HETATM   10  N17 MIQ B 502      -1.974  -2.108 -20.825  1.00139.42    -0.288 N 
HETATM   11  O16 MIQ B 502      -3.817  -2.671 -22.314  1.00148.93    -0.171 OA
ENDROOT
BRANCH  10  12
HETATM   12  C18 MIQ B 502      -1.887  -0.731 -21.275  1.00139.82     0.187 C 
HETATM   13  C19 MIQ B 502      -3.303  -0.143 -21.256  1.00140.06     0.247 C 
HETATM   14  O25 MIQ B 502      -3.957  -0.246 -20.280  1.00143.95    -0.271 OA
HETATM   15  N20 MIQ B 502      -3.861   0.544 -22.404  1.00140.02    -0.296 N 
HETATM   16  H13 MIQ B 502      -4.789   0.917 -22.381  1.00142.77     0.171 HD
HETATM   17  C21 MIQ B 502      -3.047   0.648 -23.588  1.00142.22     0.224 C 
HETATM   18  C22 MIQ B 502      -2.110  -0.509 -23.875  1.00139.52     0.106 C 
HETATM   19  O24 MIQ B 502      -3.105   1.592 -24.296  1.00146.13    -0.273 OA
HETATM   20  C23 MIQ B 502      -1.226  -0.662 -22.650  1.00139.15     0.045 C 
ENDBRANCH  10  12
BRANCH   5  21
HETATM   21  N6  MIQ B 502      -1.189  -7.555 -18.102  1.00140.95    -0.377 N 
HETATM   22  C7  MIQ B 502      -1.153  -8.902 -18.646  1.00142.12     0.149 C 
HETATM   23  C8  MIQ B 502      -1.246  -9.959 -17.553  1.00144.10     0.187 C 
HETATM   24  O9  MIQ B 502      -0.371  -9.720 -16.491  1.00148.65    -0.388 OA
HETATM   25  C10 MIQ B 502       0.311  -8.505 -16.395  1.00147.44     0.187 C 
HETATM   26  C11 MIQ B 502      -0.351  -7.250 -16.956  1.00144.08     0.149 C 
ENDBRANCH   5  21
TORSDOF 2
ENDMDL
MODEL 2
REMARK VINA RESULT:      -6.1     26.186     28.344
REMARK  2 active torsions:
REMARK  status: ('A' for Active; 'I' for Inactive)
REMARK    1  A    between atoms: C5_5  and  N6_21 
REMARK    2  A    between atoms: C18_14  and  N17_19 
ROOT
HETATM    1  O1  MIQ B 502     -20.743  -6.363  -1.250  1.00142.91    -0.171 OA
HETATM    2  C2  MIQ B 502     -21.678  -7.027  -2.047  1.00141.17     0.195 A 
HETATM    3  C3  MIQ B 502     -22.555  -6.384  -3.170  1.00141.71     0.035 A 
HETATM    4  C4  MIQ B 502     -22.673  -5.009  -3.708  1.00142.86     0.046 A 
HETATM    5  C5  MIQ B 502     -23.581  -4.726  -4.759  1.00139.53     0.031 A 
HETATM    6  C12 MIQ B 502     -24.402  -5.794  -5.312  1.00139.38     0.030 A 
HETATM    7  C13 MIQ B 502     -24.288  -7.113  -4.796  1.00141.18     0.019 A 
HETATM    8  C14 MIQ B 502     -23.331  -7.405  -3.695  1.00138.77     0.033 A 
HETATM    9  C15 MIQ B 502     -22.934  -8.688  -2.894  1.00142.10     0.195 A 
HETATM   10  N17 MIQ B 502     -22.010  -8.306  -2.028  1.00139.42    -0.288 N 
HETATM   11  O16 MIQ B 502     -23.454  -9.972  -3.063  1.00148.93    -0.171 OA
ENDROOT
BRANCH  10  12
HETATM   12  C18 MIQ B 502     -21.413  -9.244  -1.095  1.00139.82     0.187 C 
HETATM   13  C19 MIQ B 502     -21.004 -10.493  -1.884  1.00140.06     0.247 C 
HETATM   14  O25 MIQ B 502     -20.354 -10.370  -2.861  1.00143.95    -0.271 OA
HETATM   15  N20 MIQ B 502     -21.390 -11.824  -1.461  1.00140.02    -0.296 N 
HETATM   16  H13 MIQ B 502     -21.122 -12.631  -1.989  1.00142.77     0.171 HD
HETATM   17  C21 MIQ B 502     -22.192 -11.948  -0.272  1.00142.22     0.224 C 
HETATM   18  C22 MIQ B 502     -23.183 -10.833   0.000  1.00139.52     0.106 C 
HETATM   19  O24 MIQ B 502     -22.078 -12.871   0.457  1.00146.13    -0.273 OA
HETATM   20  C23 MIQ B 502     -22.382  -9.545   0.048  1.00139.15     0.045 C 
ENDBRANCH  10  12
BRANCH   5  21
HETATM   21  N6  MIQ B 502     -23.697  -3.371  -5.267  1.00140.95    -0.377 N 
HETATM   22  C7  MIQ B 502     -24.939  -2.974  -5.908  1.00142.12     0.149 C 
HETATM   23  C8  MIQ B 502     -24.724  -1.852  -6.916  1.00144.10     0.187 C 
HETATM   24  O9  MIQ B 502     -23.953  -0.805  -6.408  1.00148.65    -0.388 OA
HETATM   25  C10 MIQ B 502     -23.287  -0.944  -5.188  1.00147.44     0.187 C 
HETATM   26  C11 MIQ B 502     -22.814  -2.331  -4.769  1.00144.08     0.149 C 
ENDBRANCH   5  21
TORSDOF 2
ENDMDL
MODEL 3
REMARK VINA RESULT:      -6.1     14.308     17.231
REMARK  2 active torsions:
REMARK  status: ('A' for Active; 'I' for Inactive)
REMARK    1  A    between atoms: C5_5  and  N6_21 
REMARK    2  A    between atoms: C18_14  and  N17_19 
ROOT
HETATM    1  O1  MIQ B 502     -11.827   5.237 -15.223  1.00142.91    -0.171 OA
HETATM    2  C2  MIQ B 502     -13.050   5.637 -15.768  1.00141.17     0.195 A 
HETATM    3  C3  MIQ B 502     -13.247   6.511 -17.048  1.00141.71     0.035 A 
HETATM    4  C4  MIQ B 502     -12.308   7.138 -18.009  1.00142.86     0.046 A 
HETATM    5  C5  MIQ B 502     -12.801   7.892 -19.103  1.00139.53     0.031 A 
HETATM    6  C12 MIQ B 502     -14.237   8.051 -19.284  1.00139.38     0.030 A 
HETATM    7  C13 MIQ B 502     -15.137   7.450 -18.363  1.00141.18     0.019 A 
HETATM    8  C14 MIQ B 502     -14.614   6.656 -17.217  1.00138.77     0.033 A 
HETATM    9  C15 MIQ B 502     -15.269   5.868 -16.037  1.00142.10     0.195 A 
HETATM   10  N17 MIQ B 502     -14.268   5.364 -15.334  1.00139.42    -0.288 N 
HETATM   11  O16 MIQ B 502     -16.634   5.729 -15.780  1.00148.93    -0.171 OA
ENDROOT
BRANCH  10  12
HETATM   12  C18 MIQ B 502     -14.503   4.575 -14.139  1.00139.82     0.187 C 
HETATM   13  C19 MIQ B 502     -13.726   5.226 -12.988  1.00140.06     0.247 C 
HETATM   14  O25 MIQ B 502     -13.857   6.381 -12.786  1.00143.95    -0.271 OA
HETATM   15  N20 MIQ B 502     -12.839   4.461 -12.137  1.00140.02    -0.296 N 
HETATM   16  H13 MIQ B 502     -12.332   4.899 -11.393  1.00142.77     0.171 HD
HETATM   17  C21 MIQ B 502     -12.688   3.055 -12.410  1.00142.22     0.224 C 
HETATM   18  C22 MIQ B 502     -12.770   2.631 -13.864  1.00139.52     0.106 C 
HETATM   19  O24 MIQ B 502     -12.514   2.272 -11.542  1.00146.13    -0.273 OA
HETATM   20  C23 MIQ B 502     -14.113   3.118 -14.379  1.00139.15     0.045 C 
ENDBRANCH  10  12
BRANCH   5  21
HETATM   21  N6  MIQ B 502     -11.870   8.513 -20.028  1.00140.95    -0.377 N 
HETATM   22  C7  MIQ B 502     -10.586   7.871 -20.257  1.00142.12     0.149 C 
HETATM   23  C8  MIQ B 502      -9.518   8.871 -20.680  1.00144.10     0.187 C 
HETATM   24  O9  MIQ B 502      -9.947   9.727 -21.697  1.00148.65    -0.388 OA
HETATM   25  C10 MIQ B 502     -11.293   9.763 -22.070  1.00147.44     0.187 C 
HETATM   26  C11 MIQ B 502     -12.352   9.464 -21.014  1.00144.08     0.149 C 
ENDBRANCH   5  21
TORSDOF 2
ENDMDL
MODEL 4
REMARK VINA RESULT:      -6.1      3.382      8.703
REMARK  2 active torsions:
REMARK  status: ('A' for Active; 'I' for Inactive)
REMARK    1  A    between atoms: C5_5  and  N6_21 
REMARK    2  A    between atoms: C18_14  and  N17_19 
ROOT
HETATM    1  O1  MIQ B 502      -3.361  -1.856 -20.665  1.00142.91    -0.171 OA
HETATM    2  C2  MIQ B 502      -2.122  -1.444 -20.168  1.00141.17     0.195 A 
HETATM    3  C3  MIQ B 502      -1.686   0.029 -19.886  1.00141.71     0.035 A 
HETATM    4  C4  MIQ B 502      -2.365   1.338 -20.030  1.00142.86     0.046 A 
HETATM    5  C5  MIQ B 502      -1.693   2.537 -19.680  1.00139.53     0.031 A 
HETATM    6  C12 MIQ B 502      -0.328   2.479 -19.177  1.00139.38     0.030 A 
HETATM    7  C13 MIQ B 502       0.323   1.224 -19.037  1.00141.18     0.019 A 
HETATM    8  C14 MIQ B 502      -0.388  -0.031 -19.403  1.00138.77     0.033 A 
HETATM    9  C15 MIQ B 502      -0.017  -1.550 -19.386  1.00142.10     0.195 A 
HETATM   10  N17 MIQ B 502      -1.084  -2.191 -19.835  1.00139.42    -0.288 N 
HETATM   11  O16 MIQ B 502       1.195  -2.109 -18.980  1.00148.93    -0.171 OA
ENDROOT
BRANCH  10  12
HETATM   12  C18 MIQ B 502      -1.096  -3.636 -19.972  1.00139.82     0.187 C 
HETATM   13  C19 MIQ B 502      -1.532  -3.966 -21.405  1.00140.06     0.247 C 
HETATM   14  O25 MIQ B 502      -0.983  -3.443 -22.309  1.00143.95    -0.271 OA
HETATM   15  N20 MIQ B 502      -2.597  -4.908 -21.682  1.00140.02    -0.296 N 
HETATM   16  H13 MIQ B 502      -2.876  -5.110 -22.621  1.00142.77     0.171 HD
HETATM   17  C21 MIQ B 502      -3.259  -5.526 -20.562  1.00142.22     0.224 C 
HETATM   18  C22 MIQ B 502      -3.401  -4.687 -19.307  1.00139.52     0.106 C 
HETATM   19  O24 MIQ B 502      -3.665  -6.634 -20.619  1.00146.13    -0.273 OA
HETATM   20  C23 MIQ B 502      -1.999  -4.263 -18.910  1.00139.15     0.045 C 
ENDBRANCH  10  12
BRANCH   5  21
HETATM   21  N6  MIQ B 502      -2.365   3.813 -19.841  1.00140.95    -0.377 N 
HETATM   22  C7  MIQ B 502      -3.575   3.865 -20.643  1.00142.12     0.149 C 
HETATM   23  C8  MIQ B 502      -3.796   5.245 -21.251  1.00144.10     0.187 C 
HETATM   24  O9  MIQ B 502      -3.651   6.277 -20.322  1.00148.65    -0.388 OA
HETATM   25  C10 MIQ B 502      -3.128   6.018 -19.052  1.00147.44     0.187 C 
HETATM   26  C11 MIQ B 502      -2.116   4.888 -18.896  1.00144.08     0.149 C 
ENDBRANCH   5  21
TORSDOF 2
ENDMDL
MODEL 5
REMARK VINA RESULT:      -6.1      1.945      8.291
REMARK  2 active torsions:
REMARK  status: ('A' for Active; 'I' for Inactive)
REMARK    1  A    between atoms: C5_5  and  N6_21 
REMARK    2  A    between atoms: C18_14  and  N17_19 
ROOT
HETATM    1  O1  MIQ B 502       0.200  -3.334 -18.094  1.00142.91    -0.171 OA
HETATM    2  C2  MIQ B 502      -0.823  -3.973 -18.798  1.00141.17     0.195 A 
HETATM    3  C3  MIQ B 502      -1.856  -3.287 -19.748  1.00141.71     0.035 A 
HETATM    4  C4  MIQ B 502      -2.071  -1.885 -20.177  1.00142.86     0.046 A 
HETATM    5  C5  MIQ B 502      -3.120  -1.563 -21.075  1.00139.53     0.031 A 
HETATM    6  C12 MIQ B 502      -3.990  -2.617 -21.578  1.00139.38     0.030 A 
HETATM    7  C13 MIQ B 502      -3.783  -3.962 -21.168  1.00141.18     0.019 A 
HETATM    8  C14 MIQ B 502      -2.679  -4.294 -20.226  1.00138.77     0.033 A 
HETATM    9  C15 MIQ B 502      -2.153  -5.612 -19.570  1.00142.10     0.195 A 
HETATM   10  N17 MIQ B 502      -1.126  -5.260 -18.814  1.00139.42    -0.288 N 
HETATM   11  O16 MIQ B 502      -2.668  -6.897 -19.748  1.00148.93    -0.171 OA
ENDROOT
BRANCH  10  12
HETATM   12  C18 MIQ B 502      -0.391  -6.236 -18.032  1.00139.82     0.187 C 
HETATM   13  C19 MIQ B 502       0.031  -7.369 -18.975  1.00140.06     0.247 C 
HETATM   14  O25 MIQ B 502       0.586  -7.104 -19.982  1.00143.95    -0.271 OA
HETATM   15  N20 MIQ B 502      -0.227  -8.759 -18.662  1.00140.02    -0.296 N 
HETATM   16  H13 MIQ B 502       0.048  -9.489 -19.289  1.00142.77     0.171 HD
HETATM   17  C21 MIQ B 502      -0.914  -9.057 -17.432  1.00142.22     0.224 C 
HETATM   18  C22 MIQ B 502      -1.951  -8.051 -16.970  1.00139.52     0.106 C 
HETATM   19  O24 MIQ B 502      -0.677 -10.036 -16.813  1.00146.13    -0.273 OA
HETATM   20  C23 MIQ B 502      -1.235  -6.718 -16.854  1.00139.15     0.045 C 
ENDBRANCH  10  12
BRANCH   5  21
HETATM   21  N6  MIQ B 502      -3.329  -0.184 -21.476  1.00140.95    -0.377 N 
HETATM   22  C7  MIQ B 502      -3.188   0.859 -20.474  1.00142.12     0.149 C 
HETATM   23  C8  MIQ B 502      -4.019   2.090 -20.813  1.00144.10     0.187 C 
HETATM   24  O9  MIQ B 502      -3.858   2.507 -22.136  1.00148.65    -0.388 OA
HETATM   25  C10 MIQ B 502      -3.181   1.701 -23.055  1.00147.44     0.187 C 
HETATM   26  C11 MIQ B 502      -3.236   0.187 -22.877  1.00144.08     0.149 C 
ENDBRANCH   5  21
TORSDOF 2
ENDMDL
MODEL 6
REMARK VINA RESULT:      -6.0      1.864      2.279
REMARK  2 active torsions:
REMARK  status: ('A' for Active; 'I' for Inactive)
REMARK    1  A    between atoms: C5_5  and  N6_21 
REMARK    2  A    between atoms: C18_14  and  N17_19 
ROOT
HETATM    1  O1  MIQ B 502      -0.053  -1.655 -19.516  1.00142.91    -0.171 OA
HETATM    2  C2  MIQ B 502      -1.310  -2.197 -19.793  1.00141.17     0.195 A 
HETATM    3  C3  MIQ B 502      -1.792  -3.638 -19.434  1.00141.71     0.035 A 
HETATM    4  C4  MIQ B 502      -1.151  -4.787 -18.751  1.00142.86     0.046 A 
HETATM    5  C5  MIQ B 502      -1.862  -5.999 -18.565  1.00139.53     0.031 A 
HETATM    6  C12 MIQ B 502      -3.231  -6.114 -19.047  1.00139.38     0.030 A 
HETATM    7  C13 MIQ B 502      -3.847  -5.013 -19.701  1.00141.18     0.019 A 
HETATM    8  C14 MIQ B 502      -3.096  -3.742 -19.891  1.00138.77     0.033 A 
HETATM    9  C15 MIQ B 502      -3.424  -2.357 -20.538  1.00142.10     0.195 A 
HETATM   10  N17 MIQ B 502      -2.335  -1.621 -20.397  1.00139.42    -0.288 N 
HETATM   11  O16 MIQ B 502      -4.625  -1.981 -21.143  1.00148.93    -0.171 OA
ENDROOT
BRANCH  10  12
HETATM   12  C18 MIQ B 502      -2.269  -0.262 -20.901  1.00139.82     0.187 C 
HETATM   13  C19 MIQ B 502      -0.995  -0.136 -21.745  1.00140.06     0.247 C 
HETATM   14  O25 MIQ B 502      -0.785  -0.931 -22.592  1.00143.95    -0.271 OA
HETATM   15  N20 MIQ B 502      -0.042   0.935 -21.536  1.00140.02    -0.296 N 
HETATM   16  H13 MIQ B 502       0.789   1.001 -22.090  1.00142.77     0.171 HD
HETATM   17  C21 MIQ B 502      -0.316   1.886 -20.490  1.00142.22     0.224 C 
HETATM   18  C22 MIQ B 502      -1.029   1.359 -19.260  1.00139.52     0.106 C 
HETATM   19  O24 MIQ B 502      -0.003   3.021 -20.590  1.00146.13    -0.273 OA
HETATM   20  C23 MIQ B 502      -2.326   0.737 -19.746  1.00139.15     0.045 C 
ENDBRANCH  10  12
BRANCH   5  21
HETATM   21  N6  MIQ B 502      -1.217  -7.121 -17.908  1.00140.95    -0.377 N 
HETATM   22  C7  MIQ B 502      -1.219  -8.411 -18.574  1.00142.12     0.149 C 
HETATM   23  C8  MIQ B 502      -1.122  -9.564 -17.583  1.00144.10     0.187 C 
HETATM   24  O9  MIQ B 502      -0.112  -9.383 -16.636  1.00148.65    -0.388 OA
HETATM   25  C10 MIQ B 502       0.540  -8.152 -16.523  1.00147.44     0.187 C 
HETATM   26  C11 MIQ B 502      -0.233  -6.883 -16.866  1.00144.08     0.149 C 
ENDBRANCH   5  21
TORSDOF 2
ENDMDL
MODEL 7
REMARK VINA RESULT:      -6.0     16.191     19.625
REMARK  2 active torsions:
REMARK  status: ('A' for Active; 'I' for Inactive)
REMARK    1  A    between atoms: C5_5  and  N6_21 
REMARK    2  A    between atoms: C18_14  and  N17_19 
ROOT
HETATM    1  O1  MIQ B 502     -15.881   3.491 -14.168  1.00142.91    -0.171 OA
HETATM    2  C2  MIQ B 502     -15.902   4.875 -14.353  1.00141.17     0.195 A 
HETATM    3  C3  MIQ B 502     -17.008   5.690 -15.095  1.00141.71     0.035 A 
HETATM    4  C4  MIQ B 502     -18.269   5.310 -15.776  1.00142.86     0.046 A 
HETATM    5  C5  MIQ B 502     -19.088   6.302 -16.373  1.00139.53     0.031 A 
HETATM    6  C12 MIQ B 502     -18.686   7.701 -16.316  1.00139.38     0.030 A 
HETATM    7  C13 MIQ B 502     -17.478   8.065 -15.663  1.00141.18     0.019 A 
HETATM    8  C14 MIQ B 502     -16.624   7.019 -15.036  1.00138.77     0.033 A 
HETATM    9  C15 MIQ B 502     -15.272   7.030 -14.251  1.00142.10     0.195 A 
HETATM   10  N17 MIQ B 502     -15.017   5.768 -13.945  1.00139.42    -0.288 N 
HETATM   11  O16 MIQ B 502     -14.494   8.147 -13.941  1.00148.93    -0.171 OA
ENDROOT
BRANCH  10  12
HETATM   12  C18 MIQ B 502     -13.818   5.392 -13.219  1.00139.82     0.187 C 
HETATM   13  C19 MIQ B 502     -13.099   4.309 -14.033  1.00140.06     0.247 C 
HETATM   14  O25 MIQ B 502     -12.881   4.499 -15.176  1.00143.95    -0.271 OA
HETATM   15  N20 MIQ B 502     -12.675   3.060 -13.435  1.00140.02    -0.296 N 
HETATM   16  H13 MIQ B 502     -12.212   2.359 -13.978  1.00142.77     0.171 HD
HETATM   17  C21 MIQ B 502     -12.963   2.848 -12.040  1.00142.22     0.224 C 
HETATM   18  C22 MIQ B 502     -14.247   3.456 -11.509  1.00139.52     0.106 C 
HETATM   19  O24 MIQ B 502     -12.230   2.235 -11.344  1.00146.13    -0.273 OA
HETATM   20  C23 MIQ B 502     -14.173   4.943 -11.802  1.00139.15     0.045 C 
ENDBRANCH  10  12
BRANCH   5  21
HETATM   21  N6  MIQ B 502     -20.313   5.915 -17.049  1.00140.95    -0.377 N 
HETATM   22  C7  MIQ B 502     -20.541   4.506 -17.319  1.00142.12     0.149 C 
HETATM   23  C8  MIQ B 502     -21.448   4.298 -18.525  1.00144.10     0.187 C 
HETATM   24  O9  MIQ B 502     -22.596   5.092 -18.485  1.00148.65    -0.388 OA
HETATM   25  C10 MIQ B 502     -22.719   6.112 -17.537  1.00147.44     0.187 C 
HETATM   26  C11 MIQ B 502     -21.454   6.813 -17.053  1.00144.08     0.149 C 
ENDBRANCH   5  21
TORSDOF 2
ENDMDL
MODEL 8
REMARK VINA RESULT:      -6.0      3.511      8.693
REMARK  2 active torsions:
REMARK  status: ('A' for Active; 'I' for Inactive)
REMARK    1  A    between atoms: C5_5  and  N6_21 
REMARK    2  A    between atoms: C18_14  and  N17_19 
ROOT
HETATM    1  O1  MIQ B 502       0.125  -1.159 -19.520  1.00142.91    -0.171 OA
HETATM    2  C2  MIQ B 502      -1.184  -0.993 -19.976  1.00141.17     0.195 A 
HETATM    3  C3  MIQ B 502      -1.923   0.367 -20.185  1.00141.71     0.035 A 
HETATM    4  C4  MIQ B 502      -1.526   1.782 -19.994  1.00142.86     0.046 A 
HETATM    5  C5  MIQ B 502      -2.440   2.828 -20.278  1.00139.53     0.031 A 
HETATM    6  C12 MIQ B 502      -3.776   2.508 -20.761  1.00139.38     0.030 A 
HETATM    7  C13 MIQ B 502      -4.157   1.152 -20.946  1.00141.18     0.019 A 
HETATM    8  C14 MIQ B 502      -3.192   0.058 -20.648  1.00138.77     0.033 A 
HETATM    9  C15 MIQ B 502      -3.241  -1.502 -20.727  1.00142.10     0.195 A 
HETATM   10  N17 MIQ B 502      -2.054  -1.926 -20.325  1.00139.42    -0.288 N 
HETATM   11  O16 MIQ B 502      -4.322  -2.285 -21.137  1.00148.93    -0.171 OA
ENDROOT
BRANCH  10  12
HETATM   12  C18 MIQ B 502      -1.739  -3.341 -20.253  1.00139.82     0.187 C 
HETATM   13  C19 MIQ B 502      -2.003  -3.949 -21.636  1.00140.06     0.247 C 
HETATM   14  O25 MIQ B 502      -1.529  -3.441 -22.589  1.00143.95    -0.271 OA
HETATM   15  N20 MIQ B 502      -2.814  -5.137 -21.805  1.00140.02    -0.296 N 
HETATM   16  H13 MIQ B 502      -2.984  -5.521 -22.714  1.00142.77     0.171 HD
HETATM   17  C21 MIQ B 502      -3.390  -5.734 -20.628  1.00142.22     0.224 C 
HETATM   18  C22 MIQ B 502      -3.790  -4.789 -19.511  1.00139.52     0.106 C 
HETATM   19  O24 MIQ B 502      -3.537  -6.903 -20.536  1.00146.13    -0.273 OA
HETATM   20  C23 MIQ B 502      -2.543  -4.008 -19.139  1.00139.15     0.045 C 
ENDBRANCH  10  12
BRANCH   5  21
HETATM   21  N6  MIQ B 502      -2.043   4.209 -20.072  1.00140.95    -0.377 N 
HETATM   22  C7  MIQ B 502      -2.594   5.228 -20.948  1.00142.12     0.149 C 
HETATM   23  C8  MIQ B 502      -1.671   6.434 -21.069  1.00144.10     0.187 C 
HETATM   24  O9  MIQ B 502      -1.212   6.893 -19.833  1.00148.65    -0.388 OA
HETATM   25  C10 MIQ B 502      -1.424   6.141 -18.675  1.00147.44     0.187 C 
HETATM   26  C11 MIQ B 502      -1.489   4.622 -18.794  1.00144.08     0.149 C 
ENDBRANCH   5  21
TORSDOF 2
ENDMDL
MODEL 9
REMARK VINA RESULT:      -6.0     26.882     28.644
REMARK  2 active torsions:
REMARK  status: ('A' for Active; 'I' for Inactive)
REMARK    1  A    between atoms: C5_5  and  N6_21 
REMARK    2  A    between atoms: C18_14  and  N17_19 
ROOT
HETATM    1  O1  MIQ B 502     -23.544 -10.556  -3.276  1.00142.91    -0.171 OA
HETATM    2  C2  MIQ B 502     -23.184  -9.208  -3.214  1.00141.17     0.195 A 
HETATM    3  C3  MIQ B 502     -23.725  -8.066  -4.133  1.00141.71     0.035 A 
HETATM    4  C4  MIQ B 502     -24.696  -8.033  -5.252  1.00142.86     0.046 A 
HETATM    5  C5  MIQ B 502     -24.990  -6.811  -5.909  1.00139.53     0.031 A 
HETATM    6  C12 MIQ B 502     -24.335  -5.584  -5.480  1.00139.38     0.030 A 
HETATM    7  C13 MIQ B 502     -23.405  -5.615  -4.406  1.00141.18     0.019 A 
HETATM    8  C14 MIQ B 502     -23.101  -6.900  -3.719  1.00138.77     0.033 A 
HETATM    9  C15 MIQ B 502     -22.170  -7.321  -2.536  1.00142.10     0.195 A 
HETATM   10  N17 MIQ B 502     -22.336  -8.624  -2.385  1.00139.42    -0.288 N 
HETATM   11  O16 MIQ B 502     -21.332  -6.486  -1.795  1.00148.93    -0.171 OA
ENDROOT
BRANCH  10  12
HETATM   12  C18 MIQ B 502     -21.608  -9.369  -1.375  1.00139.82     0.187 C 
HETATM   13  C19 MIQ B 502     -20.973 -10.586  -2.059  1.00140.06     0.247 C 
HETATM   14  O25 MIQ B 502     -20.333 -10.428  -3.037  1.00143.95    -0.271 OA
HETATM   15  N20 MIQ B 502     -21.132 -11.927  -1.533  1.00140.02    -0.296 N 
HETATM   16  H13 MIQ B 502     -20.718 -12.714  -1.993  1.00142.77     0.171 HD
HETATM   17  C21 MIQ B 502     -21.927 -12.095  -0.344  1.00142.22     0.224 C 
HETATM   18  C22 MIQ B 502     -23.101 -11.151  -0.170  1.00139.52     0.106 C 
HETATM   19  O24 MIQ B 502     -21.671 -12.925   0.457  1.00146.13    -0.273 OA
HETATM   20  C23 MIQ B 502     -22.534  -9.744  -0.219  1.00139.15     0.045 C 
ENDBRANCH  10  12
BRANCH   5  21
HETATM   21  N6  MIQ B 502     -25.932  -6.795  -7.013  1.00140.95    -0.377 N 
HETATM   22  C7  MIQ B 502     -26.188  -8.035  -7.726  1.00142.12     0.149 C 
HETATM   23  C8  MIQ B 502     -26.631  -7.785  -9.162  1.00144.10     0.187 C 
HETATM   24  O9  MIQ B 502     -27.636  -6.821  -9.260  1.00148.65    -0.388 OA
HETATM   25  C10 MIQ B 502     -27.983  -6.044  -8.152  1.00147.44     0.187 C 
HETATM   26  C11 MIQ B 502     -26.906  -5.723  -7.121  1.00144.08     0.149 C 
ENDBRANCH   5  21
TORSDOF 2
ENDMDL
