MODEL 1
REMARK VINA RESULT:      -6.3      0.000      0.000
REMARK  2 active torsions:
REMARK  status: ('A' for Active; 'I' for Inactive)
REMARK    1  A    between atoms: C5_5  and  N6_21 
REMARK    2  A    between atoms: C18_14  and  N17_19 
ROOT
HETATM    1  O1  MIQ B 502     -14.953 -13.870  -5.096  1.00142.91    -0.171 OA
HETATM    2  C2  MIQ B 502     -14.528 -13.192  -3.951  1.00141.17     0.195 A 
HETATM    3  C3  MIQ B 502     -13.233 -13.490  -3.130  1.00141.71     0.035 A 
HETATM    4  C4  MIQ B 502     -12.140 -14.481  -3.275  1.00142.86     0.046 A 
HETATM    5  C5  MIQ B 502     -11.069 -14.507  -2.347  1.00139.53     0.031 A 
HETATM    6  C12 MIQ B 502     -11.043 -13.554  -1.246  1.00139.38     0.030 A 
HETATM    7  C13 MIQ B 502     -12.090 -12.603  -1.108  1.00141.18     0.019 A 
HETATM    8  C14 MIQ B 502     -13.211 -12.579  -2.086  1.00138.77     0.033 A 
HETATM    9  C15 MIQ B 502     -14.499 -11.710  -2.261  1.00142.10     0.195 A 
HETATM   10  N17 MIQ B 502     -15.111 -12.177  -3.337  1.00139.42    -0.288 N 
HETATM   11  O16 MIQ B 502     -14.915 -10.658  -1.444  1.00148.93    -0.171 OA
ENDROOT
BRANCH  10  12
HETATM   12  C18 MIQ B 502     -16.366 -11.613  -3.799  1.00139.82     0.187 C 
HETATM   13  C19 MIQ B 502     -17.382 -12.757  -3.906  1.00140.06     0.247 C 
HETATM   14  O25 MIQ B 502     -17.535 -13.478  -2.985  1.00143.95    -0.271 OA
HETATM   15  N20 MIQ B 502     -18.164 -12.975  -5.105  1.00140.02    -0.296 N 
HETATM   16  H13 MIQ B 502     -18.819 -13.729  -5.165  1.00142.77     0.171 HD
HETATM   17  C21 MIQ B 502     -17.951 -12.087  -6.220  1.00142.22     0.224 C 
HETATM   18  C22 MIQ B 502     -16.541 -11.561  -6.411  1.00139.52     0.106 C 
HETATM   19  O24 MIQ B 502     -18.833 -11.782  -6.944  1.00146.13    -0.273 OA
HETATM   20  C23 MIQ B 502     -16.161 -10.867  -5.116  1.00139.15     0.045 C 
ENDBRANCH  10  12
BRANCH   5  21
HETATM   21  N6  MIQ B 502     -10.013 -15.492  -2.492  1.00140.95    -0.377 N 
HETATM   22  C7  MIQ B 502      -9.140 -15.747  -1.359  1.00142.12     0.149 C 
HETATM   23  C8  MIQ B 502      -7.772 -16.253  -1.797  1.00144.10     0.187 C 
HETATM   24  O9  MIQ B 502      -7.848 -17.283  -2.736  1.00148.65    -0.388 OA
HETATM   25  C10 MIQ B 502      -9.067 -17.603  -3.339  1.00147.44     0.187 C 
HETATM   26  C11 MIQ B 502     -10.094 -16.494  -3.541  1.00144.08     0.149 C 
ENDBRANCH   5  21
TORSDOF 2
ENDMDL
MODEL 2
REMARK VINA RESULT:      -6.1      4.206      6.046
REMARK  2 active torsions:
REMARK  status: ('A' for Active; 'I' for Inactive)
REMARK    1  A    between atoms: C5_5  and  N6_21 
REMARK    2  A    between atoms: C18_14  and  N17_19 
ROOT
HETATM    1  O1  MIQ B 502     -15.685 -16.219  -1.607  1.00142.91    -0.171 OA
HETATM    2  C2  MIQ B 502     -14.342 -15.833  -1.591  1.00141.17     0.195 A 
HETATM    3  C3  MIQ B 502     -13.226 -16.334  -2.562  1.00141.71     0.035 A 
HETATM    4  C4  MIQ B 502     -13.218 -17.281  -3.702  1.00142.86     0.046 A 
HETATM    5  C5  MIQ B 502     -12.017 -17.539  -4.410  1.00139.53     0.031 A 
HETATM    6  C12 MIQ B 502     -10.786 -16.869  -4.015  1.00139.38     0.030 A 
HETATM    7  C13 MIQ B 502     -10.795 -15.960  -2.922  1.00141.18     0.019 A 
HETATM    8  C14 MIQ B 502     -12.059 -15.692  -2.184  1.00138.77     0.033 A 
HETATM    9  C15 MIQ B 502     -12.452 -14.785  -0.972  1.00142.10     0.195 A 
HETATM   10  N17 MIQ B 502     -13.746 -14.979  -0.776  1.00139.42    -0.288 N 
HETATM   11  O16 MIQ B 502     -11.605 -13.946  -0.246  1.00148.93    -0.171 OA
ENDROOT
BRANCH  10  12
HETATM   12  C18 MIQ B 502     -14.460 -14.303   0.291  1.00139.82     0.187 C 
HETATM   13  C19 MIQ B 502     -14.173 -12.802   0.169  1.00140.06     0.247 C 
HETATM   14  O25 MIQ B 502     -14.329 -12.268  -0.871  1.00143.95    -0.271 OA
HETATM   15  N20 MIQ B 502     -13.720 -12.017   1.299  1.00140.02    -0.296 N 
HETATM   16  H13 MIQ B 502     -13.529 -11.039   1.204  1.00142.77     0.171 HD
HETATM   17  C21 MIQ B 502     -13.527 -12.693   2.556  1.00142.22     0.224 C 
HETATM   18  C22 MIQ B 502     -13.049 -14.130   2.490  1.00139.52     0.106 C 
HETATM   19  O24 MIQ B 502     -13.736 -12.153   3.586  1.00146.13    -0.273 OA
HETATM   20  C23 MIQ B 502     -14.062 -14.883   1.647  1.00139.15     0.045 C 
ENDBRANCH  10  12
BRANCH   5  21
HETATM   21  N6  MIQ B 502     -12.020 -18.480  -5.516  1.00140.95    -0.377 N 
HETATM   22  C7  MIQ B 502     -11.986 -19.901  -5.218  1.00142.12     0.149 C 
HETATM   23  C8  MIQ B 502     -11.361 -20.705  -6.351  1.00144.10     0.187 C 
HETATM   24  O9  MIQ B 502     -11.877 -20.370  -7.604  1.00148.65    -0.388 OA
HETATM   25  C10 MIQ B 502     -12.699 -19.250  -7.754  1.00147.44     0.187 C 
HETATM   26  C11 MIQ B 502     -12.487 -18.059  -6.825  1.00144.08     0.149 C 
ENDBRANCH   5  21
TORSDOF 2
ENDMDL
MODEL 3
REMARK VINA RESULT:      -6.0     11.334     17.312
REMARK  2 active torsions:
REMARK  status: ('A' for Active; 'I' for Inactive)
REMARK    1  A    between atoms: C5_5  and  N6_21 
REMARK    2  A    between atoms: C18_14  and  N17_19 
ROOT
HETATM    1  O1  MIQ B 502      -7.132 -29.277  -3.495  1.00142.91    -0.171 OA
HETATM    2  C2  MIQ B 502      -6.348 -28.478  -4.330  1.00141.17     0.195 A 
HETATM    3  C3  MIQ B 502      -6.608 -26.978  -4.682  1.00141.71     0.035 A 
HETATM    4  C4  MIQ B 502      -7.656 -26.006  -4.289  1.00142.86     0.046 A 
HETATM    5  C5  MIQ B 502      -7.624 -24.678  -4.785  1.00139.53     0.031 A 
HETATM    6  C12 MIQ B 502      -6.555 -24.268  -5.684  1.00139.38     0.030 A 
HETATM    7  C13 MIQ B 502      -5.549 -25.200  -6.060  1.00141.18     0.019 A 
HETATM    8  C14 MIQ B 502      -5.587 -26.592  -5.534  1.00138.77     0.033 A 
HETATM    9  C15 MIQ B 502      -4.687 -27.858  -5.712  1.00142.10     0.195 A 
HETATM   10  N17 MIQ B 502      -5.245 -28.808  -4.979  1.00139.42    -0.288 N 
HETATM   11  O16 MIQ B 502      -3.532 -27.960  -6.489  1.00148.93    -0.171 OA
ENDROOT
BRANCH  10  12
HETATM   12  C18 MIQ B 502      -4.682 -30.144  -4.916  1.00139.82     0.187 C 
HETATM   13  C19 MIQ B 502      -5.803 -31.140  -5.240  1.00140.06     0.247 C 
HETATM   14  O25 MIQ B 502      -6.450 -30.981  -6.213  1.00143.95    -0.271 OA
HETATM   15  N20 MIQ B 502      -6.086 -32.276  -4.387  1.00140.02    -0.296 N 
HETATM   16  H13 MIQ B 502      -6.824 -32.915  -4.607  1.00142.77     0.171 HD
HETATM   17  C21 MIQ B 502      -5.288 -32.442  -3.199  1.00142.22     0.224 C 
HETATM   18  C22 MIQ B 502      -4.816 -31.175  -2.512  1.00139.52     0.106 C 
HETATM   19  O24 MIQ B 502      -5.013 -33.515  -2.786  1.00146.13    -0.273 OA
HETATM   20  C23 MIQ B 502      -4.040 -30.386  -3.550  1.00139.15     0.045 C 
ENDBRANCH  10  12
BRANCH   5  21
HETATM   21  N6  MIQ B 502      -8.665 -23.741  -4.404  1.00140.95    -0.377 N 
HETATM   22  C7  MIQ B 502      -9.462 -24.030  -3.224  1.00142.12     0.149 C 
HETATM   23  C8  MIQ B 502     -10.843 -23.392  -3.300  1.00144.10     0.187 C 
HETATM   24  O9  MIQ B 502     -10.801 -22.049  -3.677  1.00148.65    -0.388 OA
HETATM   25  C10 MIQ B 502      -9.613 -21.483  -4.147  1.00147.44     0.187 C 
HETATM   26  C11 MIQ B 502      -8.625 -22.374  -4.892  1.00144.08     0.149 C 
ENDBRANCH   5  21
TORSDOF 2
ENDMDL
MODEL 4
REMARK VINA RESULT:      -5.9      1.606      2.407
REMARK  2 active torsions:
REMARK  status: ('A' for Active; 'I' for Inactive)
REMARK    1  A    between atoms: C5_5  and  N6_21 
REMARK    2  A    between atoms: C18_14  and  N17_19 
ROOT
HETATM    1  O1  MIQ B 502     -14.521 -15.377  -6.721  1.00142.91    -0.171 OA
HETATM    2  C2  MIQ B 502     -14.467 -14.388  -5.736  1.00141.17     0.195 A 
HETATM    3  C3  MIQ B 502     -13.402 -14.275  -4.600  1.00141.71     0.035 A 
HETATM    4  C4  MIQ B 502     -12.219 -15.086  -4.227  1.00142.86     0.046 A 
HETATM    5  C5  MIQ B 502     -11.421 -14.722  -3.113  1.00139.53     0.031 A 
HETATM    6  C12 MIQ B 502     -11.767 -13.543  -2.332  1.00139.38     0.030 A 
HETATM    7  C13 MIQ B 502     -12.900 -12.763  -2.690  1.00141.18     0.019 A 
HETATM    8  C14 MIQ B 502     -13.733 -13.150  -3.862  1.00138.77     0.033 A 
HETATM    9  C15 MIQ B 502     -15.010 -12.561  -4.544  1.00142.10     0.195 A 
HETATM   10  N17 MIQ B 502     -15.281 -13.360  -5.563  1.00139.42    -0.288 N 
HETATM   11  O16 MIQ B 502     -15.718 -11.424  -4.152  1.00148.93    -0.171 OA
ENDROOT
BRANCH  10  12
HETATM   12  C18 MIQ B 502     -16.425 -13.127  -6.425  1.00139.82     0.187 C 
HETATM   13  C19 MIQ B 502     -16.345 -11.680  -6.926  1.00140.06     0.247 C 
HETATM   14  O25 MIQ B 502     -15.342 -11.293  -7.411  1.00143.95    -0.271 OA
HETATM   15  N20 MIQ B 502     -17.471 -10.774  -6.827  1.00140.02    -0.296 N 
HETATM   16  H13 MIQ B 502     -17.404  -9.830  -7.152  1.00142.77     0.171 HD
HETATM   17  C21 MIQ B 502     -18.682 -11.267  -6.221  1.00142.22     0.224 C 
HETATM   18  C22 MIQ B 502     -18.521 -12.280  -5.104  1.00139.52     0.106 C 
HETATM   19  O24 MIQ B 502     -19.746 -10.902  -6.583  1.00146.13    -0.273 OA
HETATM   20  C23 MIQ B 502     -17.723 -13.435  -5.681  1.00139.15     0.045 C 
ENDBRANCH  10  12
BRANCH   5  21
HETATM   21  N6  MIQ B 502     -10.275 -15.534  -2.751  1.00140.95    -0.377 N 
HETATM   22  C7  MIQ B 502      -9.451 -16.086  -3.813  1.00142.12     0.149 C 
HETATM   23  C8  MIQ B 502      -8.743 -17.363  -3.379  1.00144.10     0.187 C 
HETATM   24  O9  MIQ B 502      -8.115 -17.241  -2.138  1.00148.65    -0.388 OA
HETATM   25  C10 MIQ B 502      -8.349 -16.124  -1.332  1.00147.44     0.187 C 
HETATM   26  C11 MIQ B 502      -9.708 -15.436  -1.417  1.00144.08     0.149 C 
ENDBRANCH   5  21
TORSDOF 2
ENDMDL
MODEL 5
REMARK VINA RESULT:      -5.9      1.814      3.260
REMARK  2 active torsions:
REMARK  status: ('A' for Active; 'I' for Inactive)
REMARK    1  A    between atoms: C5_5  and  N6_21 
REMARK    2  A    between atoms: C18_14  and  N17_19 
ROOT
HETATM    1  O1  MIQ B 502     -14.073 -11.843  -2.774  1.00142.91    -0.171 OA
HETATM    2  C2  MIQ B 502     -14.351 -13.026  -3.462  1.00141.17     0.195 A 
HETATM    3  C3  MIQ B 502     -13.395 -14.251  -3.615  1.00141.71     0.035 A 
HETATM    4  C4  MIQ B 502     -12.023 -14.539  -3.132  1.00142.86     0.046 A 
HETATM    5  C5  MIQ B 502     -11.400 -15.775  -3.440  1.00139.53     0.031 A 
HETATM    6  C12 MIQ B 502     -12.113 -16.766  -4.233  1.00139.38     0.030 A 
HETATM    7  C13 MIQ B 502     -13.429 -16.491  -4.694  1.00141.18     0.019 A 
HETATM    8  C14 MIQ B 502     -14.079 -15.192  -4.366  1.00138.77     0.033 A 
HETATM    9  C15 MIQ B 502     -15.468 -14.548  -4.681  1.00142.10     0.195 A 
HETATM   10  N17 MIQ B 502     -15.456 -13.356  -4.108  1.00139.42    -0.288 N 
HETATM   11  O16 MIQ B 502     -16.506 -15.119  -5.421  1.00148.93    -0.171 OA
ENDROOT
BRANCH  10  12
HETATM   12  C18 MIQ B 502     -16.591 -12.457  -4.206  1.00139.82     0.187 C 
HETATM   13  C19 MIQ B 502     -16.076 -11.108  -4.721  1.00140.06     0.247 C 
HETATM   14  O25 MIQ B 502     -15.406 -11.079  -5.691  1.00143.95    -0.271 OA
HETATM   15  N20 MIQ B 502     -16.393  -9.863  -4.051  1.00140.02    -0.296 N 
HETATM   16  H13 MIQ B 502     -16.045  -8.989  -4.393  1.00142.77     0.171 HD
HETATM   17  C21 MIQ B 502     -17.204  -9.925  -2.862  1.00142.22     0.224 C 
HETATM   18  C22 MIQ B 502     -17.030 -11.148  -1.982  1.00139.52     0.106 C 
HETATM   19  O24 MIQ B 502     -17.969  -9.067  -2.591  1.00146.13    -0.273 OA
HETATM   20  C23 MIQ B 502     -17.306 -12.354  -2.860  1.00139.15     0.045 C 
ENDBRANCH  10  12
BRANCH   5  21
HETATM   21  N6  MIQ B 502     -10.051 -16.038  -2.974  1.00140.95    -0.377 N 
HETATM   22  C7  MIQ B 502      -8.959 -15.966  -3.930  1.00142.12     0.149 C 
HETATM   23  C8  MIQ B 502      -7.785 -16.845  -3.520  1.00144.10     0.187 C 
HETATM   24  O9  MIQ B 502      -7.420 -16.676  -2.183  1.00148.65    -0.388 OA
HETATM   25  C10 MIQ B 502      -8.233 -15.943  -1.315  1.00147.44     0.187 C 
HETATM   26  C11 MIQ B 502      -9.738 -15.932  -1.559  1.00144.08     0.149 C 
ENDBRANCH   5  21
TORSDOF 2
ENDMDL
MODEL 6
REMARK VINA RESULT:      -5.9     12.131     18.152
REMARK  2 active torsions:
REMARK  status: ('A' for Active; 'I' for Inactive)
REMARK    1  A    between atoms: C5_5  and  N6_21 
REMARK    2  A    between atoms: C18_14  and  N17_19 
ROOT
HETATM    1  O1  MIQ B 502      -3.734 -27.673  -3.906  1.00142.91    -0.171 OA
HETATM    2  C2  MIQ B 502      -4.976 -28.298  -4.038  1.00141.17     0.195 A 
HETATM    3  C3  MIQ B 502      -6.355 -27.584  -4.212  1.00141.71     0.035 A 
HETATM    4  C4  MIQ B 502      -6.763 -26.162  -4.289  1.00142.86     0.046 A 
HETATM    5  C5  MIQ B 502      -8.128 -25.815  -4.454  1.00139.53     0.031 A 
HETATM    6  C12 MIQ B 502      -9.133 -26.864  -4.550  1.00139.38     0.030 A 
HETATM    7  C13 MIQ B 502      -8.742 -28.229  -4.477  1.00141.18     0.019 A 
HETATM    8  C14 MIQ B 502      -7.307 -28.586  -4.306  1.00138.77     0.033 A 
HETATM    9  C15 MIQ B 502      -6.515 -29.930  -4.191  1.00142.10     0.195 A 
HETATM   10  N17 MIQ B 502      -5.244 -29.593  -4.051  1.00139.42    -0.288 N 
HETATM   11  O16 MIQ B 502      -7.048 -31.219  -4.226  1.00148.93    -0.171 OA
ENDROOT
BRANCH  10  12
HETATM   12  C18 MIQ B 502      -4.207 -30.597  -3.898  1.00139.82     0.187 C 
HETATM   13  C19 MIQ B 502      -4.362 -31.608  -5.041  1.00140.06     0.247 C 
HETATM   14  O25 MIQ B 502      -4.434 -31.215  -6.151  1.00143.95    -0.271 OA
HETATM   15  N20 MIQ B 502      -4.417 -33.034  -4.796  1.00140.02    -0.296 N 
HETATM   16  H13 MIQ B 502      -4.525 -33.683  -5.551  1.00142.77     0.171 HD
HETATM   17  C21 MIQ B 502      -4.337 -33.489  -3.432  1.00142.22     0.224 C 
HETATM   18  C22 MIQ B 502      -4.959 -32.593  -2.378  1.00139.52     0.106 C 
HETATM   19  O24 MIQ B 502      -3.808 -34.507  -3.150  1.00146.13    -0.273 OA
HETATM   20  C23 MIQ B 502      -4.288 -31.238  -2.513  1.00139.15     0.045 C 
ENDBRANCH  10  12
BRANCH   5  21
HETATM   21  N6  MIQ B 502      -8.515 -24.418  -4.513  1.00140.95    -0.377 N 
HETATM   22  C7  MIQ B 502      -9.120 -23.815  -3.338  1.00142.12     0.149 C 
HETATM   23  C8  MIQ B 502     -10.026 -22.645  -3.702  1.00144.10     0.187 C 
HETATM   24  O9  MIQ B 502      -9.427 -21.750  -4.591  1.00148.65    -0.388 OA
HETATM   25  C10 MIQ B 502      -8.223 -22.076  -5.220  1.00147.44     0.187 C 
HETATM   26  C11 MIQ B 502      -7.927 -23.544  -5.513  1.00144.08     0.149 C 
ENDBRANCH   5  21
TORSDOF 2
ENDMDL
MODEL 7
REMARK VINA RESULT:      -5.9      4.169      4.501
REMARK  2 active torsions:
REMARK  status: ('A' for Active; 'I' for Inactive)
REMARK    1  A    between atoms: C5_5  and  N6_21 
REMARK    2  A    between atoms: C18_14  and  N17_19 
ROOT
HETATM    1  O1  MIQ B 502     -17.118 -13.708  -3.422  1.00142.91    -0.171 OA
HETATM    2  C2  MIQ B 502     -16.119 -13.500  -2.468  1.00141.17     0.195 A 
HETATM    3  C3  MIQ B 502     -15.512 -14.581  -1.518  1.00141.71     0.035 A 
HETATM    4  C4  MIQ B 502     -15.761 -16.030  -1.332  1.00142.86     0.046 A 
HETATM    5  C5  MIQ B 502     -15.031 -16.764  -0.364  1.00139.53     0.031 A 
HETATM    6  C12 MIQ B 502     -14.030 -16.090   0.451  1.00139.38     0.030 A 
HETATM    7  C13 MIQ B 502     -13.790 -14.700   0.272  1.00141.18     0.019 A 
HETATM    8  C14 MIQ B 502     -14.558 -13.935  -0.748  1.00138.77     0.033 A 
HETATM    9  C15 MIQ B 502     -14.574 -12.446  -1.223  1.00142.10     0.195 A 
HETATM   10  N17 MIQ B 502     -15.487 -12.376  -2.177  1.00139.42    -0.288 N 
HETATM   11  O16 MIQ B 502     -13.783 -11.404  -0.734  1.00148.93    -0.171 OA
ENDROOT
BRANCH  10  12
HETATM   12  C18 MIQ B 502     -15.788 -11.125  -2.847  1.00139.82     0.187 C 
HETATM   13  C19 MIQ B 502     -17.283 -10.839  -2.655  1.00140.06     0.247 C 
HETATM   14  O25 MIQ B 502     -17.742 -10.878  -1.569  1.00143.95    -0.271 OA
HETATM   15  N20 MIQ B 502     -18.148 -10.516  -3.770  1.00140.02    -0.296 N 
HETATM   16  H13 MIQ B 502     -19.124 -10.338  -3.632  1.00142.77     0.171 HD
HETATM   17  C21 MIQ B 502     -17.567 -10.484  -5.088  1.00142.22     0.224 C 
HETATM   18  C22 MIQ B 502     -16.443 -11.464  -5.360  1.00139.52     0.106 C 
HETATM   19  O24 MIQ B 502     -17.947  -9.727  -5.912  1.00146.13    -0.273 OA
HETATM   20  C23 MIQ B 502     -15.374 -11.195  -4.316  1.00139.15     0.045 C 
ENDBRANCH  10  12
BRANCH   5  21
HETATM   21  N6  MIQ B 502     -15.295 -18.180  -0.182  1.00140.95    -0.377 N 
HETATM   22  C7  MIQ B 502     -15.324 -18.713   1.170  1.00142.12     0.149 C 
HETATM   23  C8  MIQ B 502     -14.966 -20.193   1.205  1.00144.10     0.187 C 
HETATM   24  O9  MIQ B 502     -15.659 -20.942   0.252  1.00148.65    -0.388 OA
HETATM   25  C10 MIQ B 502     -16.403 -20.306  -0.745  1.00147.44     0.187 C 
HETATM   26  C11 MIQ B 502     -15.943 -18.938  -1.237  1.00144.08     0.149 C 
ENDBRANCH   5  21
TORSDOF 2
ENDMDL
MODEL 8
REMARK VINA RESULT:      -5.7      9.091     13.102
REMARK  2 active torsions:
REMARK  status: ('A' for Active; 'I' for Inactive)
REMARK    1  A    between atoms: C5_5  and  N6_21 
REMARK    2  A    between atoms: C18_14  and  N17_19 
ROOT
HETATM    1  O1  MIQ B 502     -10.074 -24.539  -4.308  1.00142.91    -0.171 OA
HETATM    2  C2  MIQ B 502      -8.883 -24.201  -4.955  1.00141.17     0.195 A 
HETATM    3  C3  MIQ B 502      -7.601 -25.088  -5.049  1.00141.71     0.035 A 
HETATM    4  C4  MIQ B 502      -7.256 -26.437  -4.542  1.00142.86     0.046 A 
HETATM    5  C5  MIQ B 502      -5.977 -26.993  -4.795  1.00139.53     0.031 A 
HETATM    6  C12 MIQ B 502      -4.997 -26.233  -5.558  1.00139.38     0.030 A 
HETATM    7  C13 MIQ B 502      -5.328 -24.939  -6.045  1.00141.18     0.019 A 
HETATM    8  C14 MIQ B 502      -6.674 -24.362  -5.778  1.00138.77     0.033 A 
HETATM    9  C15 MIQ B 502      -7.385 -23.018  -6.140  1.00142.10     0.195 A 
HETATM   10  N17 MIQ B 502      -8.596 -23.092  -5.613  1.00139.42    -0.288 N 
HETATM   11  O16 MIQ B 502      -6.845 -21.957  -6.869  1.00148.93    -0.171 OA
ENDROOT
BRANCH  10  12
HETATM   12  C18 MIQ B 502      -9.544 -22.000  -5.738  1.00139.82     0.187 C 
HETATM   13  C19 MIQ B 502     -10.057 -21.664  -4.333  1.00140.06     0.247 C 
HETATM   14  O25 MIQ B 502      -9.280 -21.475  -3.465  1.00143.95    -0.271 OA
HETATM   15  N20 MIQ B 502     -11.472 -21.565  -4.040  1.00140.02    -0.296 N 
HETATM   16  H13 MIQ B 502     -11.794 -21.351  -3.116  1.00142.77     0.171 HD
HETATM   17  C21 MIQ B 502     -12.402 -21.810  -5.112  1.00142.22     0.224 C 
HETATM   18  C22 MIQ B 502     -11.991 -22.838  -6.148  1.00139.52     0.106 C 
HETATM   19  O24 MIQ B 502     -13.431 -21.233  -5.182  1.00146.13    -0.273 OA
HETATM   20  C23 MIQ B 502     -10.660 -22.374  -6.712  1.00139.15     0.045 C 
ENDBRANCH  10  12
BRANCH   5  21
HETATM   21  N6  MIQ B 502      -5.647 -28.309  -4.280  1.00140.95    -0.377 N 
HETATM   22  C7  MIQ B 502      -6.540 -29.415  -4.578  1.00142.12     0.149 C 
HETATM   23  C8  MIQ B 502      -6.468 -30.507  -3.518  1.00144.10     0.187 C 
HETATM   24  O9  MIQ B 502      -5.158 -30.867  -3.197  1.00148.65    -0.388 OA
HETATM   25  C10 MIQ B 502      -4.081 -30.107  -3.661  1.00147.44     0.187 C 
HETATM   26  C11 MIQ B 502      -4.284 -28.611  -3.878  1.00144.08     0.149 C 
ENDBRANCH   5  21
TORSDOF 2
ENDMDL
MODEL 9
REMARK VINA RESULT:      -5.7      3.785      6.267
REMARK  2 active torsions:
REMARK  status: ('A' for Active; 'I' for Inactive)
REMARK    1  A    between atoms: C5_5  and  N6_21 
REMARK    2  A    between atoms: C18_14  and  N17_19 
ROOT
HETATM    1  O1  MIQ B 502     -11.325 -15.796  -1.522  1.00142.91    -0.171 OA
HETATM    2  C2  MIQ B 502     -12.252 -15.470  -2.514  1.00141.17     0.195 A 
HETATM    3  C3  MIQ B 502     -12.567 -16.308  -3.794  1.00141.71     0.035 A 
HETATM    4  C4  MIQ B 502     -12.047 -17.591  -4.325  1.00142.86     0.046 A 
HETATM    5  C5  MIQ B 502     -12.542 -18.114  -5.546  1.00139.53     0.031 A 
HETATM    6  C12 MIQ B 502     -13.567 -17.387  -6.281  1.00139.38     0.030 A 
HETATM    7  C13 MIQ B 502     -14.066 -16.158  -5.772  1.00141.18     0.019 A 
HETATM    8  C14 MIQ B 502     -13.544 -15.614  -4.488  1.00138.77     0.033 A 
HETATM    9  C15 MIQ B 502     -13.839 -14.338  -3.634  1.00142.10     0.195 A 
HETATM   10  N17 MIQ B 502     -13.044 -14.413  -2.579  1.00139.42    -0.288 N 
HETATM   11  O16 MIQ B 502     -14.753 -13.326  -3.932  1.00148.93    -0.171 OA
ENDROOT
BRANCH  10  12
HETATM   12  C18 MIQ B 502     -13.034 -13.377  -1.563  1.00139.82     0.187 C 
HETATM   13  C19 MIQ B 502     -11.582 -12.921  -1.375  1.00140.06     0.247 C 
HETATM   14  O25 MIQ B 502     -10.947 -12.617  -2.321  1.00143.95    -0.271 OA
HETATM   15  N20 MIQ B 502     -10.969 -12.848  -0.064  1.00140.02    -0.296 N 
HETATM   16  H13 MIQ B 502     -10.018 -12.555   0.045  1.00142.77     0.171 HD
HETATM   17  C21 MIQ B 502     -11.762 -13.235   1.074  1.00142.22     0.224 C 
HETATM   18  C22 MIQ B 502     -12.771 -14.345   0.855  1.00139.52     0.106 C 
HETATM   19  O24 MIQ B 502     -11.634 -12.708   2.124  1.00146.13    -0.273 OA
HETATM   20  C23 MIQ B 502     -13.676 -13.890  -0.275  1.00139.15     0.045 C 
ENDBRANCH  10  12
BRANCH   5  21
HETATM   21  N6  MIQ B 502     -12.014 -19.364  -6.061  1.00140.95    -0.377 N 
HETATM   22  C7  MIQ B 502     -11.685 -20.420  -5.119  1.00142.12     0.149 C 
HETATM   23  C8  MIQ B 502     -10.601 -21.346  -5.658  1.00144.10     0.187 C 
HETATM   24  O9  MIQ B 502     -10.848 -21.768  -6.966  1.00148.65    -0.388 OA
HETATM   25  C10 MIQ B 502     -11.868 -21.180  -7.719  1.00147.44     0.187 C 
HETATM   26  C11 MIQ B 502     -12.223 -19.721  -7.454  1.00144.08     0.149 C 
ENDBRANCH   5  21
TORSDOF 2
ENDMDL
