MODEL 1
REMARK VINA RESULT:      -6.2      0.000      0.000
REMARK  2 active torsions:
REMARK  status: ('A' for Active; 'I' for Inactive)
REMARK    1  A    between atoms: C5_5  and  N6_21 
REMARK    2  A    between atoms: C18_14  and  N17_19 
ROOT
HETATM    1  O1  MIQ B 502       0.566  28.461 -19.249  1.00142.91    -0.171 OA
HETATM    2  C2  MIQ B 502       0.967  29.797 -19.313  1.00141.17     0.195 A 
HETATM    3  C3  MIQ B 502       2.439  30.319 -19.314  1.00141.71     0.035 A 
HETATM    4  C4  MIQ B 502       3.759  29.646 -19.258  1.00142.86     0.046 A 
HETATM    5  C5  MIQ B 502       4.954  30.409 -19.278  1.00139.53     0.031 A 
HETATM    6  C12 MIQ B 502       4.883  31.861 -19.355  1.00139.38     0.030 A 
HETATM    7  C13 MIQ B 502       3.618  32.506 -19.410  1.00141.18     0.019 A 
HETATM    8  C14 MIQ B 502       2.367  31.700 -19.391  1.00138.77     0.033 A 
HETATM    9  C15 MIQ B 502       0.841  32.038 -19.437  1.00142.10     0.195 A 
HETATM   10  N17 MIQ B 502       0.208  30.877 -19.389  1.00139.42    -0.288 N 
HETATM   11  O16 MIQ B 502       0.268  33.308 -19.513  1.00148.93    -0.171 OA
ENDROOT
BRANCH  10  12
HETATM   12  C18 MIQ B 502      -1.241  30.803 -19.396  1.00139.82     0.187 C 
HETATM   13  C19 MIQ B 502      -1.671  29.923 -18.216  1.00140.06     0.247 C 
HETATM   14  O25 MIQ B 502      -1.248  30.157 -17.140  1.00143.95    -0.271 OA
HETATM   15  N20 MIQ B 502      -2.588  28.815 -18.384  1.00140.02    -0.296 N 
HETATM   16  H13 MIQ B 502      -2.856  28.244 -17.606  1.00142.77     0.171 HD
HETATM   17  C21 MIQ B 502      -3.083  28.544 -19.709  1.00142.22     0.224 C 
HETATM   18  C22 MIQ B 502      -2.137  28.825 -20.860  1.00139.52     0.106 C 
HETATM   19  O24 MIQ B 502      -4.175  28.128 -19.888  1.00146.13    -0.273 OA
HETATM   20  C23 MIQ B 502      -1.740  30.286 -20.745  1.00139.15     0.045 C 
ENDBRANCH  10  12
BRANCH   5  21
HETATM   21  N6  MIQ B 502       6.239  29.738 -19.208  1.00140.95    -0.377 N 
HETATM   22  C7  MIQ B 502       7.154  30.100 -18.139  1.00142.12     0.149 C 
HETATM   23  C8  MIQ B 502       8.606  29.851 -18.525  1.00144.10     0.187 C 
HETATM   24  O9  MIQ B 502       8.811  28.588 -19.084  1.00148.65    -0.388 OA
HETATM   25  C10 MIQ B 502       7.723  27.786 -19.438  1.00147.44     0.187 C 
HETATM   26  C11 MIQ B 502       6.430  28.464 -19.879  1.00144.08     0.149 C 
ENDBRANCH   5  21
TORSDOF 2
ENDMDL
MODEL 2
REMARK VINA RESULT:      -6.1      1.926      3.296
REMARK  2 active torsions:
REMARK  status: ('A' for Active; 'I' for Inactive)
REMARK    1  A    between atoms: C5_5  and  N6_21 
REMARK    2  A    between atoms: C18_14  and  N17_19 
ROOT
HETATM    1  O1  MIQ B 502      -1.285  32.457 -20.518  1.00142.91    -0.171 OA
HETATM    2  C2  MIQ B 502      -1.012  31.144 -20.131  1.00141.17     0.195 A 
HETATM    3  C3  MIQ B 502       0.387  30.569 -19.742  1.00141.71     0.035 A 
HETATM    4  C4  MIQ B 502       1.744  31.159 -19.658  1.00142.86     0.046 A 
HETATM    5  C5  MIQ B 502       2.849  30.364 -19.262  1.00139.53     0.031 A 
HETATM    6  C12 MIQ B 502       2.648  28.960 -18.935  1.00139.38     0.030 A 
HETATM    7  C13 MIQ B 502       1.347  28.393 -19.014  1.00141.18     0.019 A 
HETATM    8  C14 MIQ B 502       0.190  29.234 -19.429  1.00138.77     0.033 A 
HETATM    9  C15 MIQ B 502      -1.340  28.979 -19.624  1.00142.10     0.195 A 
HETATM   10  N17 MIQ B 502      -1.856  30.134 -20.010  1.00139.42    -0.288 N 
HETATM   11  O16 MIQ B 502      -2.017  27.773 -19.431  1.00148.93    -0.171 OA
ENDROOT
BRANCH  10  12
HETATM   12  C18 MIQ B 502      -3.271  30.270 -20.303  1.00139.82     0.187 C 
HETATM   13  C19 MIQ B 502      -4.053  29.700 -19.113  1.00140.06     0.247 C 
HETATM   14  O25 MIQ B 502      -3.791  30.067 -18.023  1.00143.95    -0.271 OA
HETATM   15  N20 MIQ B 502      -5.109  28.725 -19.290  1.00140.02    -0.296 N 
HETATM   16  H13 MIQ B 502      -5.607  28.355 -18.505  1.00142.77     0.171 HD
HETATM   17  C21 MIQ B 502      -5.402  28.284 -20.629  1.00142.22     0.224 C 
HETATM   18  C22 MIQ B 502      -4.233  28.204 -21.592  1.00139.52     0.106 C 
HETATM   19  O24 MIQ B 502      -6.502  28.004 -20.961  1.00146.13    -0.273 OA
HETATM   20  C23 MIQ B 502      -3.608  29.587 -21.627  1.00139.15     0.045 C 
ENDBRANCH  10  12
BRANCH   5  21
HETATM   21  N6  MIQ B 502       4.174  30.952 -19.198  1.00140.95    -0.377 N 
HETATM   22  C7  MIQ B 502       5.327  30.067 -19.183  1.00142.12     0.149 C 
HETATM   23  C8  MIQ B 502       6.524  30.705 -18.491  1.00144.10     0.187 C 
HETATM   24  O9  MIQ B 502       6.777  32.006 -18.931  1.00148.65    -0.388 OA
HETATM   25  C10 MIQ B 502       5.853  32.671 -19.742  1.00147.44     0.187 C 
HETATM   26  C11 MIQ B 502       4.373  32.338 -19.586  1.00144.08     0.149 C 
ENDBRANCH   5  21
TORSDOF 2
ENDMDL
MODEL 3
REMARK VINA RESULT:      -6.0     18.647     19.940
REMARK  2 active torsions:
REMARK  status: ('A' for Active; 'I' for Inactive)
REMARK    1  A    between atoms: C5_5  and  N6_21 
REMARK    2  A    between atoms: C18_14  and  N17_19 
ROOT
HETATM    1  O1  MIQ B 502       2.713  16.911  -4.955  1.00142.91    -0.171 OA
HETATM    2  C2  MIQ B 502       2.262  15.989  -5.902  1.00141.17     0.195 A 
HETATM    3  C3  MIQ B 502       3.141  14.950  -6.668  1.00141.71     0.035 A 
HETATM    4  C4  MIQ B 502       4.588  14.628  -6.649  1.00142.86     0.046 A 
HETATM    5  C5  MIQ B 502       5.105  13.603  -7.480  1.00139.53     0.031 A 
HETATM    6  C12 MIQ B 502       4.209  12.863  -8.357  1.00139.38     0.030 A 
HETATM    7  C13 MIQ B 502       2.822  13.171  -8.376  1.00141.18     0.019 A 
HETATM    8  C14 MIQ B 502       2.284  14.246  -7.499  1.00138.77     0.033 A 
HETATM    9  C15 MIQ B 502       0.865  14.851  -7.246  1.00142.10     0.195 A 
HETATM   10  N17 MIQ B 502       1.028  15.798  -6.336  1.00139.42    -0.288 N 
HETATM   11  O16 MIQ B 502      -0.329  14.468  -7.860  1.00148.93    -0.171 OA
ENDROOT
BRANCH  10  12
HETATM   12  C18 MIQ B 502      -0.089  16.594  -5.863  1.00139.82     0.187 C 
HETATM   13  C19 MIQ B 502       0.311  18.071  -5.972  1.00140.06     0.247 C 
HETATM   14  O25 MIQ B 502       0.741  18.478  -6.992  1.00143.95    -0.271 OA
HETATM   15  N20 MIQ B 502       0.169  18.984  -4.856  1.00140.02    -0.296 N 
HETATM   16  H13 MIQ B 502       0.440  19.945  -4.937  1.00142.77     0.171 HD
HETATM   17  C21 MIQ B 502      -0.348  18.461  -3.618  1.00142.22     0.224 C 
HETATM   18  C22 MIQ B 502       0.009  17.026  -3.282  1.00139.52     0.106 C 
HETATM   19  O24 MIQ B 502      -1.022  19.119  -2.903  1.00146.13    -0.273 OA
HETATM   20  C23 MIQ B 502      -0.475  16.179  -4.445  1.00139.15     0.045 C 
ENDBRANCH  10  12
BRANCH   5  21
HETATM   21  N6  MIQ B 502       6.526  13.308  -7.462  1.00140.95    -0.377 N 
HETATM   22  C7  MIQ B 502       7.110  12.779  -6.241  1.00142.12     0.149 C 
HETATM   23  C8  MIQ B 502       8.591  13.118  -6.125  1.00144.10     0.187 C 
HETATM   24  O9  MIQ B 502       9.303  12.844  -7.295  1.00148.65    -0.388 OA
HETATM   25  C10 MIQ B 502       8.629  12.522  -8.475  1.00147.44     0.187 C 
HETATM   26  C11 MIQ B 502       7.244  13.115  -8.710  1.00144.08     0.149 C 
ENDBRANCH   5  21
TORSDOF 2
ENDMDL
MODEL 4
REMARK VINA RESULT:      -6.0      2.666      7.844
REMARK  2 active torsions:
REMARK  status: ('A' for Active; 'I' for Inactive)
REMARK    1  A    between atoms: C5_5  and  N6_21 
REMARK    2  A    between atoms: C18_14  and  N17_19 
ROOT
HETATM    1  O1  MIQ B 502       2.152  33.582 -19.734  1.00142.91    -0.171 OA
HETATM    2  C2  MIQ B 502       2.682  32.307 -19.529  1.00141.17     0.195 A 
HETATM    3  C3  MIQ B 502       1.874  30.971 -19.470  1.00141.71     0.035 A 
HETATM    4  C4  MIQ B 502       0.434  30.645 -19.601  1.00142.86     0.046 A 
HETATM    5  C5  MIQ B 502      -0.008  29.301 -19.501  1.00139.53     0.031 A 
HETATM    6  C12 MIQ B 502       0.958  28.238 -19.268  1.00139.38     0.030 A 
HETATM    7  C13 MIQ B 502       2.339  28.550 -19.143  1.00141.18     0.019 A 
HETATM    8  C14 MIQ B 502       2.798  29.962 -19.252  1.00138.77     0.033 A 
HETATM    9  C15 MIQ B 502       4.187  30.675 -19.176  1.00142.10     0.195 A 
HETATM   10  N17 MIQ B 502       3.946  31.964 -19.350  1.00139.42    -0.288 N 
HETATM   11  O16 MIQ B 502       5.427  30.069 -18.963  1.00148.93    -0.171 OA
ENDROOT
BRANCH  10  12
HETATM   12  C18 MIQ B 502       5.015  32.945 -19.325  1.00139.82     0.187 C 
HETATM   13  C19 MIQ B 502       4.635  34.025 -18.305  1.00140.06     0.247 C 
HETATM   14  O25 MIQ B 502       4.308  33.702 -17.219  1.00143.95    -0.271 OA
HETATM   15  N20 MIQ B 502       4.672  35.435 -18.636  1.00140.02    -0.296 N 
HETATM   16  H13 MIQ B 502       4.415  36.130 -17.963  1.00142.77     0.171 HD
HETATM   17  C21 MIQ B 502       5.064  35.804 -19.972  1.00142.22     0.224 C 
HETATM   18  C22 MIQ B 502       4.670  34.852 -21.085  1.00139.52     0.106 C 
HETATM   19  O24 MIQ B 502       5.668  36.797 -20.186  1.00146.13    -0.273 OA
HETATM   20  C23 MIQ B 502       5.260  33.501 -20.727  1.00139.15     0.045 C 
ENDBRANCH  10  12
BRANCH   5  21
HETATM   21  N6  MIQ B 502      -1.423  28.998 -19.616  1.00140.95    -0.377 N 
HETATM   22  C7  MIQ B 502      -2.193  28.799 -18.400  1.00142.12     0.149 C 
HETATM   23  C8  MIQ B 502      -3.399  27.898 -18.631  1.00144.10     0.187 C 
HETATM   24  O9  MIQ B 502      -4.143  28.263 -19.755  1.00148.65    -0.388 OA
HETATM   25  C10 MIQ B 502      -3.646  29.209 -20.655  1.00147.44     0.187 C 
HETATM   26  C11 MIQ B 502      -2.137  29.318 -20.840  1.00144.08     0.149 C 
ENDBRANCH   5  21
TORSDOF 2
ENDMDL
MODEL 5
REMARK VINA RESULT:      -6.0     17.546     19.211
REMARK  2 active torsions:
REMARK  status: ('A' for Active; 'I' for Inactive)
REMARK    1  A    between atoms: C5_5  and  N6_21 
REMARK    2  A    between atoms: C18_14  and  N17_19 
ROOT
HETATM    1  O1  MIQ B 502       4.325  14.901  -9.951  1.00142.91    -0.171 OA
HETATM    2  C2  MIQ B 502       5.407  14.358  -9.255  1.00141.17     0.195 A 
HETATM    3  C3  MIQ B 502       6.888  14.302  -9.750  1.00141.71     0.035 A 
HETATM    4  C4  MIQ B 502       7.567  14.760 -10.985  1.00142.86     0.046 A 
HETATM    5  C5  MIQ B 502       8.962  14.565 -11.150  1.00139.53     0.031 A 
HETATM    6  C12 MIQ B 502       9.730  13.913 -10.099  1.00139.38     0.030 A 
HETATM    7  C13 MIQ B 502       9.079  13.475  -8.914  1.00141.18     0.019 A 
HETATM    8  C14 MIQ B 502       7.615  13.684  -8.746  1.00138.77     0.033 A 
HETATM    9  C15 MIQ B 502       6.580  13.354  -7.621  1.00142.10     0.195 A 
HETATM   10  N17 MIQ B 502       5.412  13.794  -8.059  1.00139.42    -0.288 N 
HETATM   11  O16 MIQ B 502       6.841  12.722  -6.404  1.00148.93    -0.171 OA
ENDROOT
BRANCH  10  12
HETATM   12  C18 MIQ B 502       4.202  13.642  -7.273  1.00139.82     0.187 C 
HETATM   13  C19 MIQ B 502       3.124  13.043  -8.185  1.00140.06     0.247 C 
HETATM   14  O25 MIQ B 502       3.370  12.071  -8.806  1.00143.95    -0.271 OA
HETATM   15  N20 MIQ B 502       1.806  13.635  -8.300  1.00140.02    -0.296 N 
HETATM   16  H13 MIQ B 502       1.114  13.238  -8.904  1.00142.77     0.171 HD
HETATM   17  C21 MIQ B 502       1.533  14.827  -7.539  1.00142.22     0.224 C 
HETATM   18  C22 MIQ B 502       2.693  15.781  -7.329  1.00139.52     0.106 C 
HETATM   19  O24 MIQ B 502       0.459  15.045  -7.097  1.00146.13    -0.273 OA
HETATM   20  C23 MIQ B 502       3.795  14.980  -6.659  1.00139.15     0.045 C 
ENDBRANCH  10  12
BRANCH   5  21
HETATM   21  N6  MIQ B 502       9.612  15.005 -12.371  1.00140.95    -0.377 N 
HETATM   22  C7  MIQ B 502       8.950  14.754 -13.640  1.00142.12     0.149 C 
HETATM   23  C8  MIQ B 502       9.943  14.655 -14.790  1.00144.10     0.187 C 
HETATM   24  O9  MIQ B 502      10.872  15.697 -14.798  1.00148.65    -0.388 OA
HETATM   25  C10 MIQ B 502      10.968  16.567 -13.708  1.00147.44     0.187 C 
HETATM   26  C11 MIQ B 502      10.635  16.035 -12.318  1.00144.08     0.149 C 
ENDBRANCH   5  21
TORSDOF 2
ENDMDL
MODEL 6
REMARK VINA RESULT:      -6.0     13.296     16.302
REMARK  2 active torsions:
REMARK  status: ('A' for Active; 'I' for Inactive)
REMARK    1  A    between atoms: C5_5  and  N6_21 
REMARK    2  A    between atoms: C18_14  and  N17_19 
ROOT
HETATM    1  O1  MIQ B 502     -10.051  24.121 -13.630  1.00142.91    -0.171 OA
HETATM    2  C2  MIQ B 502      -9.337  22.979 -13.261  1.00141.17     0.195 A 
HETATM    3  C3  MIQ B 502      -9.006  22.530 -11.802  1.00141.71     0.035 A 
HETATM    4  C4  MIQ B 502      -9.308  23.099 -10.467  1.00142.86     0.046 A 
HETATM    5  C5  MIQ B 502      -8.862  22.445  -9.291  1.00139.53     0.031 A 
HETATM    6  C12 MIQ B 502      -8.104  21.206  -9.397  1.00139.38     0.030 A 
HETATM    7  C13 MIQ B 502      -7.815  20.660 -10.676  1.00141.18     0.019 A 
HETATM    8  C14 MIQ B 502      -8.288  21.350 -11.907  1.00138.77     0.033 A 
HETATM    9  C15 MIQ B 502      -8.173  21.065 -13.440  1.00142.10     0.195 A 
HETATM   10  N17 MIQ B 502      -8.806  22.056 -14.045  1.00139.42    -0.288 N 
HETATM   11  O16 MIQ B 502      -7.529  19.983 -14.043  1.00148.93    -0.171 OA
ENDROOT
BRANCH  10  12
HETATM   12  C18 MIQ B 502      -8.890  22.131 -15.491  1.00139.82     0.187 C 
HETATM   13  C19 MIQ B 502      -8.392  23.517 -15.918  1.00140.06     0.247 C 
HETATM   14  O25 MIQ B 502      -7.352  23.904 -15.517  1.00143.95    -0.271 OA
HETATM   15  N20 MIQ B 502      -9.160  24.365 -16.806  1.00140.02    -0.296 N 
HETATM   16  H13 MIQ B 502      -8.827  25.270 -17.072  1.00142.77     0.171 HD
HETATM   17  C21 MIQ B 502     -10.431  23.875 -17.274  1.00142.22     0.224 C 
HETATM   18  C22 MIQ B 502     -11.218  23.000 -16.318  1.00139.52     0.106 C 
HETATM   19  O24 MIQ B 502     -10.836  24.139 -18.353  1.00146.13    -0.273 OA
HETATM   20  C23 MIQ B 502     -10.315  21.835 -15.957  1.00139.15     0.045 C 
ENDBRANCH  10  12
BRANCH   5  21
HETATM   21  N6  MIQ B 502      -9.153  23.021  -7.991  1.00140.95    -0.377 N 
HETATM   22  C7  MIQ B 502     -10.298  22.521  -7.249  1.00142.12     0.149 C 
HETATM   23  C8  MIQ B 502     -10.859  23.567  -6.295  1.00144.10     0.187 C 
HETATM   24  O9  MIQ B 502      -9.872  24.185  -5.525  1.00148.65    -0.388 OA
HETATM   25  C10 MIQ B 502      -8.520  23.987  -5.816  1.00147.44     0.187 C 
HETATM   26  C11 MIQ B 502      -8.115  23.730  -7.264  1.00144.08     0.149 C 
ENDBRANCH   5  21
TORSDOF 2
ENDMDL
MODEL 7
REMARK VINA RESULT:      -6.0     18.796     20.706
REMARK  2 active torsions:
REMARK  status: ('A' for Active; 'I' for Inactive)
REMARK    1  A    between atoms: C5_5  and  N6_21 
REMARK    2  A    between atoms: C18_14  and  N17_19 
ROOT
HETATM    1  O1  MIQ B 502       1.451  15.187  -6.882  1.00142.91    -0.171 OA
HETATM    2  C2  MIQ B 502       2.243  15.994  -6.062  1.00141.17     0.195 A 
HETATM    3  C3  MIQ B 502       1.752  16.822  -4.832  1.00141.71     0.035 A 
HETATM    4  C4  MIQ B 502       0.428  17.006  -4.190  1.00142.86     0.046 A 
HETATM    5  C5  MIQ B 502       0.293  17.842  -3.053  1.00139.53     0.031 A 
HETATM    6  C12 MIQ B 502       1.462  18.523  -2.514  1.00139.38     0.030 A 
HETATM    7  C13 MIQ B 502       2.731  18.346  -3.129  1.00141.18     0.019 A 
HETATM    8  C14 MIQ B 502       2.867  17.465  -4.320  1.00138.77     0.033 A 
HETATM    9  C15 MIQ B 502       4.057  17.033  -5.238  1.00142.10     0.195 A 
HETATM   10  N17 MIQ B 502       3.542  16.220  -6.146  1.00139.42    -0.288 N 
HETATM   11  O16 MIQ B 502       5.390  17.431  -5.120  1.00148.93    -0.171 OA
ENDROOT
BRANCH  10  12
HETATM   12  C18 MIQ B 502       4.364  15.631  -7.186  1.00139.82     0.187 C 
HETATM   13  C19 MIQ B 502       3.709  15.951  -8.536  1.00140.06     0.247 C 
HETATM   14  O25 MIQ B 502       3.418  17.067  -8.784  1.00143.95    -0.271 OA
HETATM   15  N20 MIQ B 502       3.444  14.921  -9.520  1.00140.02    -0.296 N 
HETATM   16  H13 MIQ B 502       3.010  15.142 -10.394  1.00142.77     0.171 HD
HETATM   17  C21 MIQ B 502       3.799  13.565  -9.189  1.00142.22     0.224 C 
HETATM   18  C22 MIQ B 502       3.674  13.164  -7.732  1.00139.52     0.106 C 
HETATM   19  O24 MIQ B 502       4.174  12.806 -10.014  1.00146.13    -0.273 OA
HETATM   20  C23 MIQ B 502       4.536  14.132  -6.943  1.00139.15     0.045 C 
ENDBRANCH  10  12
BRANCH   5  21
HETATM   21  N6  MIQ B 502      -1.012  18.025  -2.444  1.00140.95    -0.377 N 
HETATM   22  C7  MIQ B 502      -1.229  19.191  -1.605  1.00142.12     0.149 C 
HETATM   23  C8  MIQ B 502      -2.315  18.949  -0.565  1.00144.10     0.187 C 
HETATM   24  O9  MIQ B 502      -3.469  18.380  -1.107  1.00148.65    -0.388 OA
HETATM   25  C10 MIQ B 502      -3.471  17.895  -2.417  1.00147.44     0.187 C 
HETATM   26  C11 MIQ B 502      -2.171  17.343  -2.993  1.00144.08     0.149 C 
ENDBRANCH   5  21
TORSDOF 2
ENDMDL
MODEL 8
REMARK VINA RESULT:      -5.9     16.875     19.123
REMARK  2 active torsions:
REMARK  status: ('A' for Active; 'I' for Inactive)
REMARK    1  A    between atoms: C5_5  and  N6_21 
REMARK    2  A    between atoms: C18_14  and  N17_19 
ROOT
HETATM    1  O1  MIQ B 502       5.132  16.333  -8.502  1.00142.91    -0.171 OA
HETATM    2  C2  MIQ B 502       3.900  15.741  -8.215  1.00141.17     0.195 A 
HETATM    3  C3  MIQ B 502       2.531  16.481  -8.079  1.00141.71     0.035 A 
HETATM    4  C4  MIQ B 502       2.123  17.901  -8.199  1.00142.86     0.046 A 
HETATM    5  C5  MIQ B 502       0.768  18.275  -8.019  1.00139.53     0.031 A 
HETATM    6  C12 MIQ B 502      -0.228  17.258  -7.714  1.00139.38     0.030 A 
HETATM    7  C13 MIQ B 502       0.162  15.897  -7.600  1.00141.18     0.019 A 
HETATM    8  C14 MIQ B 502       1.586  15.509  -7.793  1.00138.77     0.033 A 
HETATM    9  C15 MIQ B 502       2.372  14.158  -7.752  1.00142.10     0.195 A 
HETATM   10  N17 MIQ B 502       3.634  14.463  -8.007  1.00139.42    -0.288 N 
HETATM   11  O16 MIQ B 502       1.845  12.892  -7.494  1.00148.93    -0.171 OA
ENDROOT
BRANCH  10  12
HETATM   12  C18 MIQ B 502       4.668  13.445  -8.035  1.00139.82     0.187 C 
HETATM   13  C19 MIQ B 502       5.840  13.946  -7.183  1.00140.06     0.247 C 
HETATM   14  O25 MIQ B 502       5.633  14.332  -6.088  1.00143.95    -0.271 OA
HETATM   15  N20 MIQ B 502       7.200  13.952  -7.683  1.00140.02    -0.296 N 
HETATM   16  H13 MIQ B 502       7.956  14.288  -7.119  1.00142.77     0.171 HD
HETATM   17  C21 MIQ B 502       7.427  13.485  -9.027  1.00142.22     0.224 C 
HETATM   18  C22 MIQ B 502       6.328  13.756 -10.036  1.00139.52     0.106 C 
HETATM   19  O24 MIQ B 502       8.419  12.915  -9.323  1.00146.13    -0.273 OA
HETATM   20  C23 MIQ B 502       5.064  13.129  -9.477  1.00139.15     0.045 C 
ENDBRANCH  10  12
BRANCH   5  21
HETATM   21  N6  MIQ B 502       0.386  19.672  -8.125  1.00140.95    -0.377 N 
HETATM   22  C7  MIQ B 502       1.278  20.585  -8.817  1.00142.12     0.149 C 
HETATM   23  C8  MIQ B 502       1.122  22.017  -8.322  1.00144.10     0.187 C 
HETATM   24  O9  MIQ B 502      -0.212  22.425  -8.250  1.00148.65    -0.388 OA
HETATM   25  C10 MIQ B 502      -1.245  21.497  -8.402  1.00147.44     0.187 C 
HETATM   26  C11 MIQ B 502      -1.004  20.058  -7.956  1.00144.08     0.149 C 
ENDBRANCH   5  21
TORSDOF 2
ENDMDL
MODEL 9
REMARK VINA RESULT:      -5.9     18.489     20.571
REMARK  2 active torsions:
REMARK  status: ('A' for Active; 'I' for Inactive)
REMARK    1  A    between atoms: C5_5  and  N6_21 
REMARK    2  A    between atoms: C18_14  and  N17_19 
ROOT
HETATM    1  O1  MIQ B 502       0.429  15.184  -8.071  1.00142.91    -0.171 OA
HETATM    2  C2  MIQ B 502       1.464  15.579  -7.220  1.00141.17     0.195 A 
HETATM    3  C3  MIQ B 502       1.309  16.393  -5.896  1.00141.71     0.035 A 
HETATM    4  C4  MIQ B 502       0.142  16.954  -5.176  1.00142.86     0.046 A 
HETATM    5  C5  MIQ B 502       0.322  17.664  -3.961  1.00139.53     0.031 A 
HETATM    6  C12 MIQ B 502       1.662  17.840  -3.420  1.00139.38     0.030 A 
HETATM    7  C13 MIQ B 502       2.781  17.300  -4.109  1.00141.18     0.019 A 
HETATM    8  C14 MIQ B 502       2.585  16.555  -5.383  1.00138.77     0.033 A 
HETATM    9  C15 MIQ B 502       3.538  15.837  -6.394  1.00142.10     0.195 A 
HETATM   10  N17 MIQ B 502       2.760  15.350  -7.346  1.00139.42    -0.288 N 
HETATM   11  O16 MIQ B 502       4.927  15.735  -6.305  1.00148.93    -0.171 OA
ENDROOT
BRANCH  10  12
HETATM   12  C18 MIQ B 502       3.309  14.624  -8.476  1.00139.82     0.187 C 
HETATM   13  C19 MIQ B 502       4.174  13.485  -7.924  1.00140.06     0.247 C 
HETATM   14  O25 MIQ B 502       3.720  12.758  -7.113  1.00143.95    -0.271 OA
HETATM   15  N20 MIQ B 502       5.534  13.270  -8.376  1.00140.02    -0.296 N 
HETATM   16  H13 MIQ B 502       6.090  12.526  -8.003  1.00142.77     0.171 HD
HETATM   17  C21 MIQ B 502       6.069  14.176  -9.359  1.00142.22     0.224 C 
HETATM   18  C22 MIQ B 502       5.593  15.615  -9.290  1.00139.52     0.106 C 
HETATM   19  O24 MIQ B 502       6.837  13.813 -10.180  1.00146.13    -0.273 OA
HETATM   20  C23 MIQ B 502       4.079  15.573  -9.394  1.00139.15     0.045 C 
ENDBRANCH  10  12
BRANCH   5  21
HETATM   21  N6  MIQ B 502      -0.829  18.221  -3.274  1.00140.95    -0.377 N 
HETATM   22  C7  MIQ B 502      -1.593  17.360  -2.388  1.00142.12     0.149 C 
HETATM   23  C8  MIQ B 502      -3.041  17.816  -2.263  1.00144.10     0.187 C 
HETATM   24  O9  MIQ B 502      -3.161  19.184  -2.014  1.00148.65    -0.388 OA
HETATM   25  C10 MIQ B 502      -2.048  20.023  -2.119  1.00147.44     0.187 C 
HETATM   26  C11 MIQ B 502      -0.952  19.660  -3.116  1.00144.08     0.149 C 
ENDBRANCH   5  21
TORSDOF 2
ENDMDL
