MODEL 1
REMARK VINA RESULT:      -7.0      0.000      0.000
REMARK  2 active torsions:
REMARK  status: ('A' for Active; 'I' for Inactive)
REMARK    1  A    between atoms: C5_5  and  N6_21 
REMARK    2  A    between atoms: C18_14  and  N17_19 
ROOT
HETATM    1  O1  MIQ B 502     -12.185 -10.781  -1.783  1.00142.91    -0.171 OA
HETATM    2  C2  MIQ B 502     -13.088 -11.369  -2.672  1.00141.17     0.195 A 
HETATM    3  C3  MIQ B 502     -12.841 -11.643  -4.190  1.00141.71     0.035 A 
HETATM    4  C4  MIQ B 502     -11.692 -11.403  -5.095  1.00142.86     0.046 A 
HETATM    5  C5  MIQ B 502     -11.767 -11.772  -6.462  1.00139.53     0.031 A 
HETATM    6  C12 MIQ B 502     -12.980 -12.391  -6.978  1.00139.38     0.030 A 
HETATM    7  C13 MIQ B 502     -14.081 -12.622  -6.110  1.00141.18     0.019 A 
HETATM    8  C14 MIQ B 502     -13.995 -12.235  -4.675  1.00138.77     0.033 A 
HETATM    9  C15 MIQ B 502     -14.964 -12.329  -3.452  1.00142.10     0.195 A 
HETATM   10  N17 MIQ B 502     -14.309 -11.811  -2.426  1.00139.42    -0.288 N 
HETATM   11  O16 MIQ B 502     -16.258 -12.853  -3.449  1.00148.93    -0.171 OA
ENDROOT
BRANCH  10  12
HETATM   12  C18 MIQ B 502     -14.914 -11.716  -1.111  1.00139.82     0.187 C 
HETATM   13  C19 MIQ B 502     -14.750 -10.272  -0.623  1.00140.06     0.247 C 
HETATM   14  O25 MIQ B 502     -15.084  -9.385  -1.326  1.00143.95    -0.271 OA
HETATM   15  N20 MIQ B 502     -14.201  -9.963   0.681  1.00140.02    -0.296 N 
HETATM   16  H13 MIQ B 502     -14.093  -9.016   0.985  1.00142.77     0.171 HD
HETATM   17  C21 MIQ B 502     -13.790 -11.062   1.517  1.00142.22     0.224 C 
HETATM   18  C22 MIQ B 502     -13.228 -12.281   0.812  1.00139.52     0.106 C 
HETATM   19  O24 MIQ B 502     -13.892 -11.016   2.694  1.00146.13    -0.273 OA
HETATM   20  C23 MIQ B 502     -14.294 -12.744  -0.165  1.00139.15     0.045 C 
ENDBRANCH  10  12
BRANCH   5  21
HETATM   21  N6  MIQ B 502     -10.640 -11.517  -7.340  1.00140.95    -0.377 N 
HETATM   22  C7  MIQ B 502     -10.147 -10.155  -7.461  1.00142.12     0.149 C 
HETATM   23  C8  MIQ B 502      -9.467  -9.913  -8.802  1.00144.10     0.187 C 
HETATM   24  O9  MIQ B 502      -8.549 -10.912  -9.134  1.00148.65    -0.388 OA
HETATM   25  C10 MIQ B 502      -8.486 -12.091  -8.388  1.00147.44     0.187 C 
HETATM   26  C11 MIQ B 502      -9.761 -12.606  -7.728  1.00144.08     0.149 C 
ENDBRANCH   5  21
TORSDOF 2
ENDMDL
MODEL 2
REMARK VINA RESULT:      -6.9      5.101      8.818
REMARK  2 active torsions:
REMARK  status: ('A' for Active; 'I' for Inactive)
REMARK    1  A    between atoms: C5_5  and  N6_21 
REMARK    2  A    between atoms: C18_14  and  N17_19 
ROOT
HETATM    1  O1  MIQ B 502     -14.591  -8.293  -9.093  1.00142.91    -0.171 OA
HETATM    2  C2  MIQ B 502     -13.259  -8.346  -9.509  1.00141.17     0.195 A 
HETATM    3  C3  MIQ B 502     -12.148  -9.279  -8.931  1.00141.71     0.035 A 
HETATM    4  C4  MIQ B 502     -12.136 -10.311  -7.867  1.00142.86     0.046 A 
HETATM    5  C5  MIQ B 502     -10.942 -11.012  -7.561  1.00139.53     0.031 A 
HETATM    6  C12 MIQ B 502      -9.722 -10.716  -8.298  1.00139.38     0.030 A 
HETATM    7  C13 MIQ B 502      -9.734  -9.728  -9.319  1.00141.18     0.019 A 
HETATM    8  C14 MIQ B 502     -10.991  -8.997  -9.637  1.00138.77     0.033 A 
HETATM    9  C15 MIQ B 502     -11.385  -7.882 -10.660  1.00142.10     0.195 A 
HETATM   10  N17 MIQ B 502     -12.670  -7.640 -10.459  1.00139.42    -0.288 N 
HETATM   11  O16 MIQ B 502     -10.547  -7.268 -11.592  1.00148.93    -0.171 OA
ENDROOT
BRANCH  10  12
HETATM   12  C18 MIQ B 502     -13.382  -6.638 -11.230  1.00139.82     0.187 C 
HETATM   13  C19 MIQ B 502     -13.979  -5.627 -10.244  1.00140.06     0.247 C 
HETATM   14  O25 MIQ B 502     -13.283  -5.140  -9.425  1.00143.95    -0.271 OA
HETATM   15  N20 MIQ B 502     -15.376  -5.246 -10.292  1.00140.02    -0.296 N 
HETATM   16  H13 MIQ B 502     -15.755  -4.589  -9.638  1.00142.77     0.171 HD
HETATM   17  C21 MIQ B 502     -16.208  -5.861 -11.294  1.00142.22     0.224 C 
HETATM   18  C22 MIQ B 502     -15.879  -7.294 -11.667  1.00139.52     0.106 C 
HETATM   19  O24 MIQ B 502     -17.099  -5.274 -11.802  1.00146.13    -0.273 OA
HETATM   20  C23 MIQ B 502     -14.431  -7.299 -12.122  1.00139.15     0.045 C 
ENDBRANCH  10  12
BRANCH   5  21
HETATM   21  N6  MIQ B 502     -10.941 -12.009  -6.506  1.00140.95    -0.377 N 
HETATM   22  C7  MIQ B 502     -11.903 -11.877  -5.425  1.00142.12     0.149 C 
HETATM   23  C8  MIQ B 502     -11.408 -12.531  -4.141  1.00144.10     0.187 C 
HETATM   24  O9  MIQ B 502     -10.911 -13.820  -4.344  1.00148.65    -0.388 OA
HETATM   25  C10 MIQ B 502     -10.701 -14.302  -5.639  1.00147.44     0.187 C 
HETATM   26  C11 MIQ B 502     -10.335 -13.308  -6.737  1.00144.08     0.149 C 
ENDBRANCH   5  21
TORSDOF 2
ENDMDL
MODEL 3
REMARK VINA RESULT:      -6.7      6.455     10.613
REMARK  2 active torsions:
REMARK  status: ('A' for Active; 'I' for Inactive)
REMARK    1  A    between atoms: C5_5  and  N6_21 
REMARK    2  A    between atoms: C18_14  and  N17_19 
ROOT
HETATM    1  O1  MIQ B 502     -17.068 -14.306   6.256  1.00142.91    -0.171 OA
HETATM    2  C2  MIQ B 502     -16.787 -12.960   6.500  1.00141.17     0.195 A 
HETATM    3  C3  MIQ B 502     -15.851 -12.044   5.648  1.00141.71     0.035 A 
HETATM    4  C4  MIQ B 502     -15.040 -12.270   4.428  1.00142.86     0.046 A 
HETATM    5  C5  MIQ B 502     -14.274 -11.215   3.871  1.00139.53     0.031 A 
HETATM    6  C12 MIQ B 502     -14.286  -9.903   4.502  1.00139.38     0.030 A 
HETATM    7  C13 MIQ B 502     -15.065  -9.686   5.671  1.00141.18     0.019 A 
HETATM    8  C14 MIQ B 502     -15.869 -10.797   6.249  1.00138.77     0.033 A 
HETATM    9  C15 MIQ B 502     -16.821 -10.938   7.481  1.00142.10     0.195 A 
HETATM   10  N17 MIQ B 502     -17.244 -12.192   7.474  1.00139.42    -0.288 N 
HETATM   11  O16 MIQ B 502     -17.151  -9.942   8.401  1.00148.93    -0.171 OA
ENDROOT
BRANCH  10  12
HETATM   12  C18 MIQ B 502     -18.144 -12.693   8.495  1.00139.82     0.187 C 
HETATM   13  C19 MIQ B 502     -17.540 -13.986   9.057  1.00140.06     0.247 C 
HETATM   14  O25 MIQ B 502     -16.418 -13.987   9.420  1.00143.95    -0.271 OA
HETATM   15  N20 MIQ B 502     -18.312 -15.208   9.160  1.00140.02    -0.296 N 
HETATM   16  H13 MIQ B 502     -17.904 -16.047   9.522  1.00142.77     0.171 HD
HETATM   17  C21 MIQ B 502     -19.677 -15.184   8.700  1.00142.22     0.224 C 
HETATM   18  C22 MIQ B 502     -19.983 -14.283   7.519  1.00139.52     0.106 C 
HETATM   19  O24 MIQ B 502     -20.516 -15.832   9.222  1.00146.13    -0.273 OA
HETATM   20  C23 MIQ B 502     -19.547 -12.885   7.920  1.00139.15     0.045 C 
ENDBRANCH  10  12
BRANCH   5  21
HETATM   21  N6  MIQ B 502     -13.472 -11.454   2.685  1.00140.95    -0.377 N 
HETATM   22  C7  MIQ B 502     -13.142 -10.326   1.831  1.00142.12     0.149 C 
HETATM   23  C8  MIQ B 502     -12.900 -10.755   0.390  1.00144.10     0.187 C 
HETATM   24  O9  MIQ B 502     -12.043 -11.853   0.287  1.00148.65    -0.388 OA
HETATM   25  C10 MIQ B 502     -11.676 -12.574   1.426  1.00147.44     0.187 C 
HETATM   26  C11 MIQ B 502     -12.662 -12.655   2.587  1.00144.08     0.149 C 
ENDBRANCH   5  21
TORSDOF 2
ENDMDL
MODEL 4
REMARK VINA RESULT:      -6.7      4.125     10.252
REMARK  2 active torsions:
REMARK  status: ('A' for Active; 'I' for Inactive)
REMARK    1  A    between atoms: C5_5  and  N6_21 
REMARK    2  A    between atoms: C18_14  and  N17_19 
ROOT
HETATM    1  O1  MIQ B 502     -14.085 -10.879   0.942  1.00142.91    -0.171 OA
HETATM    2  C2  MIQ B 502     -14.483 -12.149   1.367  1.00141.17     0.195 A 
HETATM    3  C3  MIQ B 502     -15.109 -12.503   2.754  1.00141.71     0.035 A 
HETATM    4  C4  MIQ B 502     -15.455 -11.700   3.950  1.00142.86     0.046 A 
HETATM    5  C5  MIQ B 502     -16.029 -12.321   5.089  1.00139.53     0.031 A 
HETATM    6  C12 MIQ B 502     -16.278 -13.756   5.081  1.00139.38     0.030 A 
HETATM    7  C13 MIQ B 502     -15.947 -14.526   3.933  1.00141.18     0.019 A 
HETATM    8  C14 MIQ B 502     -15.347 -13.868   2.740  1.00138.77     0.033 A 
HETATM    9  C15 MIQ B 502     -14.868 -14.363   1.337  1.00142.10     0.195 A 
HETATM   10  N17 MIQ B 502     -14.422 -13.291   0.704  1.00139.42    -0.288 N 
HETATM   11  O16 MIQ B 502     -14.902 -15.673   0.856  1.00148.93    -0.171 OA
ENDROOT
BRANCH  10  12
HETATM   12  C18 MIQ B 502     -13.877 -13.375  -0.638  1.00139.82     0.187 C 
HETATM   13  C19 MIQ B 502     -12.496 -12.707  -0.626  1.00140.06     0.247 C 
HETATM   14  O25 MIQ B 502     -11.708 -13.029   0.191  1.00143.95    -0.271 OA
HETATM   15  N20 MIQ B 502     -12.130 -11.693  -1.594  1.00140.02    -0.296 N 
HETATM   16  H13 MIQ B 502     -11.228 -11.260  -1.570  1.00142.77     0.171 HD
HETATM   17  C21 MIQ B 502     -13.113 -11.310  -2.574  1.00142.22     0.224 C 
HETATM   18  C22 MIQ B 502     -14.563 -11.336  -2.131  1.00139.52     0.106 C 
HETATM   19  O24 MIQ B 502     -12.802 -10.996  -3.670  1.00146.13    -0.273 OA
HETATM   20  C23 MIQ B 502     -14.840 -12.746  -1.644  1.00139.15     0.045 C 
ENDBRANCH  10  12
BRANCH   5  21
HETATM   21  N6  MIQ B 502     -16.349 -11.525   6.259  1.00140.95    -0.377 N 
HETATM   22  C7  MIQ B 502     -16.058 -10.102   6.233  1.00142.12     0.149 C 
HETATM   23  C8  MIQ B 502     -15.826  -9.543   7.630  1.00144.10     0.187 C 
HETATM   24  O9  MIQ B 502     -16.808  -9.934   8.543  1.00148.65    -0.388 OA
HETATM   25  C10 MIQ B 502     -17.737 -10.920   8.202  1.00147.44     0.187 C 
HETATM   26  C11 MIQ B 502     -17.316 -12.014   7.227  1.00144.08     0.149 C 
ENDBRANCH   5  21
TORSDOF 2
ENDMDL
MODEL 5
REMARK VINA RESULT:      -6.7      7.354     10.721
REMARK  2 active torsions:
REMARK  status: ('A' for Active; 'I' for Inactive)
REMARK    1  A    between atoms: C5_5  and  N6_21 
REMARK    2  A    between atoms: C18_14  and  N17_19 
ROOT
HETATM    1  O1  MIQ B 502     -15.089  -9.494  -9.221  1.00142.91    -0.171 OA
HETATM    2  C2  MIQ B 502     -14.447  -8.527  -9.997  1.00141.17     0.195 A 
HETATM    3  C3  MIQ B 502     -15.133  -7.338 -10.742  1.00141.71     0.035 A 
HETATM    4  C4  MIQ B 502     -16.539  -6.884 -10.860  1.00142.86     0.046 A 
HETATM    5  C5  MIQ B 502     -16.859  -5.736 -11.627  1.00139.53     0.031 A 
HETATM    6  C12 MIQ B 502     -15.801  -4.998 -12.302  1.00139.38     0.030 A 
HETATM    7  C13 MIQ B 502     -14.452  -5.432 -12.188  1.00141.18     0.019 A 
HETATM    8  C14 MIQ B 502     -14.121  -6.637 -11.380  1.00138.77     0.033 A 
HETATM    9  C15 MIQ B 502     -12.800  -7.396 -11.027  1.00142.10     0.195 A 
HETATM   10  N17 MIQ B 502     -13.156  -8.410 -10.257  1.00139.42    -0.288 N 
HETATM   11  O16 MIQ B 502     -11.510  -7.066 -11.447  1.00148.93    -0.171 OA
ENDROOT
BRANCH  10  12
HETATM   12  C18 MIQ B 502     -12.178  -9.352  -9.745  1.00139.82     0.187 C 
HETATM   13  C19 MIQ B 502     -11.082  -8.549  -9.034  1.00140.06     0.247 C 
HETATM   14  O25 MIQ B 502     -11.389  -7.749  -8.223  1.00143.95    -0.271 OA
HETATM   15  N20 MIQ B 502      -9.677  -8.749  -9.326  1.00140.02    -0.296 N 
HETATM   16  H13 MIQ B 502      -8.972  -8.213  -8.859  1.00142.77     0.171 HD
HETATM   17  C21 MIQ B 502      -9.328  -9.723 -10.327  1.00142.22     0.224 C 
HETATM   18  C22 MIQ B 502     -10.294  -9.887 -11.485  1.00139.52     0.106 C 
HETATM   19  O24 MIQ B 502      -8.340 -10.366 -10.246  1.00146.13    -0.273 OA
HETATM   20  C23 MIQ B 502     -11.642 -10.229 -10.876  1.00139.15     0.045 C 
ENDBRANCH  10  12
BRANCH   5  21
HETATM   21  N6  MIQ B 502     -18.242  -5.311 -11.746  1.00140.95    -0.377 N 
HETATM   22  C7  MIQ B 502     -18.537  -3.889 -11.729  1.00142.12     0.149 C 
HETATM   23  C8  MIQ B 502     -19.944  -3.605 -11.220  1.00144.10     0.187 C 
HETATM   24  O9  MIQ B 502     -20.913  -4.407 -11.827  1.00148.65    -0.388 OA
HETATM   25  C10 MIQ B 502     -20.536  -5.490 -12.626  1.00147.44     0.187 C 
HETATM   26  C11 MIQ B 502     -19.233  -6.214 -12.306  1.00144.08     0.149 C 
ENDBRANCH   5  21
TORSDOF 2
ENDMDL
MODEL 6
REMARK VINA RESULT:      -6.6      7.054     10.107
REMARK  2 active torsions:
REMARK  status: ('A' for Active; 'I' for Inactive)
REMARK    1  A    between atoms: C5_5  and  N6_21 
REMARK    2  A    between atoms: C18_14  and  N17_19 
ROOT
HETATM    1  O1  MIQ B 502     -11.540  -9.953 -11.609  1.00142.91    -0.171 OA
HETATM    2  C2  MIQ B 502     -11.701  -8.866 -10.746  1.00141.17     0.195 A 
HETATM    3  C3  MIQ B 502     -12.777  -7.741 -10.870  1.00141.71     0.035 A 
HETATM    4  C4  MIQ B 502     -13.870  -7.479 -11.836  1.00142.86     0.046 A 
HETATM    5  C5  MIQ B 502     -14.706  -6.344 -11.682  1.00139.53     0.031 A 
HETATM    6  C12 MIQ B 502     -14.489  -5.433 -10.567  1.00139.38     0.030 A 
HETATM    7  C13 MIQ B 502     -13.442  -5.685  -9.640  1.00141.18     0.019 A 
HETATM    8  C14 MIQ B 502     -12.569  -6.879  -9.806  1.00138.77     0.033 A 
HETATM    9  C15 MIQ B 502     -11.357  -7.473  -9.016  1.00142.10     0.195 A 
HETATM   10  N17 MIQ B 502     -11.000  -8.569  -9.666  1.00139.42    -0.288 N 
HETATM   11  O16 MIQ B 502     -10.773  -6.947  -7.862  1.00148.93    -0.171 OA
ENDROOT
BRANCH  10  12
HETATM   12  C18 MIQ B 502      -9.883  -9.382  -9.222  1.00139.82     0.187 C 
HETATM   13  C19 MIQ B 502      -8.933  -9.561 -10.412  1.00140.06     0.247 C 
HETATM   14  O25 MIQ B 502      -8.574  -8.611 -11.011  1.00143.95    -0.271 OA
HETATM   15  N20 MIQ B 502      -8.457 -10.868 -10.819  1.00140.02    -0.296 N 
HETATM   16  H13 MIQ B 502      -7.842 -10.972 -11.602  1.00142.77     0.171 HD
HETATM   17  C21 MIQ B 502      -8.917 -12.014 -10.078  1.00142.22     0.224 C 
HETATM   18  C22 MIQ B 502     -10.326 -11.945  -9.523  1.00139.52     0.106 C 
HETATM   19  O24 MIQ B 502      -8.226 -12.958  -9.909  1.00146.13    -0.273 OA
HETATM   20  C23 MIQ B 502     -10.385 -10.706  -8.648  1.00139.15     0.045 C 
ENDBRANCH  10  12
BRANCH   5  21
HETATM   21  N6  MIQ B 502     -15.764  -6.091 -12.643  1.00140.95    -0.377 N 
HETATM   22  C7  MIQ B 502     -15.774  -6.854 -13.880  1.00142.12     0.149 C 
HETATM   23  C8  MIQ B 502     -16.466  -6.098 -15.008  1.00144.10     0.187 C 
HETATM   24  O9  MIQ B 502     -17.697  -5.561 -14.627  1.00148.65    -0.388 OA
HETATM   25  C10 MIQ B 502     -18.080  -5.552 -13.284  1.00147.44     0.187 C 
HETATM   26  C11 MIQ B 502     -16.995  -5.451 -12.216  1.00144.08     0.149 C 
ENDBRANCH   5  21
TORSDOF 2
ENDMDL
MODEL 7
REMARK VINA RESULT:      -6.6     13.414     14.633
REMARK  2 active torsions:
REMARK  status: ('A' for Active; 'I' for Inactive)
REMARK    1  A    between atoms: C5_5  and  N6_21 
REMARK    2  A    between atoms: C18_14  and  N17_19 
ROOT
HETATM    1  O1  MIQ B 502     -17.727 -15.941   9.284  1.00142.91    -0.171 OA
HETATM    2  C2  MIQ B 502     -17.412 -14.607   9.018  1.00141.17     0.195 A 
HETATM    3  C3  MIQ B 502     -15.997 -13.954   9.124  1.00141.71     0.035 A 
HETATM    4  C4  MIQ B 502     -14.660 -14.474   9.498  1.00142.86     0.046 A 
HETATM    5  C5  MIQ B 502     -13.532 -13.615   9.500  1.00139.53     0.031 A 
HETATM    6  C12 MIQ B 502     -13.689 -12.216   9.131  1.00139.38     0.030 A 
HETATM    7  C13 MIQ B 502     -14.970 -11.717   8.771  1.00141.18     0.019 A 
HETATM    8  C14 MIQ B 502     -16.150 -12.624   8.769  1.00138.77     0.033 A 
HETATM    9  C15 MIQ B 502     -17.669 -12.450   8.440  1.00142.10     0.195 A 
HETATM   10  N17 MIQ B 502     -18.221 -13.638   8.625  1.00139.42    -0.288 N 
HETATM   11  O16 MIQ B 502     -18.308 -11.276   8.036  1.00148.93    -0.171 OA
ENDROOT
BRANCH  10  12
HETATM   12  C18 MIQ B 502     -19.642 -13.852   8.425  1.00139.82     0.187 C 
HETATM   13  C19 MIQ B 502     -20.196 -14.522   9.689  1.00140.06     0.247 C 
HETATM   14  O25 MIQ B 502     -19.967 -14.043  10.742  1.00143.95    -0.271 OA
HETATM   15  N20 MIQ B 502     -21.000 -15.725   9.625  1.00140.02    -0.296 N 
HETATM   16  H13 MIQ B 502     -21.351 -16.156  10.458  1.00142.77     0.171 HD
HETATM   17  C21 MIQ B 502     -21.258 -16.297   8.329  1.00142.22     0.224 C 
HETATM   18  C22 MIQ B 502     -20.160 -16.155   7.291  1.00139.52     0.106 C 
HETATM   19  O24 MIQ B 502     -22.277 -16.843   8.086  1.00146.13    -0.273 OA
HETATM   20  C23 MIQ B 502     -19.884 -14.669   7.157  1.00139.15     0.045 C 
ENDBRANCH  10  12
BRANCH   5  21
HETATM   21  N6  MIQ B 502     -12.232 -14.134   9.883  1.00140.95    -0.377 N 
HETATM   22  C7  MIQ B 502     -12.158 -15.082  10.981  1.00142.12     0.149 C 
HETATM   23  C8  MIQ B 502     -10.804 -15.042  11.677  1.00144.10     0.187 C 
HETATM   24  O9  MIQ B 502      -9.732 -15.080  10.783  1.00148.65    -0.388 OA
HETATM   25  C10 MIQ B 502      -9.949 -14.931   9.411  1.00147.44     0.187 C 
HETATM   26  C11 MIQ B 502     -11.122 -14.074   8.947  1.00144.08     0.149 C 
ENDBRANCH   5  21
TORSDOF 2
ENDMDL
MODEL 8
REMARK VINA RESULT:      -6.6      7.635     11.370
REMARK  2 active torsions:
REMARK  status: ('A' for Active; 'I' for Inactive)
REMARK    1  A    between atoms: C5_5  and  N6_21 
REMARK    2  A    between atoms: C18_14  and  N17_19 
ROOT
HETATM    1  O1  MIQ B 502     -15.752 -15.478   6.712  1.00142.91    -0.171 OA
HETATM    2  C2  MIQ B 502     -16.328 -14.211   6.830  1.00141.17     0.195 A 
HETATM    3  C3  MIQ B 502     -15.806 -12.895   6.171  1.00141.71     0.035 A 
HETATM    4  C4  MIQ B 502     -14.654 -12.583   5.292  1.00142.86     0.046 A 
HETATM    5  C5  MIQ B 502     -14.435 -11.257   4.841  1.00139.53     0.031 A 
HETATM    6  C12 MIQ B 502     -15.348 -10.197   5.243  1.00139.38     0.030 A 
HETATM    7  C13 MIQ B 502     -16.454 -10.496   6.084  1.00141.18     0.019 A 
HETATM    8  C14 MIQ B 502     -16.680 -11.890   6.553  1.00138.77     0.033 A 
HETATM    9  C15 MIQ B 502     -17.751 -12.587   7.454  1.00142.10     0.195 A 
HETATM   10  N17 MIQ B 502     -17.412 -13.865   7.503  1.00139.42    -0.288 N 
HETATM   11  O16 MIQ B 502     -18.840 -11.978   8.080  1.00148.93    -0.171 OA
ENDROOT
BRANCH  10  12
HETATM   12  C18 MIQ B 502     -18.182 -14.823   8.273  1.00139.82     0.187 C 
HETATM   13  C19 MIQ B 502     -19.654 -14.677   7.865  1.00140.06     0.247 C 
HETATM   14  O25 MIQ B 502     -19.939 -14.701   6.720  1.00143.95    -0.271 OA
HETATM   15  N20 MIQ B 502     -20.706 -14.517   8.847  1.00140.02    -0.296 N 
HETATM   16  H13 MIQ B 502     -21.662 -14.416   8.567  1.00142.77     0.171 HD
HETATM   17  C21 MIQ B 502     -20.332 -14.481  10.237  1.00142.22     0.224 C 
HETATM   18  C22 MIQ B 502     -18.992 -13.851  10.565  1.00139.52     0.106 C 
HETATM   19  O24 MIQ B 502     -21.034 -14.925  11.077  1.00146.13    -0.273 OA
HETATM   20  C23 MIQ B 502     -17.950 -14.614   9.768  1.00139.15     0.045 C 
ENDBRANCH  10  12
BRANCH   5  21
HETATM   21  N6  MIQ B 502     -13.293 -10.963   3.994  1.00140.95    -0.377 N 
HETATM   22  C7  MIQ B 502     -12.347 -12.028   3.709  1.00142.12     0.149 C 
HETATM   23  C8  MIQ B 502     -10.957 -11.486   3.401  1.00144.10     0.187 C 
HETATM   24  O9  MIQ B 502     -10.974 -10.440   2.476  1.00148.65    -0.388 OA
HETATM   25  C10 MIQ B 502     -12.183  -9.849   2.098  1.00147.44     0.187 C 
HETATM   26  C11 MIQ B 502     -13.324  -9.811   3.109  1.00144.08     0.149 C 
ENDBRANCH   5  21
TORSDOF 2
ENDMDL
MODEL 9
REMARK VINA RESULT:      -6.6      1.787      2.204
REMARK  2 active torsions:
REMARK  status: ('A' for Active; 'I' for Inactive)
REMARK    1  A    between atoms: C5_5  and  N6_21 
REMARK    2  A    between atoms: C18_14  and  N17_19 
ROOT
HETATM    1  O1  MIQ B 502     -12.857 -10.497  -1.831  1.00142.91    -0.171 OA
HETATM    2  C2  MIQ B 502     -12.518 -11.729  -2.393  1.00141.17     0.195 A 
HETATM    3  C3  MIQ B 502     -11.973 -11.966  -3.838  1.00141.71     0.035 A 
HETATM    4  C4  MIQ B 502     -11.665 -11.062  -4.971  1.00142.86     0.046 A 
HETATM    5  C5  MIQ B 502     -11.168 -11.586  -6.191  1.00139.53     0.031 A 
HETATM    6  C12 MIQ B 502     -10.959 -13.020  -6.330  1.00139.38     0.030 A 
HETATM    7  C13 MIQ B 502     -11.253 -13.887  -5.243  1.00141.18     0.019 A 
HETATM    8  C14 MIQ B 502     -11.773 -13.331  -3.964  1.00138.77     0.033 A 
HETATM    9  C15 MIQ B 502     -12.194 -13.945  -2.589  1.00142.10     0.195 A 
HETATM   10  N17 MIQ B 502     -12.577 -12.927  -1.836  1.00139.42    -0.288 N 
HETATM   11  O16 MIQ B 502     -12.172 -15.295  -2.235  1.00148.93    -0.171 OA
ENDROOT
BRANCH  10  12
HETATM   12  C18 MIQ B 502     -13.056 -13.125  -0.481  1.00139.82     0.187 C 
HETATM   13  C19 MIQ B 502     -14.422 -12.439  -0.362  1.00140.06     0.247 C 
HETATM   14  O25 MIQ B 502     -15.256 -12.674  -1.162  1.00143.95    -0.271 OA
HETATM   15  N20 MIQ B 502     -14.720 -11.512   0.711  1.00140.02    -0.296 N 
HETATM   16  H13 MIQ B 502     -15.614 -11.066   0.773  1.00142.77     0.171 HD
HETATM   17  C21 MIQ B 502     -13.682 -11.233   1.669  1.00142.22     0.224 C 
HETATM   18  C22 MIQ B 502     -12.257 -11.240   1.151  1.00139.52     0.106 C 
HETATM   19  O24 MIQ B 502     -13.932 -11.016   2.804  1.00146.13    -0.273 OA
HETATM   20  C23 MIQ B 502     -12.032 -12.604   0.526  1.00139.15     0.045 C 
ENDBRANCH  10  12
BRANCH   5  21
HETATM   21  N6  MIQ B 502     -10.885 -10.690  -7.298  1.00140.95    -0.377 N 
HETATM   22  C7  MIQ B 502     -10.629  -9.290  -7.010  1.00142.12     0.149 C 
HETATM   23  C8  MIQ B 502     -10.985  -8.393  -8.189  1.00144.10     0.187 C 
HETATM   24  O9  MIQ B 502     -10.469  -8.857  -9.400  1.00148.65    -0.388 OA
HETATM   25  C10 MIQ B 502      -9.902 -10.131  -9.486  1.00147.44     0.187 C 
HETATM   26  C11 MIQ B 502     -10.431 -11.228  -8.569  1.00144.08     0.149 C 
ENDBRANCH   5  21
TORSDOF 2
ENDMDL
