MODEL 1
REMARK VINA RESULT:      -7.3      0.000      0.000
REMARK  2 active torsions:
REMARK  status: ('A' for Active; 'I' for Inactive)
REMARK    1  A    between atoms: C5_5  and  N6_21 
REMARK    2  A    between atoms: C18_14  and  N17_19 
ROOT
HETATM    1  O1  MIQ B 502     -11.984   6.336  18.051  1.00142.91    -0.171 OA
HETATM    2  C2  MIQ B 502     -11.650   5.271  18.891  1.00141.17     0.195 A 
HETATM    3  C3  MIQ B 502     -10.260   5.023  19.559  1.00141.71     0.035 A 
HETATM    4  C4  MIQ B 502      -8.972   5.756  19.532  1.00142.86     0.046 A 
HETATM    5  C5  MIQ B 502      -7.856   5.272  20.261  1.00139.53     0.031 A 
HETATM    6  C12 MIQ B 502      -7.979   4.049  21.041  1.00139.38     0.030 A 
HETATM    7  C13 MIQ B 502      -9.214   3.347  21.068  1.00141.18     0.019 A 
HETATM    8  C14 MIQ B 502     -10.382   3.861  20.302  1.00138.77     0.033 A 
HETATM    9  C15 MIQ B 502     -11.857   3.384  20.096  1.00142.10     0.195 A 
HETATM   10  N17 MIQ B 502     -12.419   4.274  19.294  1.00139.42    -0.288 N 
HETATM   11  O16 MIQ B 502     -12.453   2.248  20.646  1.00148.93    -0.171 OA
ENDROOT
BRANCH  10  12
HETATM   12  C18 MIQ B 502     -13.800   4.143  18.868  1.00139.82     0.187 C 
HETATM   13  C19 MIQ B 502     -13.810   4.052  17.337  1.00140.06     0.247 C 
HETATM   14  O25 MIQ B 502     -13.108   3.269  16.802  1.00143.95    -0.271 OA
HETATM   15  N20 MIQ B 502     -14.664   4.897  16.527  1.00140.02    -0.296 N 
HETATM   16  H13 MIQ B 502     -14.656   4.832  15.528  1.00142.77     0.171 HD
HETATM   17  C21 MIQ B 502     -15.504   5.852  17.203  1.00142.22     0.224 C 
HETATM   18  C22 MIQ B 502     -14.954   6.461  18.478  1.00139.52     0.106 C 
HETATM   19  O24 MIQ B 502     -16.571   6.140  16.785  1.00146.13    -0.273 OA
HETATM   20  C23 MIQ B 502     -14.635   5.303  19.406  1.00139.15     0.045 C 
ENDBRANCH  10  12
BRANCH   5  21
HETATM   21  N6  MIQ B 502      -6.597   5.992  20.213  1.00140.95    -0.377 N 
HETATM   22  C7  MIQ B 502      -5.957   6.356  21.466  1.00142.12     0.149 C 
HETATM   23  C8  MIQ B 502      -5.074   7.588  21.316  1.00144.10     0.187 C 
HETATM   24  O9  MIQ B 502      -4.223   7.516  20.211  1.00148.65    -0.388 OA
HETATM   25  C10 MIQ B 502      -4.385   6.506  19.258  1.00147.44     0.187 C 
HETATM   26  C11 MIQ B 502      -5.786   5.957  19.009  1.00144.08     0.149 C 
ENDBRANCH   5  21
TORSDOF 2
ENDMDL
MODEL 2
REMARK VINA RESULT:      -7.3     12.454     15.496
REMARK  2 active torsions:
REMARK  status: ('A' for Active; 'I' for Inactive)
REMARK    1  A    between atoms: C5_5  and  N6_21 
REMARK    2  A    between atoms: C18_14  and  N17_19 
ROOT
HETATM    1  O1  MIQ B 502       1.896  -4.545  17.323  1.00142.91    -0.171 OA
HETATM    2  C2  MIQ B 502       0.748  -4.526  16.528  1.00141.17     0.195 A 
HETATM    3  C3  MIQ B 502      -0.116  -3.271  16.186  1.00141.71     0.035 A 
HETATM    4  C4  MIQ B 502      -0.017  -1.836  16.546  1.00142.86     0.046 A 
HETATM    5  C5  MIQ B 502      -0.978  -0.909  16.068  1.00139.53     0.031 A 
HETATM    6  C12 MIQ B 502      -2.067  -1.370  15.219  1.00139.38     0.030 A 
HETATM    7  C13 MIQ B 502      -2.161  -2.745  14.872  1.00141.18     0.019 A 
HETATM    8  C14 MIQ B 502      -1.149  -3.713  15.375  1.00138.77     0.033 A 
HETATM    9  C15 MIQ B 502      -0.923  -5.252  15.212  1.00142.10     0.195 A 
HETATM   10  N17 MIQ B 502       0.165  -5.538  15.908  1.00139.42    -0.288 N 
HETATM   11  O16 MIQ B 502      -1.715  -6.140  14.482  1.00148.93    -0.171 OA
ENDROOT
BRANCH  10  12
HETATM   12  C18 MIQ B 502       0.672  -6.894  15.998  1.00139.82     0.187 C 
HETATM   13  C19 MIQ B 502       0.906  -7.208  17.481  1.00140.06     0.247 C 
HETATM   14  O25 MIQ B 502       0.039  -7.010  18.256  1.00143.95    -0.271 OA
HETATM   15  N20 MIQ B 502       2.163  -7.748  17.958  1.00140.02    -0.296 N 
HETATM   16  H13 MIQ B 502       2.306  -7.943  18.929  1.00142.77     0.171 HD
HETATM   17  C21 MIQ B 502       3.210  -7.972  16.995  1.00142.22     0.224 C 
HETATM   18  C22 MIQ B 502       3.283  -7.003  15.830  1.00139.52     0.106 C 
HETATM   19  O24 MIQ B 502       3.970  -8.870  17.105  1.00146.13    -0.273 OA
HETATM   20  C23 MIQ B 502       1.929  -7.050  15.145  1.00139.15     0.045 C 
ENDBRANCH  10  12
BRANCH   5  21
HETATM   21  N6  MIQ B 502      -0.877   0.490  16.441  1.00140.95    -0.377 N 
HETATM   22  C7  MIQ B 502      -1.893   1.050  17.315  1.00142.12     0.149 C 
HETATM   23  C8  MIQ B 502      -2.055   2.551  17.110  1.00144.10     0.187 C 
HETATM   24  O9  MIQ B 502      -0.837   3.233  17.097  1.00148.65    -0.388 OA
HETATM   25  C10 MIQ B 502       0.368   2.527  17.045  1.00147.44     0.187 C 
HETATM   26  C11 MIQ B 502       0.395   1.181  16.329  1.00144.08     0.149 C 
ENDBRANCH   5  21
TORSDOF 2
ENDMDL
MODEL 3
REMARK VINA RESULT:      -7.0     13.911     16.705
REMARK  2 active torsions:
REMARK  status: ('A' for Active; 'I' for Inactive)
REMARK    1  A    between atoms: C5_5  and  N6_21 
REMARK    2  A    between atoms: C18_14  and  N17_19 
ROOT
HETATM    1  O1  MIQ B 502       3.644  -2.409  17.395  1.00142.91    -0.171 OA
HETATM    2  C2  MIQ B 502       2.545  -3.148  16.952  1.00141.17     0.195 A 
HETATM    3  C3  MIQ B 502       2.564  -4.636  16.479  1.00141.71     0.035 A 
HETATM    4  C4  MIQ B 502       3.636  -5.653  16.359  1.00142.86     0.046 A 
HETATM    5  C5  MIQ B 502       3.337  -6.956  15.887  1.00139.53     0.031 A 
HETATM    6  C12 MIQ B 502       1.970  -7.296  15.519  1.00139.38     0.030 A 
HETATM    7  C13 MIQ B 502       0.942  -6.322  15.635  1.00141.18     0.019 A 
HETATM    8  C14 MIQ B 502       1.261  -4.956  16.134  1.00138.77     0.033 A 
HETATM    9  C15 MIQ B 502       0.428  -3.659  16.394  1.00142.10     0.195 A 
HETATM   10  N17 MIQ B 502       1.286  -2.758  16.845  1.00139.42    -0.288 N 
HETATM   11  O16 MIQ B 502      -0.942  -3.490  16.188  1.00148.93    -0.171 OA
ENDROOT
BRANCH  10  12
HETATM   12  C18 MIQ B 502       0.863  -1.411  17.181  1.00139.82     0.187 C 
HETATM   13  C19 MIQ B 502      -0.207  -1.516  18.275  1.00140.06     0.247 C 
HETATM   14  O25 MIQ B 502       0.014  -2.162  19.237  1.00143.95    -0.271 OA
HETATM   15  N20 MIQ B 502      -1.483  -0.840  18.162  1.00140.02    -0.296 N 
HETATM   16  H13 MIQ B 502      -2.176  -0.922  18.880  1.00142.77     0.171 HD
HETATM   17  C21 MIQ B 502      -1.733  -0.066  16.973  1.00142.22     0.224 C 
HETATM   18  C22 MIQ B 502      -1.118  -0.578  15.685  1.00139.52     0.106 C 
HETATM   19  O24 MIQ B 502      -2.382   0.921  17.004  1.00146.13    -0.273 OA
HETATM   20  C23 MIQ B 502       0.377  -0.679  15.932  1.00139.15     0.045 C 
ENDBRANCH  10  12
BRANCH   5  21
HETATM   21  N6  MIQ B 502       4.399  -7.938  15.760  1.00140.95    -0.377 N 
HETATM   22  C7  MIQ B 502       4.043  -9.307  15.428  1.00142.12     0.149 C 
HETATM   23  C8  MIQ B 502       5.074 -10.303  15.944  1.00144.10     0.187 C 
HETATM   24  O9  MIQ B 502       6.386  -9.936  15.636  1.00148.65    -0.388 OA
HETATM   25  C10 MIQ B 502       6.663  -8.667  15.121  1.00147.44     0.187 C 
HETATM   26  C11 MIQ B 502       5.765  -7.503  15.525  1.00144.08     0.149 C 
ENDBRANCH   5  21
TORSDOF 2
ENDMDL
MODEL 4
REMARK VINA RESULT:      -6.9      1.699      2.215
REMARK  2 active torsions:
REMARK  status: ('A' for Active; 'I' for Inactive)
REMARK    1  A    between atoms: C5_5  and  N6_21 
REMARK    2  A    between atoms: C18_14  and  N17_19 
ROOT
HETATM    1  O1  MIQ B 502     -11.883   6.728  18.356  1.00142.91    -0.171 OA
HETATM    2  C2  MIQ B 502     -11.537   5.593  19.093  1.00141.17     0.195 A 
HETATM    3  C3  MIQ B 502     -10.114   5.246  19.637  1.00141.71     0.035 A 
HETATM    4  C4  MIQ B 502      -8.801   5.929  19.565  1.00142.86     0.046 A 
HETATM    5  C5  MIQ B 502      -7.658   5.352  20.174  1.00139.53     0.031 A 
HETATM    6  C12 MIQ B 502      -7.777   4.081  20.874  1.00139.38     0.030 A 
HETATM    7  C13 MIQ B 502      -9.036   3.426  20.945  1.00141.18     0.019 A 
HETATM    8  C14 MIQ B 502     -10.233   4.038  20.305  1.00138.77     0.033 A 
HETATM    9  C15 MIQ B 502     -11.738   3.634  20.177  1.00142.10     0.195 A 
HETATM   10  N17 MIQ B 502     -12.317   4.600  19.482  1.00139.42    -0.288 N 
HETATM   11  O16 MIQ B 502     -12.341   2.485  20.690  1.00148.93    -0.171 OA
ENDROOT
BRANCH  10  12
HETATM   12  C18 MIQ B 502     -13.729   4.552  19.152  1.00139.82     0.187 C 
HETATM   13  C19 MIQ B 502     -14.511   4.399  20.462  1.00140.06     0.247 C 
HETATM   14  O25 MIQ B 502     -14.292   5.140  21.354  1.00143.95    -0.271 OA
HETATM   15  N20 MIQ B 502     -15.518   3.372  20.635  1.00140.02    -0.296 N 
HETATM   16  H13 MIQ B 502     -16.017   3.279  21.498  1.00142.77     0.171 HD
HETATM   17  C21 MIQ B 502     -15.760   2.473  19.537  1.00142.22     0.224 C 
HETATM   18  C22 MIQ B 502     -14.567   2.118  18.671  1.00139.52     0.106 C 
HETATM   19  O24 MIQ B 502     -16.838   2.039  19.319  1.00146.13    -0.273 OA
HETATM   20  C23 MIQ B 502     -14.004   3.429  18.153  1.00139.15     0.045 C 
ENDBRANCH  10  12
BRANCH   5  21
HETATM   21  N6  MIQ B 502      -6.375   6.025  20.082  1.00140.95    -0.377 N 
HETATM   22  C7  MIQ B 502      -5.711   6.423  21.311  1.00142.12     0.149 C 
HETATM   23  C8  MIQ B 502      -4.787   7.615  21.098  1.00144.10     0.187 C 
HETATM   24  O9  MIQ B 502      -3.951   7.464  19.990  1.00148.65    -0.388 OA
HETATM   25  C10 MIQ B 502      -4.158   6.419  19.085  1.00147.44     0.187 C 
HETATM   26  C11 MIQ B 502      -5.579   5.907  18.873  1.00144.08     0.149 C 
ENDBRANCH   5  21
TORSDOF 2
ENDMDL
MODEL 5
REMARK VINA RESULT:      -6.9     14.472     17.952
REMARK  2 active torsions:
REMARK  status: ('A' for Active; 'I' for Inactive)
REMARK    1  A    between atoms: C5_5  and  N6_21 
REMARK    2  A    between atoms: C18_14  and  N17_19 
ROOT
HETATM    1  O1  MIQ B 502       1.912  -7.216  15.946  1.00142.91    -0.171 OA
HETATM    2  C2  MIQ B 502       2.534  -6.039  16.368  1.00141.17     0.195 A 
HETATM    3  C3  MIQ B 502       1.902  -4.610  16.366  1.00141.71     0.035 A 
HETATM    4  C4  MIQ B 502       0.576  -4.083  15.965  1.00142.86     0.046 A 
HETATM    5  C5  MIQ B 502       0.289  -2.699  16.085  1.00139.53     0.031 A 
HETATM    6  C12 MIQ B 502       1.303  -1.793  16.605  1.00139.38     0.030 A 
HETATM    7  C13 MIQ B 502       2.574  -2.299  16.991  1.00141.18     0.019 A 
HETATM    8  C14 MIQ B 502       2.869  -3.752  16.866  1.00138.77     0.033 A 
HETATM    9  C15 MIQ B 502       4.107  -4.654  17.179  1.00142.10     0.195 A 
HETATM   10  N17 MIQ B 502       3.755  -5.886  16.850  1.00139.42    -0.288 N 
HETATM   11  O16 MIQ B 502       5.334  -4.237  17.698  1.00148.93    -0.171 OA
ENDROOT
BRANCH  10  12
HETATM   12  C18 MIQ B 502       4.674  -7.000  16.993  1.00139.82     0.187 C 
HETATM   13  C19 MIQ B 502       4.712  -7.750  15.656  1.00140.06     0.247 C 
HETATM   14  O25 MIQ B 502       4.905  -7.145  14.662  1.00143.95    -0.271 OA
HETATM   15  N20 MIQ B 502       4.523  -9.184  15.579  1.00140.02    -0.296 N 
HETATM   16  H13 MIQ B 502       4.543  -9.661  14.700  1.00142.77     0.171 HD
HETATM   17  C21 MIQ B 502       4.278  -9.899  16.806  1.00142.22     0.224 C 
HETATM   18  C22 MIQ B 502       3.495  -9.165  17.877  1.00139.52     0.106 C 
HETATM   19  O24 MIQ B 502       4.673 -11.000  16.968  1.00146.13    -0.273 OA
HETATM   20  C23 MIQ B 502       4.257  -7.884  18.167  1.00139.15     0.045 C 
ENDBRANCH  10  12
BRANCH   5  21
HETATM   21  N6  MIQ B 502      -1.008  -2.194  15.674  1.00140.95    -0.377 N 
HETATM   22  C7  MIQ B 502      -1.232  -0.759  15.692  1.00142.12     0.149 C 
HETATM   23  C8  MIQ B 502      -2.705  -0.416  15.879  1.00144.10     0.187 C 
HETATM   24  O9  MIQ B 502      -3.544  -1.140  15.031  1.00148.65    -0.388 OA
HETATM   25  C10 MIQ B 502      -3.044  -2.213  14.287  1.00147.44     0.187 C 
HETATM   26  C11 MIQ B 502      -1.884  -3.020  14.861  1.00144.08     0.149 C 
ENDBRANCH   5  21
TORSDOF 2
ENDMDL
MODEL 6
REMARK VINA RESULT:      -6.8     13.413     16.466
REMARK  2 active torsions:
REMARK  status: ('A' for Active; 'I' for Inactive)
REMARK    1  A    between atoms: C5_5  and  N6_21 
REMARK    2  A    between atoms: C18_14  and  N17_19 
ROOT
HETATM    1  O1  MIQ B 502     -19.961  -9.789  19.683  1.00142.91    -0.171 OA
HETATM    2  C2  MIQ B 502     -18.650  -9.375  19.934  1.00141.17     0.195 A 
HETATM    3  C3  MIQ B 502     -18.168  -7.901  20.117  1.00141.71     0.035 A 
HETATM    4  C4  MIQ B 502     -18.861  -6.591  20.091  1.00142.86     0.046 A 
HETATM    5  C5  MIQ B 502     -18.134  -5.391  20.297  1.00139.53     0.031 A 
HETATM    6  C12 MIQ B 502     -16.699  -5.448  20.536  1.00139.38     0.030 A 
HETATM    7  C13 MIQ B 502     -16.035  -6.703  20.562  1.00141.18     0.019 A 
HETATM    8  C14 MIQ B 502     -16.803  -7.960  20.347  1.00138.77     0.033 A 
HETATM    9  C15 MIQ B 502     -16.436  -9.479  20.308  1.00142.10     0.195 A 
HETATM   10  N17 MIQ B 502     -17.569 -10.122  20.072  1.00139.42    -0.288 N 
HETATM   11  O16 MIQ B 502     -15.169 -10.038  20.483  1.00148.93    -0.171 OA
ENDROOT
BRANCH  10  12
HETATM   12  C18 MIQ B 502     -17.608 -11.568  19.953  1.00139.82     0.187 C 
HETATM   13  C19 MIQ B 502     -16.878 -12.157  21.166  1.00140.06     0.247 C 
HETATM   14  O25 MIQ B 502     -17.176 -11.797  22.249  1.00143.95    -0.271 OA
HETATM   15  N20 MIQ B 502     -15.834 -13.151  21.021  1.00140.02    -0.296 N 
HETATM   16  H13 MIQ B 502     -15.361 -13.523  21.820  1.00142.77     0.171 HD
HETATM   17  C21 MIQ B 502     -15.481 -13.568  19.688  1.00142.22     0.224 C 
HETATM   18  C22 MIQ B 502     -15.579 -12.518  18.598  1.00139.52     0.106 C 
HETATM   19  O24 MIQ B 502     -15.136 -14.675  19.458  1.00146.13    -0.273 OA
HETATM   20  C23 MIQ B 502     -17.008 -12.007  18.618  1.00139.15     0.045 C 
ENDBRANCH  10  12
BRANCH   5  21
HETATM   21  N6  MIQ B 502     -18.824  -4.115  20.255  1.00140.95    -0.377 N 
HETATM   22  C7  MIQ B 502     -18.032  -2.900  20.165  1.00142.12     0.149 C 
HETATM   23  C8  MIQ B 502     -18.759  -1.701  20.760  1.00144.10     0.187 C 
HETATM   24  O9  MIQ B 502     -20.077  -1.589  20.313  1.00148.65    -0.388 OA
HETATM   25  C10 MIQ B 502     -20.670  -2.626  19.589  1.00147.44     0.187 C 
HETATM   26  C11 MIQ B 502     -20.222  -4.057  19.865  1.00144.08     0.149 C 
ENDBRANCH   5  21
TORSDOF 2
ENDMDL
MODEL 7
REMARK VINA RESULT:      -6.7     10.100     11.835
REMARK  2 active torsions:
REMARK  status: ('A' for Active; 'I' for Inactive)
REMARK    1  A    between atoms: C5_5  and  N6_21 
REMARK    2  A    between atoms: C18_14  and  N17_19 
ROOT
HETATM    1  O1  MIQ B 502      -3.034   2.618  17.699  1.00142.91    -0.171 OA
HETATM    2  C2  MIQ B 502      -1.689   2.482  17.349  1.00141.17     0.195 A 
HETATM    3  C3  MIQ B 502      -0.626   3.626  17.308  1.00141.71     0.035 A 
HETATM    4  C4  MIQ B 502      -0.681   5.079  17.599  1.00142.86     0.046 A 
HETATM    5  C5  MIQ B 502       0.482   5.880  17.471  1.00139.53     0.031 A 
HETATM    6  C12 MIQ B 502       1.736   5.271  17.051  1.00139.38     0.030 A 
HETATM    7  C13 MIQ B 502       1.789   3.878  16.774  1.00141.18     0.019 A 
HETATM    8  C14 MIQ B 502       0.566   3.042  16.913  1.00138.77     0.033 A 
HETATM    9  C15 MIQ B 502       0.241   1.526  16.707  1.00142.10     0.195 A 
HETATM   10  N17 MIQ B 502      -1.043   1.386  16.991  1.00139.42    -0.288 N 
HETATM   11  O16 MIQ B 502       1.130   0.529  16.302  1.00148.93    -0.171 OA
ENDROOT
BRANCH  10  12
HETATM   12  C18 MIQ B 502      -1.704   0.098  16.893  1.00139.82     0.187 C 
HETATM   13  C19 MIQ B 502      -0.900  -0.906  17.729  1.00140.06     0.247 C 
HETATM   14  O25 MIQ B 502      -0.624  -0.637  18.844  1.00143.95    -0.271 OA
HETATM   15  N20 MIQ B 502      -0.473  -2.181  17.189  1.00140.02    -0.296 N 
HETATM   16  H13 MIQ B 502       0.057  -2.824  17.743  1.00142.77     0.171 HD
HETATM   17  C21 MIQ B 502      -0.813  -2.482  15.822  1.00142.22     0.224 C 
HETATM   18  C22 MIQ B 502      -0.855  -1.313  14.857  1.00139.52     0.106 C 
HETATM   19  O24 MIQ B 502      -1.052  -3.586  15.474  1.00146.13    -0.273 OA
HETATM   20  C23 MIQ B 502      -1.847  -0.317  15.429  1.00139.15     0.045 C 
ENDBRANCH  10  12
BRANCH   5  21
HETATM   21  N6  MIQ B 502       0.410   7.303  17.744  1.00140.95    -0.377 N 
HETATM   22  C7  MIQ B 502      -0.890   7.896  18.006  1.00142.12     0.149 C 
HETATM   23  C8  MIQ B 502      -0.925   9.374  17.639  1.00144.10     0.187 C 
HETATM   24  O9  MIQ B 502       0.166  10.085  18.141  1.00148.65    -0.388 OA
HETATM   25  C10 MIQ B 502       1.252   9.410  18.705  1.00147.44     0.187 C 
HETATM   26  C11 MIQ B 502       1.596   8.018  18.183  1.00144.08     0.149 C 
ENDBRANCH   5  21
TORSDOF 2
ENDMDL
MODEL 8
REMARK VINA RESULT:      -6.7     14.486     17.365
REMARK  2 active torsions:
REMARK  status: ('A' for Active; 'I' for Inactive)
REMARK    1  A    between atoms: C5_5  and  N6_21 
REMARK    2  A    between atoms: C18_14  and  N17_19 
ROOT
HETATM    1  O1  MIQ B 502     -15.605 -10.668  20.022  1.00142.91    -0.171 OA
HETATM    2  C2  MIQ B 502     -16.999 -10.585  19.990  1.00141.17     0.195 A 
HETATM    3  C3  MIQ B 502     -17.845  -9.272  19.975  1.00141.71     0.035 A 
HETATM    4  C4  MIQ B 502     -17.492  -7.833  19.987  1.00142.86     0.046 A 
HETATM    5  C5  MIQ B 502     -18.509  -6.845  19.966  1.00139.53     0.031 A 
HETATM    6  C12 MIQ B 502     -19.908  -7.249  19.933  1.00139.38     0.030 A 
HETATM    7  C13 MIQ B 502     -20.246  -8.629  19.921  1.00141.18     0.019 A 
HETATM    8  C14 MIQ B 502     -19.174  -9.661  19.941  1.00138.77     0.033 A 
HETATM    9  C15 MIQ B 502     -19.153 -11.225  19.933  1.00142.10     0.195 A 
HETATM   10  N17 MIQ B 502     -17.877 -11.573  19.960  1.00139.42    -0.288 N 
HETATM   11  O16 MIQ B 502     -20.260 -12.075  19.905  1.00148.93    -0.171 OA
ENDROOT
BRANCH  10  12
HETATM   12  C18 MIQ B 502     -17.473 -12.966  19.977  1.00139.82     0.187 C 
HETATM   13  C19 MIQ B 502     -16.508 -13.159  21.153  1.00140.06     0.247 C 
HETATM   14  O25 MIQ B 502     -16.822 -12.778  22.225  1.00143.95    -0.271 OA
HETATM   15  N20 MIQ B 502     -15.220 -13.801  20.987  1.00140.02    -0.296 N 
HETATM   16  H13 MIQ B 502     -14.596 -13.914  21.762  1.00142.77     0.171 HD
HETATM   17  C21 MIQ B 502     -14.854 -14.248  19.668  1.00142.22     0.224 C 
HETATM   18  C22 MIQ B 502     -15.356 -13.416  18.503  1.00139.52     0.106 C 
HETATM   19  O24 MIQ B 502     -14.200 -15.218  19.504  1.00146.13    -0.273 OA
HETATM   20  C23 MIQ B 502     -16.867 -13.361  18.632  1.00139.15     0.045 C 
ENDBRANCH  10  12
BRANCH   5  21
HETATM   21  N6  MIQ B 502     -18.150  -5.439  19.992  1.00140.95    -0.377 N 
HETATM   22  C7  MIQ B 502     -18.922  -4.540  20.833  1.00142.12     0.149 C 
HETATM   23  C8  MIQ B 502     -18.896  -3.110  20.310  1.00144.10     0.187 C 
HETATM   24  O9  MIQ B 502     -17.610  -2.671  19.990  1.00148.65    -0.388 OA
HETATM   25  C10 MIQ B 502     -16.543  -3.573  19.954  1.00147.44     0.187 C 
HETATM   26  C11 MIQ B 502     -16.825  -5.021  19.568  1.00144.08     0.149 C 
ENDBRANCH   5  21
TORSDOF 2
ENDMDL
MODEL 9
REMARK VINA RESULT:      -6.5     14.922     17.369
REMARK  2 active torsions:
REMARK  status: ('A' for Active; 'I' for Inactive)
REMARK    1  A    between atoms: C5_5  and  N6_21 
REMARK    2  A    between atoms: C18_14  and  N17_19 
ROOT
HETATM    1  O1  MIQ B 502     -15.686  -8.888  22.273  1.00142.91    -0.171 OA
HETATM    2  C2  MIQ B 502     -16.287  -9.306  21.084  1.00141.17     0.195 A 
HETATM    3  C3  MIQ B 502     -16.079 -10.684  20.379  1.00141.71     0.035 A 
HETATM    4  C4  MIQ B 502     -15.266 -11.881  20.703  1.00142.86     0.046 A 
HETATM    5  C5  MIQ B 502     -15.285 -13.012  19.848  1.00139.53     0.031 A 
HETATM    6  C12 MIQ B 502     -16.108 -12.997  18.647  1.00139.38     0.030 A 
HETATM    7  C13 MIQ B 502     -16.888 -11.850  18.337  1.00141.18     0.019 A 
HETATM    8  C14 MIQ B 502     -16.866 -10.667  19.240  1.00138.77     0.033 A 
HETATM    9  C15 MIQ B 502     -17.567  -9.269  19.237  1.00142.10     0.195 A 
HETATM   10  N17 MIQ B 502     -17.142  -8.644  20.322  1.00139.42    -0.288 N 
HETATM   11  O16 MIQ B 502     -18.459  -8.784  18.278  1.00148.93    -0.171 OA
ENDROOT
BRANCH  10  12
HETATM   12  C18 MIQ B 502     -17.578  -7.298  20.641  1.00139.82     0.187 C 
HETATM   13  C19 MIQ B 502     -19.103  -7.251  20.485  1.00140.06     0.247 C 
HETATM   14  O25 MIQ B 502     -19.762  -8.067  21.025  1.00143.95    -0.271 OA
HETATM   15  N20 MIQ B 502     -19.759  -6.227  19.697  1.00140.02    -0.296 N 
HETATM   16  H13 MIQ B 502     -20.755  -6.212  19.598  1.00142.77     0.171 HD
HETATM   17  C21 MIQ B 502     -18.932  -5.249  19.040  1.00142.22     0.224 C 
HETATM   18  C22 MIQ B 502     -17.576  -5.721  18.551  1.00139.52     0.106 C 
HETATM   19  O24 MIQ B 502     -19.292  -4.133  18.895  1.00146.13    -0.273 OA
HETATM   20  C23 MIQ B 502     -16.852  -6.281  19.761  1.00139.15     0.045 C 
ENDBRANCH  10  12
BRANCH   5  21
HETATM   21  N6  MIQ B 502     -14.473 -14.172  20.169  1.00140.95    -0.377 N 
HETATM   22  C7  MIQ B 502     -14.764 -14.908  21.387  1.00142.12     0.149 C 
HETATM   23  C8  MIQ B 502     -13.534 -15.629  21.924  1.00144.10     0.187 C 
HETATM   24  O9  MIQ B 502     -12.853 -16.348  20.940  1.00148.65    -0.388 OA
HETATM   25  C10 MIQ B 502     -13.181 -16.188  19.591  1.00147.44     0.187 C 
HETATM   26  C11 MIQ B 502     -13.712 -14.836  19.125  1.00144.08     0.149 C 
ENDBRANCH   5  21
TORSDOF 2
ENDMDL
