MODEL 1
REMARK VINA RESULT:      -6.9      0.000      0.000
REMARK  2 active torsions:
REMARK  status: ('A' for Active; 'I' for Inactive)
REMARK    1  A    between atoms: C5_5  and  N6_21 
REMARK    2  A    between atoms: C18_14  and  N17_19 
ROOT
HETATM    1  O1  MIQ B 502       3.932  18.024   3.447  1.00142.91    -0.171 OA
HETATM    2  C2  MIQ B 502       3.149  19.044   2.900  1.00141.17     0.195 A 
HETATM    3  C3  MIQ B 502       3.676  20.346   2.217  1.00141.71     0.035 A 
HETATM    4  C4  MIQ B 502       5.033  20.877   1.947  1.00142.86     0.046 A 
HETATM    5  C5  MIQ B 502       5.198  22.122   1.290  1.00139.53     0.031 A 
HETATM    6  C12 MIQ B 502       4.026  22.882   0.878  1.00139.38     0.030 A 
HETATM    7  C13 MIQ B 502       2.725  22.373   1.136  1.00141.18     0.019 A 
HETATM    8  C14 MIQ B 502       2.558  21.064   1.824  1.00138.77     0.033 A 
HETATM    9  C15 MIQ B 502       1.330  20.202   2.265  1.00142.10     0.195 A 
HETATM   10  N17 MIQ B 502       1.830  19.121   2.840  1.00139.42    -0.288 N 
HETATM   11  O16 MIQ B 502      -0.018  20.516   2.087  1.00148.93    -0.171 OA
ENDROOT
BRANCH  10  12
HETATM   12  C18 MIQ B 502       0.971  18.090   3.392  1.00139.82     0.187 C 
HETATM   13  C19 MIQ B 502      -0.061  17.718   2.320  1.00140.06     0.247 C 
HETATM   14  O25 MIQ B 502       0.310  17.447   1.233  1.00143.95    -0.271 OA
HETATM   15  N20 MIQ B 502      -1.481  17.684   2.605  1.00140.02    -0.296 N 
HETATM   16  H13 MIQ B 502      -2.144  17.446   1.895  1.00142.77     0.171 HD
HETATM   17  C21 MIQ B 502      -1.909  18.029   3.936  1.00142.22     0.224 C 
HETATM   18  C22 MIQ B 502      -1.093  19.080   4.664  1.00139.52     0.106 C 
HETATM   19  O24 MIQ B 502      -2.848  17.513   4.436  1.00146.13    -0.273 OA
HETATM   20  C23 MIQ B 502       0.336  18.569   4.696  1.00139.15     0.045 C 
ENDBRANCH  10  12
BRANCH   5  21
HETATM   21  N6  MIQ B 502       6.533  22.637   1.045  1.00140.95    -0.377 N 
HETATM   22  C7  MIQ B 502       6.895  23.011  -0.312  1.00142.12     0.149 C 
HETATM   23  C8  MIQ B 502       8.396  22.904  -0.550  1.00144.10     0.187 C 
HETATM   24  O9  MIQ B 502       9.150  23.509   0.458  1.00148.65    -0.388 OA
HETATM   25  C10 MIQ B 502       8.539  23.936   1.639  1.00147.44     0.187 C 
HETATM   26  C11 MIQ B 502       7.314  23.180   2.142  1.00144.08     0.149 C 
ENDBRANCH   5  21
TORSDOF 2
ENDMDL
MODEL 2
REMARK VINA RESULT:      -6.8      2.057      2.966
REMARK  2 active torsions:
REMARK  status: ('A' for Active; 'I' for Inactive)
REMARK    1  A    between atoms: C5_5  and  N6_21 
REMARK    2  A    between atoms: C18_14  and  N17_19 
ROOT
HETATM    1  O1  MIQ B 502       3.954  19.404   0.861  1.00142.91    -0.171 OA
HETATM    2  C2  MIQ B 502       3.678  20.716   1.252  1.00141.17     0.195 A 
HETATM    3  C3  MIQ B 502       4.673  21.920   1.211  1.00141.71     0.035 A 
HETATM    4  C4  MIQ B 502       6.086  22.059   0.788  1.00142.86     0.046 A 
HETATM    5  C5  MIQ B 502       6.737  23.316   0.868  1.00139.53     0.031 A 
HETATM    6  C12 MIQ B 502       6.012  24.475   1.369  1.00139.38     0.030 A 
HETATM    7  C13 MIQ B 502       4.657  24.342   1.774  1.00141.18     0.019 A 
HETATM    8  C14 MIQ B 502       3.977  23.020   1.685  1.00138.77     0.033 A 
HETATM    9  C15 MIQ B 502       2.543  22.497   2.021  1.00142.10     0.195 A 
HETATM   10  N17 MIQ B 502       2.545  21.209   1.722  1.00139.42    -0.288 N 
HETATM   11  O16 MIQ B 502       1.481  23.243   2.535  1.00148.93    -0.171 OA
ENDROOT
BRANCH  10  12
HETATM   12  C18 MIQ B 502       1.369  20.383   1.923  1.00139.82     0.187 C 
HETATM   13  C19 MIQ B 502       1.774  19.199   2.809  1.00140.06     0.247 C 
HETATM   14  O25 MIQ B 502       2.345  19.405   3.820  1.00143.95    -0.271 OA
HETATM   15  N20 MIQ B 502       1.470  17.831   2.442  1.00140.02    -0.296 N 
HETATM   16  H13 MIQ B 502       1.747  17.066   3.026  1.00142.77     0.171 HD
HETATM   17  C21 MIQ B 502       0.782  17.604   1.197  1.00142.22     0.224 C 
HETATM   18  C22 MIQ B 502       1.092  18.561   0.063  1.00139.52     0.106 C 
HETATM   19  O24 MIQ B 502       0.010  16.718   1.071  1.00146.13    -0.273 OA
HETATM   20  C23 MIQ B 502       0.783  19.955   0.578  1.00139.15     0.045 C 
ENDBRANCH  10  12
BRANCH   5  21
HETATM   21  N6  MIQ B 502       8.127  23.435   0.464  1.00140.95    -0.377 N 
HETATM   22  C7  MIQ B 502       8.846  22.231   0.087  1.00142.12     0.149 C 
HETATM   23  C8  MIQ B 502      10.346  22.369   0.316  1.00144.10     0.187 C 
HETATM   24  O9  MIQ B 502      10.866  23.559  -0.194  1.00148.65    -0.388 OA
HETATM   25  C10 MIQ B 502      10.013  24.571  -0.640  1.00147.44     0.187 C 
HETATM   26  C11 MIQ B 502       8.646  24.717   0.021  1.00144.08     0.149 C 
ENDBRANCH   5  21
TORSDOF 2
ENDMDL
MODEL 3
REMARK VINA RESULT:      -6.6      3.239      9.169
REMARK  2 active torsions:
REMARK  status: ('A' for Active; 'I' for Inactive)
REMARK    1  A    between atoms: C5_5  and  N6_21 
REMARK    2  A    between atoms: C18_14  and  N17_19 
ROOT
HETATM    1  O1  MIQ B 502       7.537  23.771  -0.364  1.00142.91    -0.171 OA
HETATM    2  C2  MIQ B 502       7.229  23.298   0.913  1.00141.17     0.195 A 
HETATM    3  C3  MIQ B 502       5.911  22.574   1.335  1.00141.71     0.035 A 
HETATM    4  C4  MIQ B 502       4.682  22.185   0.602  1.00142.86     0.046 A 
HETATM    5  C5  MIQ B 502       3.627  21.518   1.275  1.00139.53     0.031 A 
HETATM    6  C12 MIQ B 502       3.753  21.213   2.693  1.00139.38     0.030 A 
HETATM    7  C13 MIQ B 502       4.931  21.585   3.396  1.00141.18     0.019 A 
HETATM    8  C14 MIQ B 502       6.036  22.283   2.684  1.00138.77     0.033 A 
HETATM    9  C15 MIQ B 502       7.440  22.830   3.101  1.00142.10     0.195 A 
HETATM   10  N17 MIQ B 502       7.967  23.356   2.008  1.00139.42    -0.288 N 
HETATM   11  O16 MIQ B 502       8.015  22.774   4.372  1.00148.93    -0.171 OA
ENDROOT
BRANCH  10  12
HETATM   12  C18 MIQ B 502       9.277  23.980   2.023  1.00139.82     0.187 C 
HETATM   13  C19 MIQ B 502       9.128  25.395   1.452  1.00140.06     0.247 C 
HETATM   14  O25 MIQ B 502       8.296  26.108   1.888  1.00143.95    -0.271 OA
HETATM   15  N20 MIQ B 502       9.986  25.885   0.392  1.00140.02    -0.296 N 
HETATM   16  H13 MIQ B 502       9.874  26.808   0.023  1.00142.77     0.171 HD
HETATM   17  C21 MIQ B 502      10.987  24.992  -0.132  1.00142.22     0.224 C 
HETATM   18  C22 MIQ B 502      10.635  23.518  -0.168  1.00139.52     0.106 C 
HETATM   19  O24 MIQ B 502      12.034  25.392  -0.509  1.00146.13    -0.273 OA
HETATM   20  C23 MIQ B 502      10.283  23.124   1.255  1.00139.15     0.045 C 
ENDBRANCH  10  12
BRANCH   5  21
HETATM   21  N6  MIQ B 502       2.424  21.156   0.548  1.00140.95    -0.377 N 
HETATM   22  C7  MIQ B 502       1.713  19.951   0.939  1.00142.12     0.149 C 
HETATM   23  C8  MIQ B 502       0.924  19.355  -0.221  1.00144.10     0.187 C 
HETATM   24  O9  MIQ B 502       0.161  20.304  -0.903  1.00148.65    -0.388 OA
HETATM   25  C10 MIQ B 502       0.332  21.667  -0.647  1.00147.44     0.187 C 
HETATM   26  C11 MIQ B 502       1.710  22.161  -0.219  1.00144.08     0.149 C 
ENDBRANCH   5  21
TORSDOF 2
ENDMDL
MODEL 4
REMARK VINA RESULT:      -6.4      1.560      2.807
REMARK  2 active torsions:
REMARK  status: ('A' for Active; 'I' for Inactive)
REMARK    1  A    between atoms: C5_5  and  N6_21 
REMARK    2  A    between atoms: C18_14  and  N17_19 
ROOT
HETATM    1  O1  MIQ B 502       1.991  21.802  -0.732  1.00142.91    -0.171 OA
HETATM    2  C2  MIQ B 502       2.477  21.388   0.510  1.00141.17     0.195 A 
HETATM    3  C3  MIQ B 502       3.875  21.732   1.115  1.00141.71     0.035 A 
HETATM    4  C4  MIQ B 502       5.027  22.529   0.630  1.00142.86     0.046 A 
HETATM    5  C5  MIQ B 502       6.191  22.664   1.427  1.00139.53     0.031 A 
HETATM    6  C12 MIQ B 502       6.254  22.018   2.730  1.00139.38     0.030 A 
HETATM    7  C13 MIQ B 502       5.149  21.255   3.196  1.00141.18     0.019 A 
HETATM    8  C14 MIQ B 502       3.928  21.118   2.356  1.00138.77     0.033 A 
HETATM    9  C15 MIQ B 502       2.555  20.389   2.522  1.00142.10     0.195 A 
HETATM   10  N17 MIQ B 502       1.872  20.640   1.418  1.00139.42    -0.288 N 
HETATM   11  O16 MIQ B 502       2.141  19.626   3.615  1.00148.93    -0.171 OA
ENDROOT
BRANCH  10  12
HETATM   12  C18 MIQ B 502       0.540  20.103   1.212  1.00139.82     0.187 C 
HETATM   13  C19 MIQ B 502      -0.307  20.472   2.437  1.00140.06     0.247 C 
HETATM   14  O25 MIQ B 502      -0.336  21.594   2.800  1.00143.95    -0.271 OA
HETATM   15  N20 MIQ B 502      -1.079  19.481   3.158  1.00140.02    -0.296 N 
HETATM   16  H13 MIQ B 502      -1.623  19.734   3.960  1.00142.77     0.171 HD
HETATM   17  C21 MIQ B 502      -1.020  18.116   2.701  1.00142.22     0.224 C 
HETATM   18  C22 MIQ B 502       0.297  17.654   2.107  1.00139.52     0.106 C 
HETATM   19  O24 MIQ B 502      -1.953  17.397   2.783  1.00146.13    -0.273 OA
HETATM   20  C23 MIQ B 502       0.607  18.598   0.959  1.00139.15     0.045 C 
ENDBRANCH  10  12
BRANCH   5  21
HETATM   21  N6  MIQ B 502       7.318  23.435   0.933  1.00140.95    -0.377 N 
HETATM   22  C7  MIQ B 502       8.251  23.995   1.895  1.00142.12     0.149 C 
HETATM   23  C8  MIQ B 502       8.945  25.239   1.356  1.00144.10     0.187 C 
HETATM   24  O9  MIQ B 502       9.450  25.064   0.066  1.00148.65    -0.388 OA
HETATM   25  C10 MIQ B 502       9.113  23.931  -0.678  1.00147.44     0.187 C 
HETATM   26  C11 MIQ B 502       7.753  23.282  -0.444  1.00144.08     0.149 C 
ENDBRANCH   5  21
TORSDOF 2
ENDMDL
MODEL 5
REMARK VINA RESULT:      -6.4      2.030      9.002
REMARK  2 active torsions:
REMARK  status: ('A' for Active; 'I' for Inactive)
REMARK    1  A    between atoms: C5_5  and  N6_21 
REMARK    2  A    between atoms: C18_14  and  N17_19 
ROOT
HETATM    1  O1  MIQ B 502       7.201  22.369   4.037  1.00142.91    -0.171 OA
HETATM    2  C2  MIQ B 502       6.796  22.541   2.712  1.00141.17     0.195 A 
HETATM    3  C3  MIQ B 502       5.438  22.078   2.095  1.00141.71     0.035 A 
HETATM    4  C4  MIQ B 502       4.252  21.382   2.649  1.00142.86     0.046 A 
HETATM    5  C5  MIQ B 502       3.139  21.092   1.819  1.00139.53     0.031 A 
HETATM    6  C12 MIQ B 502       3.163  21.481   0.417  1.00139.38     0.030 A 
HETATM    7  C13 MIQ B 502       4.299  22.149  -0.114  1.00141.18     0.019 A 
HETATM    8  C14 MIQ B 502       5.463  22.453   0.762  1.00138.77     0.033 A 
HETATM    9  C15 MIQ B 502       6.845  23.153   0.550  1.00142.10     0.195 A 
HETATM   10  N17 MIQ B 502       7.455  23.120   1.723  1.00139.42    -0.288 N 
HETATM   11  O16 MIQ B 502       7.332  23.698  -0.640  1.00148.93    -0.171 OA
ENDROOT
BRANCH  10  12
HETATM   12  C18 MIQ B 502       8.785  23.672   1.901  1.00139.82     0.187 C 
HETATM   13  C19 MIQ B 502       8.756  25.127   1.416  1.00140.06     0.247 C 
HETATM   14  O25 MIQ B 502       7.920  25.853   1.822  1.00143.95    -0.271 OA
HETATM   15  N20 MIQ B 502       9.732  25.638   0.475  1.00140.02    -0.296 N 
HETATM   16  H13 MIQ B 502       9.699  26.588   0.161  1.00142.77     0.171 HD
HETATM   17  C21 MIQ B 502      10.737  24.729  -0.015  1.00142.22     0.224 C 
HETATM   18  C22 MIQ B 502      10.322  23.281  -0.184  1.00139.52     0.106 C 
HETATM   19  O24 MIQ B 502      11.832  25.097  -0.267  1.00146.13    -0.273 OA
HETATM   20  C23 MIQ B 502       9.819  22.815   1.171  1.00139.15     0.045 C 
ENDBRANCH  10  12
BRANCH   5  21
HETATM   21  N6  MIQ B 502       1.991  20.397   2.371  1.00140.95    -0.377 N 
HETATM   22  C7  MIQ B 502       0.899  20.042   1.480  1.00142.12     0.149 C 
HETATM   23  C8  MIQ B 502      -0.428  19.936   2.221  1.00144.10     0.187 C 
HETATM   24  O9  MIQ B 502      -0.339  19.175   3.388  1.00148.65    -0.388 OA
HETATM   25  C10 MIQ B 502       0.907  18.784   3.885  1.00147.44     0.187 C 
HETATM   26  C11 MIQ B 502       2.109  19.689   3.634  1.00144.08     0.149 C 
ENDBRANCH   5  21
TORSDOF 2
ENDMDL
MODEL 6
REMARK VINA RESULT:      -6.2      2.076      8.490
REMARK  2 active torsions:
REMARK  status: ('A' for Active; 'I' for Inactive)
REMARK    1  A    between atoms: C5_5  and  N6_21 
REMARK    2  A    between atoms: C18_14  and  N17_19 
ROOT
HETATM    1  O1  MIQ B 502       5.762  22.156   0.285  1.00142.91    -0.171 OA
HETATM    2  C2  MIQ B 502       5.580  22.206   1.669  1.00141.17     0.195 A 
HETATM    3  C3  MIQ B 502       4.486  21.445   2.484  1.00141.71     0.035 A 
HETATM    4  C4  MIQ B 502       3.396  20.515   2.105  1.00142.86     0.046 A 
HETATM    5  C5  MIQ B 502       2.542  19.970   3.097  1.00139.53     0.031 A 
HETATM    6  C12 MIQ B 502       2.737  20.327   4.494  1.00139.38     0.030 A 
HETATM    7  C13 MIQ B 502       3.783  21.218   4.858  1.00141.18     0.019 A 
HETATM    8  C14 MIQ B 502       4.678  21.785   3.813  1.00138.77     0.033 A 
HETATM    9  C15 MIQ B 502       5.899  22.762   3.823  1.00142.10     0.195 A 
HETATM   10  N17 MIQ B 502       6.279  22.886   2.562  1.00139.42    -0.288 N 
HETATM   11  O16 MIQ B 502       6.467  23.378   4.940  1.00148.93    -0.171 OA
ENDROOT
BRANCH  10  12
HETATM   12  C18 MIQ B 502       7.389  23.740   2.186  1.00139.82     0.187 C 
HETATM   13  C19 MIQ B 502       6.910  24.659   1.055  1.00140.06     0.247 C 
HETATM   14  O25 MIQ B 502       5.912  25.272   1.195  1.00143.95    -0.271 OA
HETATM   15  N20 MIQ B 502       7.654  24.802  -0.180  1.00140.02    -0.296 N 
HETATM   16  H13 MIQ B 502       7.327  25.401  -0.913  1.00142.77     0.171 HD
HETATM   17  C21 MIQ B 502       8.864  24.037  -0.331  1.00142.22     0.224 C 
HETATM   18  C22 MIQ B 502       8.893  22.671   0.327  1.00139.52     0.106 C 
HETATM   19  O24 MIQ B 502       9.790  24.457  -0.934  1.00146.13    -0.273 OA
HETATM   20  C23 MIQ B 502       8.603  22.896   1.800  1.00139.15     0.045 C 
ENDBRANCH  10  12
BRANCH   5  21
HETATM   21  N6  MIQ B 502       1.469  19.072   2.710  1.00140.95    -0.377 N 
HETATM   22  C7  MIQ B 502       1.759  17.653   2.595  1.00142.12     0.149 C 
HETATM   23  C8  MIQ B 502       0.823  16.959   1.614  1.00144.10     0.187 C 
HETATM   24  O9  MIQ B 502      -0.519  17.278   1.824  1.00148.65    -0.388 OA
HETATM   25  C10 MIQ B 502      -0.873  18.309   2.699  1.00147.44     0.187 C 
HETATM   26  C11 MIQ B 502       0.085  19.483   2.868  1.00144.08     0.149 C 
ENDBRANCH   5  21
TORSDOF 2
ENDMDL
MODEL 7
REMARK VINA RESULT:      -6.1     20.379     21.939
REMARK  2 active torsions:
REMARK  status: ('A' for Active; 'I' for Inactive)
REMARK    1  A    between atoms: C5_5  and  N6_21 
REMARK    2  A    between atoms: C18_14  and  N17_19 
ROOT
HETATM    1  O1  MIQ B 502      18.449  17.532 -12.039  1.00142.91    -0.171 OA
HETATM    2  C2  MIQ B 502      18.321  16.311 -11.372  1.00141.17     0.195 A 
HETATM    3  C3  MIQ B 502      17.279  15.192 -11.689  1.00141.71     0.035 A 
HETATM    4  C4  MIQ B 502      16.198  15.061 -12.694  1.00142.86     0.046 A 
HETATM    5  C5  MIQ B 502      15.397  13.892 -12.737  1.00139.53     0.031 A 
HETATM    6  C12 MIQ B 502      15.639  12.815 -11.789  1.00139.38     0.030 A 
HETATM    7  C13 MIQ B 502      16.676  12.939 -10.825  1.00141.18     0.019 A 
HETATM    8  C14 MIQ B 502      17.516  14.168 -10.786  1.00138.77     0.033 A 
HETATM    9  C15 MIQ B 502      18.712  14.654  -9.905  1.00142.10     0.195 A 
HETATM   10  N17 MIQ B 502      19.038  15.852 -10.361  1.00139.42    -0.288 N 
HETATM   11  O16 MIQ B 502      19.309  13.961  -8.850  1.00148.93    -0.171 OA
ENDROOT
BRANCH  10  12
HETATM   12  C18 MIQ B 502      20.112  16.623  -9.763  1.00139.82     0.187 C 
HETATM   13  C19 MIQ B 502      21.370  15.746  -9.757  1.00140.06     0.247 C 
HETATM   14  O25 MIQ B 502      21.710  15.220 -10.756  1.00143.95    -0.271 OA
HETATM   15  N20 MIQ B 502      22.159  15.551  -8.558  1.00140.02    -0.296 N 
HETATM   16  H13 MIQ B 502      22.975  14.970  -8.566  1.00142.77     0.171 HD
HETATM   17  C21 MIQ B 502      21.719  16.196  -7.348  1.00142.22     0.224 C 
HETATM   18  C22 MIQ B 502      20.221  16.344  -7.161  1.00139.52     0.106 C 
HETATM   19  O24 MIQ B 502      22.489  16.594  -6.544  1.00146.13    -0.273 OA
HETATM   20  C23 MIQ B 502      19.709  17.106  -8.370  1.00139.15     0.045 C 
ENDBRANCH  10  12
BRANCH   5  21
HETATM   21  N6  MIQ B 502      14.332  13.784 -13.717  1.00140.95    -0.377 N 
HETATM   22  C7  MIQ B 502      14.404  14.602 -14.915  1.00142.12     0.149 C 
HETATM   23  C8  MIQ B 502      13.024  14.887 -15.495  1.00144.10     0.187 C 
HETATM   24  O9  MIQ B 502      12.234  13.741 -15.602  1.00148.65    -0.388 OA
HETATM   25  C10 MIQ B 502      12.638  12.544 -15.006  1.00147.44     0.187 C 
HETATM   26  C11 MIQ B 502      13.478  12.609 -13.735  1.00144.08     0.149 C 
ENDBRANCH   5  21
TORSDOF 2
ENDMDL
MODEL 8
REMARK VINA RESULT:      -6.1      3.419      9.939
REMARK  2 active torsions:
REMARK  status: ('A' for Active; 'I' for Inactive)
REMARK    1  A    between atoms: C5_5  and  N6_21 
REMARK    2  A    between atoms: C18_14  and  N17_19 
ROOT
HETATM    1  O1  MIQ B 502       9.160  21.506  -0.105  1.00142.91    -0.171 OA
HETATM    2  C2  MIQ B 502       8.692  22.671   0.506  1.00141.17     0.195 A 
HETATM    3  C3  MIQ B 502       7.203  22.997   0.850  1.00141.71     0.035 A 
HETATM    4  C4  MIQ B 502       5.930  22.261   0.669  1.00142.86     0.046 A 
HETATM    5  C5  MIQ B 502       4.705  22.831   1.096  1.00139.53     0.031 A 
HETATM    6  C12 MIQ B 502       4.698  24.148   1.717  1.00139.38     0.030 A 
HETATM    7  C13 MIQ B 502       5.919  24.854   1.893  1.00141.18     0.019 A 
HETATM    8  C14 MIQ B 502       7.203  24.249   1.444  1.00138.77     0.033 A 
HETATM    9  C15 MIQ B 502       8.699  24.702   1.469  1.00142.10     0.195 A 
HETATM   10  N17 MIQ B 502       9.388  23.717   0.917  1.00139.42    -0.288 N 
HETATM   11  O16 MIQ B 502       9.200  25.904   1.971  1.00148.93    -0.171 OA
ENDROOT
BRANCH  10  12
HETATM   12  C18 MIQ B 502      10.828  23.797   0.755  1.00139.82     0.187 C 
HETATM   13  C19 MIQ B 502      11.437  24.095   2.131  1.00140.06     0.247 C 
HETATM   14  O25 MIQ B 502      11.134  23.424   3.052  1.00143.95    -0.271 OA
HETATM   15  N20 MIQ B 502      12.380  25.176   2.331  1.00140.02    -0.296 N 
HETATM   16  H13 MIQ B 502      12.766  25.364   3.235  1.00142.77     0.171 HD
HETATM   17  C21 MIQ B 502      12.726  25.988   1.193  1.00142.22     0.224 C 
HETATM   18  C22 MIQ B 502      11.637  26.216   0.162  1.00139.52     0.106 C 
HETATM   19  O24 MIQ B 502      13.807  26.449   1.068  1.00146.13    -0.273 OA
HETATM   20  C23 MIQ B 502      11.187  24.842  -0.300  1.00139.15     0.045 C 
ENDBRANCH  10  12
BRANCH   5  21
HETATM   21  N6  MIQ B 502       3.464  22.105   0.898  1.00140.95    -0.377 N 
HETATM   22  C7  MIQ B 502       3.482  20.656   1.006  1.00142.12     0.149 C 
HETATM   23  C8  MIQ B 502       2.374  20.010   0.184  1.00144.10     0.187 C 
HETATM   24  O9  MIQ B 502       1.128  20.608   0.386  1.00148.65    -0.388 OA
HETATM   25  C10 MIQ B 502       1.026  21.809   1.093  1.00147.44     0.187 C 
HETATM   26  C11 MIQ B 502       2.191  22.792   1.034  1.00144.08     0.149 C 
ENDBRANCH   5  21
TORSDOF 2
ENDMDL
MODEL 9
REMARK VINA RESULT:      -6.1      3.180      4.503
REMARK  2 active torsions:
REMARK  status: ('A' for Active; 'I' for Inactive)
REMARK    1  A    between atoms: C5_5  and  N6_21 
REMARK    2  A    between atoms: C18_14  and  N17_19 
ROOT
HETATM    1  O1  MIQ B 502       4.370  22.124  -0.346  1.00142.91    -0.171 OA
HETATM    2  C2  MIQ B 502       4.765  22.163   0.993  1.00141.17     0.195 A 
HETATM    3  C3  MIQ B 502       6.070  22.814   1.551  1.00141.71     0.035 A 
HETATM    4  C4  MIQ B 502       7.201  23.533   0.917  1.00142.86     0.046 A 
HETATM    5  C5  MIQ B 502       8.272  24.023   1.708  1.00139.53     0.031 A 
HETATM    6  C12 MIQ B 502       8.258  23.818   3.149  1.00139.38     0.030 A 
HETATM    7  C13 MIQ B 502       7.173  23.130   3.757  1.00141.18     0.019 A 
HETATM    8  C14 MIQ B 502       6.051  22.620   2.922  1.00138.77     0.033 A 
HETATM    9  C15 MIQ B 502       4.726  21.845   3.218  1.00142.10     0.195 A 
HETATM   10  N17 MIQ B 502       4.134  21.675   2.047  1.00139.42    -0.288 N 
HETATM   11  O16 MIQ B 502       4.267  21.419   4.465  1.00148.93    -0.171 OA
ENDROOT
BRANCH  10  12
HETATM   12  C18 MIQ B 502       2.870  20.971   1.933  1.00139.82     0.187 C 
HETATM   13  C19 MIQ B 502       3.081  19.782   0.988  1.00140.06     0.247 C 
HETATM   14  O25 MIQ B 502       3.980  19.044   1.183  1.00143.95    -0.271 OA
HETATM   15  N20 MIQ B 502       2.202  19.535  -0.137  1.00140.02    -0.296 N 
HETATM   16  H13 MIQ B 502       2.354  18.758  -0.750  1.00142.77     0.171 HD
HETATM   17  C21 MIQ B 502       1.118  20.456  -0.360  1.00142.22     0.224 C 
HETATM   18  C22 MIQ B 502       1.371  21.907   0.000  1.00139.52     0.106 C 
HETATM   19  O24 MIQ B 502       0.081  20.095  -0.798  1.00146.13    -0.273 OA
HETATM   20  C23 MIQ B 502       1.771  21.924   1.464  1.00139.15     0.045 C 
ENDBRANCH  10  12
BRANCH   5  21
HETATM   21  N6  MIQ B 502       9.380  24.712   1.073  1.00140.95    -0.377 N 
HETATM   22  C7  MIQ B 502      10.029  25.795   1.792  1.00142.12     0.149 C 
HETATM   23  C8  MIQ B 502      10.672  26.801   0.846  1.00144.10     0.187 C 
HETATM   24  O9  MIQ B 502      11.445  26.196  -0.147  1.00148.65    -0.388 OA
HETATM   25  C10 MIQ B 502      11.398  24.813  -0.336  1.00147.44     0.187 C 
HETATM   26  C11 MIQ B 502      10.102  24.076  -0.016  1.00144.08     0.149 C 
ENDBRANCH   5  21
TORSDOF 2
ENDMDL
