MODEL 1
REMARK VINA RESULT:      -6.1      0.000      0.000
REMARK  2 active torsions:
REMARK  status: ('A' for Active; 'I' for Inactive)
REMARK    1  A    between atoms: C5_5  and  N6_21 
REMARK    2  A    between atoms: C18_14  and  N17_19 
ROOT
HETATM    1  O1  MIQ B 502     -26.490 -40.748 -16.686  1.00142.91    -0.171 OA
HETATM    2  C2  MIQ B 502     -25.192 -40.233 -16.683  1.00141.17     0.195 A 
HETATM    3  C3  MIQ B 502     -24.703 -38.967 -15.909  1.00141.71     0.035 A 
HETATM    4  C4  MIQ B 502     -25.378 -37.996 -15.015  1.00142.86     0.046 A 
HETATM    5  C5  MIQ B 502     -24.650 -36.921 -14.445  1.00139.53     0.031 A 
HETATM    6  C12 MIQ B 502     -23.232 -36.771 -14.741  1.00139.38     0.030 A 
HETATM    7  C13 MIQ B 502     -22.585 -37.702 -15.597  1.00141.18     0.019 A 
HETATM    8  C14 MIQ B 502     -23.354 -38.831 -16.191  1.00138.77     0.033 A 
HETATM    9  C15 MIQ B 502     -23.002 -40.019 -17.144  1.00142.10     0.195 A 
HETATM   10  N17 MIQ B 502     -24.126 -40.697 -17.313  1.00139.42    -0.288 N 
HETATM   11  O16 MIQ B 502     -21.755 -40.301 -17.703  1.00148.93    -0.171 OA
ENDROOT
BRANCH  10  12
HETATM   12  C18 MIQ B 502     -24.181 -41.872 -18.162  1.00139.82     0.187 C 
HETATM   13  C19 MIQ B 502     -25.258 -41.630 -19.226  1.00140.06     0.247 C 
HETATM   14  O25 MIQ B 502     -25.232 -40.633 -19.856  1.00143.95    -0.271 OA
HETATM   15  N20 MIQ B 502     -26.307 -42.595 -19.485  1.00140.02    -0.296 N 
HETATM   16  H13 MIQ B 502     -27.008 -42.422 -20.178  1.00142.77     0.171 HD
HETATM   17  C21 MIQ B 502     -26.324 -43.800 -18.696  1.00142.22     0.224 C 
HETATM   18  C22 MIQ B 502     -25.846 -43.682 -17.262  1.00139.52     0.106 C 
HETATM   19  O24 MIQ B 502     -26.688 -44.830 -19.148  1.00146.13    -0.273 OA
HETATM   20  C23 MIQ B 502     -24.436 -43.123 -17.322  1.00139.15     0.045 C 
ENDBRANCH  10  12
BRANCH   5  21
HETATM   21  N6  MIQ B 502     -25.326 -35.970 -13.583  1.00140.95    -0.377 N 
HETATM   22  C7  MIQ B 502     -26.420 -36.441 -12.751  1.00142.12     0.149 C 
HETATM   23  C8  MIQ B 502     -27.409 -35.329 -12.428  1.00144.10     0.187 C 
HETATM   24  O9  MIQ B 502     -26.787 -34.159 -11.988  1.00148.65    -0.388 OA
HETATM   25  C10 MIQ B 502     -25.400 -34.016 -12.085  1.00147.44     0.187 C 
HETATM   26  C11 MIQ B 502     -24.671 -34.725 -13.221  1.00144.08     0.149 C 
ENDBRANCH   5  21
TORSDOF 2
ENDMDL
MODEL 2
REMARK VINA RESULT:      -5.6     13.096     16.017
REMARK  2 active torsions:
REMARK  status: ('A' for Active; 'I' for Inactive)
REMARK    1  A    between atoms: C5_5  and  N6_21 
REMARK    2  A    between atoms: C18_14  and  N17_19 
ROOT
HETATM    1  O1  MIQ B 502     -19.583 -32.473 -27.946  1.00142.91    -0.171 OA
HETATM    2  C2  MIQ B 502     -19.342 -33.846 -28.034  1.00141.17     0.195 A 
HETATM    3  C3  MIQ B 502     -19.903 -34.813 -29.125  1.00141.71     0.035 A 
HETATM    4  C4  MIQ B 502     -20.779 -34.620 -30.305  1.00142.86     0.046 A 
HETATM    5  C5  MIQ B 502     -21.121 -35.720 -31.131  1.00139.53     0.031 A 
HETATM    6  C12 MIQ B 502     -20.609 -37.046 -30.818  1.00139.38     0.030 A 
HETATM    7  C13 MIQ B 502     -19.768 -37.232 -29.688  1.00141.18     0.019 A 
HETATM    8  C14 MIQ B 502     -19.410 -36.073 -28.825  1.00138.77     0.033 A 
HETATM    9  C15 MIQ B 502     -18.538 -35.886 -27.541  1.00142.10     0.195 A 
HETATM   10  N17 MIQ B 502     -18.604 -34.601 -27.237  1.00139.42    -0.288 N 
HETATM   11  O16 MIQ B 502     -17.836 -36.880 -26.856  1.00148.93    -0.171 OA
ENDROOT
BRANCH  10  12
HETATM   12  C18 MIQ B 502     -17.919 -34.059 -26.079  1.00139.82     0.187 C 
HETATM   13  C19 MIQ B 502     -16.465 -34.543 -26.127  1.00140.06     0.247 C 
HETATM   14  O25 MIQ B 502     -15.841 -34.394 -27.117  1.00143.95    -0.271 OA
HETATM   15  N20 MIQ B 502     -15.831 -35.175 -24.987  1.00140.02    -0.296 N 
HETATM   16  H13 MIQ B 502     -14.883 -35.492 -25.034  1.00142.77     0.171 HD
HETATM   17  C21 MIQ B 502     -16.617 -35.355 -23.794  1.00142.22     0.224 C 
HETATM   18  C22 MIQ B 502     -18.097 -35.624 -23.986  1.00139.52     0.106 C 
HETATM   19  O24 MIQ B 502     -16.130 -35.291 -22.719  1.00146.13    -0.273 OA
HETATM   20  C23 MIQ B 502     -18.644 -34.463 -24.796  1.00139.15     0.045 C 
ENDBRANCH  10  12
BRANCH   5  21
HETATM   21  N6  MIQ B 502     -21.992 -35.519 -32.275  1.00140.95    -0.377 N 
HETATM   22  C7  MIQ B 502     -22.675 -34.244 -32.412  1.00142.12     0.149 C 
HETATM   23  C8  MIQ B 502     -23.970 -34.374 -33.204  1.00144.10     0.187 C 
HETATM   24  O9  MIQ B 502     -23.812 -35.098 -34.388  1.00148.65    -0.388 OA
HETATM   25  C10 MIQ B 502     -22.628 -35.796 -34.638  1.00147.44     0.187 C 
HETATM   26  C11 MIQ B 502     -21.846 -36.354 -33.454  1.00144.08     0.149 C 
ENDBRANCH   5  21
TORSDOF 2
ENDMDL
MODEL 3
REMARK VINA RESULT:      -5.5     13.599     15.439
REMARK  2 active torsions:
REMARK  status: ('A' for Active; 'I' for Inactive)
REMARK    1  A    between atoms: C5_5  and  N6_21 
REMARK    2  A    between atoms: C18_14  and  N17_19 
ROOT
HETATM    1  O1  MIQ B 502     -24.400 -26.719 -17.616  1.00142.91    -0.171 OA
HETATM    2  C2  MIQ B 502     -24.392 -25.653 -18.518  1.00141.17     0.195 A 
HETATM    3  C3  MIQ B 502     -25.601 -25.166 -19.380  1.00141.71     0.035 A 
HETATM    4  C4  MIQ B 502     -27.006 -25.618 -19.512  1.00142.86     0.046 A 
HETATM    5  C5  MIQ B 502     -27.891 -24.956 -20.400  1.00139.53     0.031 A 
HETATM    6  C12 MIQ B 502     -27.416 -23.827 -21.186  1.00139.38     0.030 A 
HETATM    7  C13 MIQ B 502     -26.069 -23.392 -21.058  1.00141.18     0.019 A 
HETATM    8  C14 MIQ B 502     -25.145 -24.089 -20.122  1.00138.77     0.033 A 
HETATM    9  C15 MIQ B 502     -23.645 -23.906 -19.719  1.00142.10     0.195 A 
HETATM   10  N17 MIQ B 502     -23.391 -24.847 -18.825  1.00139.42    -0.288 N 
HETATM   11  O16 MIQ B 502     -22.759 -22.946 -20.210  1.00148.93    -0.171 OA
ENDROOT
BRANCH  10  12
HETATM   12  C18 MIQ B 502     -22.074 -24.992 -18.232  1.00139.82     0.187 C 
HETATM   13  C19 MIQ B 502     -21.621 -26.441 -18.449  1.00140.06     0.247 C 
HETATM   14  O25 MIQ B 502     -21.670 -26.904 -19.533  1.00143.95    -0.271 OA
HETATM   15  N20 MIQ B 502     -21.128 -27.259 -17.360  1.00140.02    -0.296 N 
HETATM   16  H13 MIQ B 502     -20.842 -28.206 -17.513  1.00142.77     0.171 HD
HETATM   17  C21 MIQ B 502     -21.088 -26.675 -16.044  1.00142.22     0.224 C 
HETATM   18  C22 MIQ B 502     -22.179 -25.677 -15.707  1.00139.52     0.106 C 
HETATM   19  O24 MIQ B 502     -20.242 -26.958 -15.268  1.00146.13    -0.273 OA
HETATM   20  C23 MIQ B 502     -22.105 -24.586 -16.760  1.00139.15     0.045 C 
ENDBRANCH  10  12
BRANCH   5  21
HETATM   21  N6  MIQ B 502     -29.261 -25.419 -20.531  1.00140.95    -0.377 N 
HETATM   22  C7  MIQ B 502     -29.663 -26.058 -21.772  1.00142.12     0.149 C 
HETATM   23  C8  MIQ B 502     -31.155 -25.903 -22.034  1.00144.10     0.187 C 
HETATM   24  O9  MIQ B 502     -31.938 -26.216 -20.921  1.00148.65    -0.388 OA
HETATM   25  C10 MIQ B 502     -31.344 -26.412 -19.671  1.00147.44     0.187 C 
HETATM   26  C11 MIQ B 502     -30.065 -25.650 -19.344  1.00144.08     0.149 C 
ENDBRANCH   5  21
TORSDOF 2
ENDMDL
MODEL 4
REMARK VINA RESULT:      -5.4     13.227     15.978
REMARK  2 active torsions:
REMARK  status: ('A' for Active; 'I' for Inactive)
REMARK    1  A    between atoms: C5_5  and  N6_21 
REMARK    2  A    between atoms: C18_14  and  N17_19 
ROOT
HETATM    1  O1  MIQ B 502     -29.340 -25.916 -19.450  1.00142.91    -0.171 OA
HETATM    2  C2  MIQ B 502     -28.525 -25.030 -20.158  1.00141.17     0.195 A 
HETATM    3  C3  MIQ B 502     -26.973 -24.902 -20.032  1.00141.71     0.035 A 
HETATM    4  C4  MIQ B 502     -25.957 -25.603 -19.212  1.00142.86     0.046 A 
HETATM    5  C5  MIQ B 502     -24.586 -25.257 -19.322  1.00139.53     0.031 A 
HETATM    6  C12 MIQ B 502     -24.176 -24.210 -20.245  1.00139.38     0.030 A 
HETATM    7  C13 MIQ B 502     -25.150 -23.539 -21.033  1.00141.18     0.019 A 
HETATM    8  C14 MIQ B 502     -26.588 -23.907 -20.915  1.00138.77     0.033 A 
HETATM    9  C15 MIQ B 502     -27.908 -23.414 -21.594  1.00142.10     0.195 A 
HETATM   10  N17 MIQ B 502     -28.881 -24.137 -21.066  1.00139.42    -0.288 N 
HETATM   11  O16 MIQ B 502     -28.028 -22.412 -22.558  1.00148.93    -0.171 OA
ENDROOT
BRANCH  10  12
HETATM   12  C18 MIQ B 502     -30.266 -23.941 -21.453  1.00139.82     0.187 C 
HETATM   13  C19 MIQ B 502     -31.081 -23.710 -20.175  1.00140.06     0.247 C 
HETATM   14  O25 MIQ B 502     -30.720 -22.896 -19.401  1.00143.95    -0.271 OA
HETATM   15  N20 MIQ B 502     -32.287 -24.460 -19.892  1.00140.02    -0.296 N 
HETATM   16  H13 MIQ B 502     -32.806 -24.305 -19.050  1.00142.77     0.171 HD
HETATM   17  C21 MIQ B 502     -32.701 -25.456 -20.846  1.00142.22     0.224 C 
HETATM   18  C22 MIQ B 502     -31.600 -26.190 -21.587  1.00139.52     0.106 C 
HETATM   19  O24 MIQ B 502     -33.844 -25.684 -21.045  1.00146.13    -0.273 OA
HETATM   20  C23 MIQ B 502     -30.762 -25.129 -22.276  1.00139.15     0.045 C 
ENDBRANCH  10  12
BRANCH   5  21
HETATM   21  N6  MIQ B 502     -23.602 -25.941 -18.502  1.00140.95    -0.377 N 
HETATM   22  C7  MIQ B 502     -24.068 -26.886 -17.501  1.00142.12     0.149 C 
HETATM   23  C8  MIQ B 502     -23.086 -27.022 -16.345  1.00144.10     0.187 C 
HETATM   24  O9  MIQ B 502     -21.768 -27.204 -16.770  1.00148.65    -0.388 OA
HETATM   25  C10 MIQ B 502     -21.429 -27.033 -18.115  1.00147.44     0.187 C 
HETATM   26  C11 MIQ B 502     -22.223 -26.031 -18.947  1.00144.08     0.149 C 
ENDBRANCH   5  21
TORSDOF 2
ENDMDL
MODEL 5
REMARK VINA RESULT:      -5.4     12.352     15.223
REMARK  2 active torsions:
REMARK  status: ('A' for Active; 'I' for Inactive)
REMARK    1  A    between atoms: C5_5  and  N6_21 
REMARK    2  A    between atoms: C18_14  and  N17_19 
ROOT
HETATM    1  O1  MIQ B 502     -17.827 -38.204 -27.444  1.00142.91    -0.171 OA
HETATM    2  C2  MIQ B 502     -18.104 -36.858 -27.193  1.00141.17     0.195 A 
HETATM    3  C3  MIQ B 502     -18.949 -35.906 -28.098  1.00141.71     0.035 A 
HETATM    4  C4  MIQ B 502     -19.663 -36.090 -29.384  1.00142.86     0.046 A 
HETATM    5  C5  MIQ B 502     -20.362 -35.009 -29.977  1.00139.53     0.031 A 
HETATM    6  C12 MIQ B 502     -20.378 -33.710 -29.318  1.00139.38     0.030 A 
HETATM    7  C13 MIQ B 502     -19.694 -33.534 -28.085  1.00141.18     0.019 A 
HETATM    8  C14 MIQ B 502     -18.964 -34.673 -27.466  1.00138.77     0.033 A 
HETATM    9  C15 MIQ B 502     -18.124 -34.862 -26.160  1.00142.10     0.195 A 
HETATM   10  N17 MIQ B 502     -17.726 -36.123 -26.161  1.00139.42    -0.288 N 
HETATM   11  O16 MIQ B 502     -17.852 -33.892 -25.195  1.00148.93    -0.171 OA
ENDROOT
BRANCH  10  12
HETATM   12  C18 MIQ B 502     -16.901 -36.658 -25.094  1.00139.82     0.187 C 
HETATM   13  C19 MIQ B 502     -17.687 -36.526 -23.784  1.00140.06     0.247 C 
HETATM   14  O25 MIQ B 502     -18.792 -36.934 -23.732  1.00143.95    -0.271 OA
HETATM   15  N20 MIQ B 502     -17.108 -35.918 -22.603  1.00140.02    -0.296 N 
HETATM   16  H13 MIQ B 502     -17.634 -35.832 -21.756  1.00142.77     0.171 HD
HETATM   17  C21 MIQ B 502     -15.760 -35.418 -22.695  1.00142.22     0.224 C 
HETATM   18  C22 MIQ B 502     -15.335 -34.846 -24.033  1.00139.52     0.106 C 
HETATM   19  O24 MIQ B 502     -15.023 -35.456 -21.772  1.00146.13    -0.273 OA
HETATM   20  C23 MIQ B 502     -15.550 -35.945 -25.059  1.00139.15     0.045 C 
ENDBRANCH  10  12
BRANCH   5  21
HETATM   21  N6  MIQ B 502     -21.046 -35.199 -31.243  1.00140.95    -0.377 N 
HETATM   22  C7  MIQ B 502     -22.498 -35.209 -31.254  1.00142.12     0.149 C 
HETATM   23  C8  MIQ B 502     -23.053 -36.022 -32.417  1.00144.10     0.187 C 
HETATM   24  O9  MIQ B 502     -22.449 -35.708 -33.636  1.00148.65    -0.388 OA
HETATM   25  C10 MIQ B 502     -21.308 -34.902 -33.674  1.00147.44     0.187 C 
HETATM   26  C11 MIQ B 502     -20.347 -34.942 -32.490  1.00144.08     0.149 C 
ENDBRANCH   5  21
TORSDOF 2
ENDMDL
MODEL 6
REMARK VINA RESULT:      -5.3      2.620      8.605
REMARK  2 active torsions:
REMARK  status: ('A' for Active; 'I' for Inactive)
REMARK    1  A    between atoms: C5_5  and  N6_21 
REMARK    2  A    between atoms: C18_14  and  N17_19 
ROOT
HETATM    1  O1  MIQ B 502     -26.407 -36.972 -11.694  1.00142.91    -0.171 OA
HETATM    2  C2  MIQ B 502     -25.255 -36.742 -12.450  1.00141.17     0.195 A 
HETATM    3  C3  MIQ B 502     -24.866 -37.462 -13.780  1.00141.71     0.035 A 
HETATM    4  C4  MIQ B 502     -25.517 -38.512 -14.599  1.00142.86     0.046 A 
HETATM    5  C5  MIQ B 502     -24.904 -38.974 -15.791  1.00139.53     0.031 A 
HETATM    6  C12 MIQ B 502     -23.629 -38.413 -16.212  1.00139.38     0.030 A 
HETATM    7  C13 MIQ B 502     -23.005 -37.406 -15.428  1.00141.18     0.019 A 
HETATM    8  C14 MIQ B 502     -23.654 -36.922 -14.179  1.00138.77     0.033 A 
HETATM    9  C15 MIQ B 502     -23.289 -35.861 -13.090  1.00142.10     0.195 A 
HETATM   10  N17 MIQ B 502     -24.277 -35.886 -12.211  1.00139.42    -0.288 N 
HETATM   11  O16 MIQ B 502     -22.149 -35.057 -13.056  1.00148.93    -0.171 OA
ENDROOT
BRANCH  10  12
HETATM   12  C18 MIQ B 502     -24.269 -35.030 -11.039  1.00139.82     0.187 C 
HETATM   13  C19 MIQ B 502     -24.094 -33.584 -11.517  1.00140.06     0.247 C 
HETATM   14  O25 MIQ B 502     -24.805 -33.166 -12.361  1.00143.95    -0.271 OA
HETATM   15  N20 MIQ B 502     -23.084 -32.710 -10.955  1.00140.02    -0.296 N 
HETATM   16  H13 MIQ B 502     -22.976 -31.770 -11.281  1.00142.77     0.171 HD
HETATM   17  C21 MIQ B 502     -22.222 -33.246  -9.933  1.00142.22     0.224 C 
HETATM   18  C22 MIQ B 502     -21.867 -34.716 -10.042  1.00139.52     0.106 C 
HETATM   19  O24 MIQ B 502     -21.817 -32.571  -9.051  1.00146.13    -0.273 OA
HETATM   20  C23 MIQ B 502     -23.181 -35.476 -10.063  1.00139.15     0.045 C 
ENDBRANCH  10  12
BRANCH   5  21
HETATM   21  N6  MIQ B 502     -25.546 -40.013 -16.575  1.00140.95    -0.377 N 
HETATM   22  C7  MIQ B 502     -26.285 -41.052 -15.879  1.00142.12     0.149 C 
HETATM   23  C8  MIQ B 502     -26.337 -42.347 -16.680  1.00144.10     0.187 C 
HETATM   24  O9  MIQ B 502     -26.700 -42.148 -18.013  1.00148.65    -0.388 OA
HETATM   25  C10 MIQ B 502     -26.763 -40.857 -18.544  1.00147.44     0.187 C 
HETATM   26  C11 MIQ B 502     -25.827 -39.791 -17.983  1.00144.08     0.149 C 
ENDBRANCH   5  21
TORSDOF 2
ENDMDL
MODEL 7
REMARK VINA RESULT:      -5.3      1.985      8.172
REMARK  2 active torsions:
REMARK  status: ('A' for Active; 'I' for Inactive)
REMARK    1  A    between atoms: C5_5  and  N6_21 
REMARK    2  A    between atoms: C18_14  and  N17_19 
ROOT
HETATM    1  O1  MIQ B 502     -26.931 -36.997 -13.060  1.00142.91    -0.171 OA
HETATM    2  C2  MIQ B 502     -25.606 -36.848 -13.477  1.00141.17     0.195 A 
HETATM    3  C3  MIQ B 502     -24.911 -37.630 -14.637  1.00141.71     0.035 A 
HETATM    4  C4  MIQ B 502     -25.373 -38.674 -15.582  1.00142.86     0.046 A 
HETATM    5  C5  MIQ B 502     -24.486 -39.205 -16.552  1.00139.53     0.031 A 
HETATM    6  C12 MIQ B 502     -23.115 -38.721 -16.620  1.00139.38     0.030 A 
HETATM    7  C13 MIQ B 502     -22.672 -37.719 -15.715  1.00141.18     0.019 A 
HETATM    8  C14 MIQ B 502     -23.608 -37.164 -14.699  1.00138.77     0.033 A 
HETATM    9  C15 MIQ B 502     -23.494 -36.086 -13.573  1.00142.10     0.195 A 
HETATM   10  N17 MIQ B 502     -24.683 -36.033 -12.996  1.00139.42    -0.288 N 
HETATM   11  O16 MIQ B 502     -22.363 -35.336 -13.244  1.00148.93    -0.171 OA
ENDROOT
BRANCH  10  12
HETATM   12  C18 MIQ B 502     -24.946 -35.140 -11.883  1.00139.82     0.187 C 
HETATM   13  C19 MIQ B 502     -25.512 -35.981 -10.732  1.00140.06     0.247 C 
HETATM   14  O25 MIQ B 502     -24.936 -36.952 -10.391  1.00143.95    -0.271 OA
HETATM   15  N20 MIQ B 502     -26.734 -35.614 -10.047  1.00140.02    -0.296 N 
HETATM   16  H13 MIQ B 502     -27.097 -36.175  -9.301  1.00142.77     0.171 HD
HETATM   17  C21 MIQ B 502     -27.425 -34.429 -10.488  1.00142.22     0.224 C 
HETATM   18  C22 MIQ B 502     -27.353 -34.110 -11.969  1.00139.52     0.106 C 
HETATM   19  O24 MIQ B 502     -28.014 -33.740  -9.731  1.00146.13    -0.273 OA
HETATM   20  C23 MIQ B 502     -25.879 -34.010 -12.316  1.00139.15     0.045 C 
ENDBRANCH  10  12
BRANCH   5  21
HETATM   21  N6  MIQ B 502     -24.947 -40.238 -17.462  1.00140.95    -0.377 N 
HETATM   22  C7  MIQ B 502     -26.138 -39.984 -18.255  1.00142.12     0.149 C 
HETATM   23  C8  MIQ B 502     -26.855 -41.273 -18.633  1.00144.10     0.187 C 
HETATM   24  O9  MIQ B 502     -25.993 -42.245 -19.145  1.00148.65    -0.388 OA
HETATM   25  C10 MIQ B 502     -24.609 -42.073 -19.070  1.00147.44     0.187 C 
HETATM   26  C11 MIQ B 502     -24.035 -41.279 -17.901  1.00144.08     0.149 C 
ENDBRANCH   5  21
TORSDOF 2
ENDMDL
MODEL 8
REMARK VINA RESULT:      -5.3     10.810     12.428
REMARK  2 active torsions:
REMARK  status: ('A' for Active; 'I' for Inactive)
REMARK    1  A    between atoms: C5_5  and  N6_21 
REMARK    2  A    between atoms: C18_14  and  N17_19 
ROOT
HETATM    1  O1  MIQ B 502     -31.212 -46.065 -21.667  1.00142.91    -0.171 OA
HETATM    2  C2  MIQ B 502     -31.375 -45.540 -22.951  1.00141.17     0.195 A 
HETATM    3  C3  MIQ B 502     -32.522 -44.590 -23.420  1.00141.71     0.035 A 
HETATM    4  C4  MIQ B 502     -33.692 -43.990 -22.736  1.00142.86     0.046 A 
HETATM    5  C5  MIQ B 502     -34.580 -43.142 -23.445  1.00139.53     0.031 A 
HETATM    6  C12 MIQ B 502     -34.341 -42.861 -24.853  1.00139.38     0.030 A 
HETATM    7  C13 MIQ B 502     -33.219 -43.436 -25.510  1.00141.18     0.019 A 
HETATM    8  C14 MIQ B 502     -32.288 -44.323 -24.759  1.00138.77     0.033 A 
HETATM    9  C15 MIQ B 502     -30.988 -45.111 -25.123  1.00142.10     0.195 A 
HETATM   10  N17 MIQ B 502     -30.612 -45.726 -24.014  1.00139.42    -0.288 N 
HETATM   11  O16 MIQ B 502     -30.358 -45.155 -26.368  1.00148.93    -0.171 OA
ENDROOT
BRANCH  10  12
HETATM   12  C18 MIQ B 502     -29.435 -46.575 -23.981  1.00139.82     0.187 C 
HETATM   13  C19 MIQ B 502     -29.863 -47.947 -23.445  1.00140.06     0.247 C 
HETATM   14  O25 MIQ B 502     -30.786 -48.494 -23.934  1.00143.95    -0.271 OA
HETATM   15  N20 MIQ B 502     -29.159 -48.594 -22.356  1.00140.02    -0.296 N 
HETATM   16  H13 MIQ B 502     -29.453 -49.487 -22.011  1.00142.77     0.171 HD
HETATM   17  C21 MIQ B 502     -28.041 -47.902 -21.769  1.00142.22     0.224 C 
HETATM   18  C22 MIQ B 502     -28.127 -46.389 -21.720  1.00139.52     0.106 C 
HETATM   19  O24 MIQ B 502     -27.103 -48.486 -21.351  1.00146.13    -0.273 OA
HETATM   20  C23 MIQ B 502     -28.332 -45.922 -23.150  1.00139.15     0.045 C 
ENDBRANCH  10  12
BRANCH   5  21
HETATM   21  N6  MIQ B 502     -35.730 -42.573 -22.766  1.00140.95    -0.377 N 
HETATM   22  C7  MIQ B 502     -36.277 -41.321 -23.259  1.00142.12     0.149 C 
HETATM   23  C8  MIQ B 502     -36.987 -40.539 -22.161  1.00144.10     0.187 C 
HETATM   24  O9  MIQ B 502     -37.870 -41.326 -21.418  1.00148.65    -0.388 OA
HETATM   25  C10 MIQ B 502     -37.875 -42.715 -21.565  1.00147.44     0.187 C 
HETATM   26  C11 MIQ B 502     -36.571 -43.415 -21.934  1.00144.08     0.149 C 
ENDBRANCH   5  21
TORSDOF 2
ENDMDL
MODEL 9
REMARK VINA RESULT:      -5.3      1.562      2.050
REMARK  2 active torsions:
REMARK  status: ('A' for Active; 'I' for Inactive)
REMARK    1  A    between atoms: C5_5  and  N6_21 
REMARK    2  A    between atoms: C18_14  and  N17_19 
ROOT
HETATM    1  O1  MIQ B 502     -26.592 -40.885 -15.914  1.00142.91    -0.171 OA
HETATM    2  C2  MIQ B 502     -25.342 -40.325 -16.187  1.00141.17     0.195 A 
HETATM    3  C3  MIQ B 502     -24.798 -38.971 -15.632  1.00141.71     0.035 A 
HETATM    4  C4  MIQ B 502     -25.361 -37.940 -14.728  1.00142.86     0.046 A 
HETATM    5  C5  MIQ B 502     -24.605 -36.786 -14.398  1.00139.53     0.031 A 
HETATM    6  C12 MIQ B 502     -23.269 -36.615 -14.950  1.00139.38     0.030 A 
HETATM    7  C13 MIQ B 502     -22.729 -37.604 -15.816  1.00141.18     0.019 A 
HETATM    8  C14 MIQ B 502     -23.525 -38.814 -16.157  1.00138.77     0.033 A 
HETATM    9  C15 MIQ B 502     -23.278 -40.079 -17.042  1.00142.10     0.195 A 
HETATM   10  N17 MIQ B 502     -24.376 -40.811 -16.947  1.00139.42    -0.288 N 
HETATM   11  O16 MIQ B 502     -22.132 -40.370 -17.783  1.00148.93    -0.171 OA
ENDROOT
BRANCH  10  12
HETATM   12  C18 MIQ B 502     -24.512 -42.068 -17.660  1.00139.82     0.187 C 
HETATM   13  C19 MIQ B 502     -23.254 -42.900 -17.385  1.00140.06     0.247 C 
HETATM   14  O25 MIQ B 502     -22.902 -43.062 -16.271  1.00143.95    -0.271 OA
HETATM   15  N20 MIQ B 502     -22.486 -43.500 -18.457  1.00140.02    -0.296 N 
HETATM   16  H13 MIQ B 502     -21.662 -44.035 -18.265  1.00142.77     0.171 HD
HETATM   17  C21 MIQ B 502     -22.929 -43.279 -19.809  1.00142.22     0.224 C 
HETATM   18  C22 MIQ B 502     -23.580 -41.942 -20.104  1.00139.52     0.106 C 
HETATM   19  O24 MIQ B 502     -22.796 -44.104 -20.645  1.00146.13    -0.273 OA
HETATM   20  C23 MIQ B 502     -24.751 -41.812 -19.147  1.00139.15     0.045 C 
ENDBRANCH  10  12
BRANCH   5  21
HETATM   21  N6  MIQ B 502     -25.175 -35.778 -13.523  1.00140.95    -0.377 N 
HETATM   22  C7  MIQ B 502     -26.340 -36.125 -12.728  1.00142.12     0.149 C 
HETATM   23  C8  MIQ B 502     -27.186 -34.903 -12.394  1.00144.10     0.187 C 
HETATM   24  O9  MIQ B 502     -26.429 -33.835 -11.908  1.00148.65    -0.388 OA
HETATM   25  C10 MIQ B 502     -25.033 -33.870 -11.971  1.00147.44     0.187 C 
HETATM   26  C11 MIQ B 502     -24.374 -34.638 -13.112  1.00144.08     0.149 C 
ENDBRANCH   5  21
TORSDOF 2
ENDMDL
