MODEL 1
REMARK VINA RESULT:      -8.4      0.000      0.000
REMARK  2 active torsions:
REMARK  status: ('A' for Active; 'I' for Inactive)
REMARK    1  A    between atoms: C5_5  and  N6_21 
REMARK    2  A    between atoms: C18_14  and  N17_19 
ROOT
HETATM    1  O1  MIQ B 502     -14.960   1.705  10.654  1.00142.91    -0.171 OA
HETATM    2  C2  MIQ B 502     -15.621   1.996   9.458  1.00141.17     0.195 A 
HETATM    3  C3  MIQ B 502     -16.278   3.360   9.076  1.00141.71     0.035 A 
HETATM    4  C4  MIQ B 502     -16.404   4.662   9.775  1.00142.86     0.046 A 
HETATM    5  C5  MIQ B 502     -17.074   5.746   9.154  1.00139.53     0.031 A 
HETATM    6  C12 MIQ B 502     -17.639   5.580   7.823  1.00139.38     0.030 A 
HETATM    7  C13 MIQ B 502     -17.518   4.333   7.153  1.00141.18     0.019 A 
HETATM    8  C14 MIQ B 502     -16.812   3.198   7.808  1.00138.77     0.033 A 
HETATM    9  C15 MIQ B 502     -16.484   1.725   7.401  1.00142.10     0.195 A 
HETATM   10  N17 MIQ B 502     -15.823   1.202   8.420  1.00139.42    -0.288 N 
HETATM   11  O16 MIQ B 502     -16.825   1.094   6.203  1.00148.93    -0.171 OA
ENDROOT
BRANCH  10  12
HETATM   12  C18 MIQ B 502     -15.365  -0.175   8.401  1.00139.82     0.187 C 
HETATM   13  C19 MIQ B 502     -14.609  -0.398   7.085  1.00140.06     0.247 C 
HETATM   14  O25 MIQ B 502     -13.754   0.355   6.778  1.00143.95    -0.271 OA
HETATM   15  N20 MIQ B 502     -14.911  -1.511   6.210  1.00140.02    -0.296 N 
HETATM   16  H13 MIQ B 502     -14.415  -1.642   5.351  1.00142.77     0.171 HD
HETATM   17  C21 MIQ B 502     -15.966  -2.410   6.602  1.00142.22     0.224 C 
HETATM   18  C22 MIQ B 502     -17.132  -1.804   7.359  1.00139.52     0.106 C 
HETATM   19  O24 MIQ B 502     -15.921  -3.564   6.348  1.00146.13    -0.273 OA
HETATM   20  C23 MIQ B 502     -16.544  -1.129   8.586  1.00139.15     0.045 C 
ENDBRANCH  10  12
BRANCH   5  21
HETATM   21  N6  MIQ B 502     -17.202   7.010   9.856  1.00140.95    -0.377 N 
HETATM   22  C7  MIQ B 502     -16.435   7.211  11.073  1.00142.12     0.149 C 
HETATM   23  C8  MIQ B 502     -17.103   8.211  12.008  1.00144.10     0.187 C 
HETATM   24  O9  MIQ B 502     -17.504   9.379  11.357  1.00148.65    -0.388 OA
HETATM   25  C10 MIQ B 502     -17.481   9.455   9.962  1.00147.44     0.187 C 
HETATM   26  C11 MIQ B 502     -17.707   8.180   9.158  1.00144.08     0.149 C 
ENDBRANCH   5  21
TORSDOF 2
ENDMDL
MODEL 2
REMARK VINA RESULT:      -7.8      1.494      2.499
REMARK  2 active torsions:
REMARK  status: ('A' for Active; 'I' for Inactive)
REMARK    1  A    between atoms: C5_5  and  N6_21 
REMARK    2  A    between atoms: C18_14  and  N17_19 
ROOT
HETATM    1  O1  MIQ B 502     -17.420   3.164   6.000  1.00142.91    -0.171 OA
HETATM    2  C2  MIQ B 502     -17.115   2.678   7.274  1.00141.17     0.195 A 
HETATM    3  C3  MIQ B 502     -17.021   3.521   8.585  1.00141.71     0.035 A 
HETATM    4  C4  MIQ B 502     -17.206   4.961   8.886  1.00142.86     0.046 A 
HETATM    5  C5  MIQ B 502     -17.051   5.442  10.210  1.00139.53     0.031 A 
HETATM    6  C12 MIQ B 502     -16.708   4.516  11.280  1.00139.38     0.030 A 
HETATM    7  C13 MIQ B 502     -16.531   3.135  10.992  1.00141.18     0.019 A 
HETATM    8  C14 MIQ B 502     -16.698   2.636   9.600  1.00138.77     0.033 A 
HETATM    9  C15 MIQ B 502     -16.592   1.234   8.915  1.00142.10     0.195 A 
HETATM   10  N17 MIQ B 502     -16.853   1.433   7.634  1.00139.42    -0.288 N 
HETATM   11  O16 MIQ B 502     -16.281   0.022   9.535  1.00148.93    -0.171 OA
ENDROOT
BRANCH  10  12
HETATM   12  C18 MIQ B 502     -16.830   0.342   6.678  1.00139.82     0.187 C 
HETATM   13  C19 MIQ B 502     -17.773  -0.752   7.193  1.00140.06     0.247 C 
HETATM   14  O25 MIQ B 502     -18.873  -0.464   7.505  1.00143.95    -0.271 OA
HETATM   15  N20 MIQ B 502     -17.352  -2.134   7.303  1.00140.02    -0.296 N 
HETATM   16  H13 MIQ B 502     -17.975  -2.838   7.648  1.00142.77     0.171 HD
HETATM   17  C21 MIQ B 502     -16.000  -2.460   6.926  1.00142.22     0.224 C 
HETATM   18  C22 MIQ B 502     -14.946  -1.403   7.192  1.00139.52     0.106 C 
HETATM   19  O24 MIQ B 502     -15.731  -3.497   6.429  1.00146.13    -0.273 OA
HETATM   20  C23 MIQ B 502     -15.398  -0.149   6.466  1.00139.15     0.045 C 
ENDBRANCH  10  12
BRANCH   5  21
HETATM   21  N6  MIQ B 502     -17.220   6.857  10.488  1.00140.95    -0.377 N 
HETATM   22  C7  MIQ B 502     -16.554   7.421  11.649  1.00142.12     0.149 C 
HETATM   23  C8  MIQ B 502     -17.283   8.648  12.183  1.00144.10     0.187 C 
HETATM   24  O9  MIQ B 502     -17.614   9.562  11.181  1.00148.65    -0.388 OA
HETATM   25  C10 MIQ B 502     -17.475   9.218   9.834  1.00147.44     0.187 C 
HETATM   26  C11 MIQ B 502     -17.651   7.757   9.433  1.00144.08     0.149 C 
ENDBRANCH   5  21
TORSDOF 2
ENDMDL
MODEL 3
REMARK VINA RESULT:      -7.8      1.212      2.348
REMARK  2 active torsions:
REMARK  status: ('A' for Active; 'I' for Inactive)
REMARK    1  A    between atoms: C5_5  and  N6_21 
REMARK    2  A    between atoms: C18_14  and  N17_19 
ROOT
HETATM    1  O1  MIQ B 502     -16.372   1.540   7.399  1.00142.91    -0.171 OA
HETATM    2  C2  MIQ B 502     -16.058   1.648   8.756  1.00141.17     0.195 A 
HETATM    3  C3  MIQ B 502     -16.152   2.943   9.624  1.00141.71     0.035 A 
HETATM    4  C4  MIQ B 502     -16.564   4.337   9.333  1.00142.86     0.046 A 
HETATM    5  C5  MIQ B 502     -16.545   5.319  10.356  1.00139.53     0.031 A 
HETATM    6  C12 MIQ B 502     -16.119   4.954  11.699  1.00139.38     0.030 A 
HETATM    7  C13 MIQ B 502     -15.725   3.617  11.979  1.00141.18     0.019 A 
HETATM    8  C14 MIQ B 502     -15.749   2.591  10.901  1.00138.77     0.033 A 
HETATM    9  C15 MIQ B 502     -15.404   1.068  10.827  1.00142.10     0.195 A 
HETATM   10  N17 MIQ B 502     -15.631   0.703   9.576  1.00139.42    -0.288 N 
HETATM   11  O16 MIQ B 502     -14.946   0.262  11.871  1.00148.93    -0.171 OA
ENDROOT
BRANCH  10  12
HETATM   12  C18 MIQ B 502     -15.400  -0.659   9.130  1.00139.82     0.187 C 
HETATM   13  C19 MIQ B 502     -14.452  -0.603   7.926  1.00140.06     0.247 C 
HETATM   14  O25 MIQ B 502     -13.447   0.009   8.012  1.00143.95    -0.271 OA
HETATM   15  N20 MIQ B 502     -14.753  -1.285   6.684  1.00140.02    -0.296 N 
HETATM   16  H13 MIQ B 502     -14.129  -1.235   5.903  1.00142.77     0.171 HD
HETATM   17  C21 MIQ B 502     -15.991  -2.016   6.600  1.00142.22     0.224 C 
HETATM   18  C22 MIQ B 502     -17.169  -1.453   7.370  1.00139.52     0.106 C 
HETATM   19  O24 MIQ B 502     -16.081  -3.009   5.965  1.00146.13    -0.273 OA
HETATM   20  C23 MIQ B 502     -16.727  -1.349   8.819  1.00139.15     0.045 C 
ENDBRANCH  10  12
BRANCH   5  21
HETATM   21  N6  MIQ B 502     -16.936   6.683  10.053  1.00140.95    -0.377 N 
HETATM   22  C7  MIQ B 502     -16.614   7.727  11.011  1.00142.12     0.149 C 
HETATM   23  C8  MIQ B 502     -17.582   8.900  10.920  1.00144.10     0.187 C 
HETATM   24  O9  MIQ B 502     -17.788   9.335   9.610  1.00148.65    -0.388 OA
HETATM   25  C10 MIQ B 502     -17.314   8.583   8.532  1.00147.44     0.187 C 
HETATM   26  C11 MIQ B 502     -17.224   7.068   8.682  1.00144.08     0.149 C 
ENDBRANCH   5  21
TORSDOF 2
ENDMDL
MODEL 4
REMARK VINA RESULT:      -7.5      1.594      2.334
REMARK  2 active torsions:
REMARK  status: ('A' for Active; 'I' for Inactive)
REMARK    1  A    between atoms: C5_5  and  N6_21 
REMARK    2  A    between atoms: C18_14  and  N17_19 
ROOT
HETATM    1  O1  MIQ B 502     -16.307   1.345   9.012  1.00142.91    -0.171 OA
HETATM    2  C2  MIQ B 502     -16.728   2.283   8.067  1.00141.17     0.195 A 
HETATM    3  C3  MIQ B 502     -17.024   3.793   8.336  1.00141.71     0.035 A 
HETATM    4  C4  MIQ B 502     -16.962   4.644   9.548  1.00142.86     0.046 A 
HETATM    5  C5  MIQ B 502     -17.299   6.019   9.476  1.00139.53     0.031 A 
HETATM    6  C12 MIQ B 502     -17.706   6.598   8.204  1.00139.38     0.030 A 
HETATM    7  C13 MIQ B 502     -17.764   5.783   7.041  1.00141.18     0.019 A 
HETATM    8  C14 MIQ B 502     -17.408   4.340   7.122  1.00138.77     0.033 A 
HETATM    9  C15 MIQ B 502     -17.349   3.164   6.094  1.00142.10     0.195 A 
HETATM   10  N17 MIQ B 502     -16.954   2.102   6.777  1.00139.42    -0.288 N 
HETATM   11  O16 MIQ B 502     -17.655   3.226   4.734  1.00148.93    -0.171 OA
ENDROOT
BRANCH  10  12
HETATM   12  C18 MIQ B 502     -16.800   0.806   6.141  1.00139.82     0.187 C 
HETATM   13  C19 MIQ B 502     -17.571  -0.220   6.980  1.00140.06     0.247 C 
HETATM   14  O25 MIQ B 502     -18.694  -0.002   7.268  1.00143.95    -0.271 OA
HETATM   15  N20 MIQ B 502     -16.961  -1.457   7.424  1.00140.02    -0.296 N 
HETATM   16  H13 MIQ B 502     -17.473  -2.116   7.976  1.00142.77     0.171 HD
HETATM   17  C21 MIQ B 502     -15.586  -1.696   7.068  1.00142.22     0.224 C 
HETATM   18  C22 MIQ B 502     -14.682  -0.481   6.986  1.00139.52     0.106 C 
HETATM   19  O24 MIQ B 502     -15.186  -2.786   6.846  1.00146.13    -0.273 OA
HETATM   20  C23 MIQ B 502     -15.320   0.464   5.984  1.00139.15     0.045 C 
ENDBRANCH  10  12
BRANCH   5  21
HETATM   21  N6  MIQ B 502     -17.248   6.837  10.674  1.00140.95    -0.377 N 
HETATM   22  C7  MIQ B 502     -18.123   7.994  10.763  1.00142.12     0.149 C 
HETATM   23  C8  MIQ B 502     -17.554   9.068  11.680  1.00144.10     0.187 C 
HETATM   24  O9  MIQ B 502     -17.110   8.560  12.903  1.00148.65    -0.388 OA
HETATM   25  C10 MIQ B 502     -17.010   7.181  13.102  1.00147.44     0.187 C 
HETATM   26  C11 MIQ B 502     -16.698   6.292  11.902  1.00144.08     0.149 C 
ENDBRANCH   5  21
TORSDOF 2
ENDMDL
MODEL 5
REMARK VINA RESULT:      -7.3      1.742      2.525
REMARK  2 active torsions:
REMARK  status: ('A' for Active; 'I' for Inactive)
REMARK    1  A    between atoms: C5_5  and  N6_21 
REMARK    2  A    between atoms: C18_14  and  N17_19 
ROOT
HETATM    1  O1  MIQ B 502     -14.019   2.245   9.440  1.00142.91    -0.171 OA
HETATM    2  C2  MIQ B 502     -15.063   2.566   8.571  1.00141.17     0.195 A 
HETATM    3  C3  MIQ B 502     -16.033   3.783   8.705  1.00141.71     0.035 A 
HETATM    4  C4  MIQ B 502     -16.156   4.885   9.688  1.00142.86     0.046 A 
HETATM    5  C5  MIQ B 502     -17.165   5.870   9.539  1.00139.53     0.031 A 
HETATM    6  C12 MIQ B 502     -18.084   5.798   8.412  1.00139.38     0.030 A 
HETATM    7  C13 MIQ B 502     -17.966   4.742   7.468  1.00141.18     0.019 A 
HETATM    8  C14 MIQ B 502     -16.903   3.712   7.629  1.00138.77     0.033 A 
HETATM    9  C15 MIQ B 502     -16.470   2.445   6.822  1.00142.10     0.195 A 
HETATM   10  N17 MIQ B 502     -15.441   1.931   7.475  1.00139.42    -0.288 N 
HETATM   11  O16 MIQ B 502     -17.056   1.958   5.652  1.00148.93    -0.171 OA
ENDROOT
BRANCH  10  12
HETATM   12  C18 MIQ B 502     -14.781   0.722   7.017  1.00139.82     0.187 C 
HETATM   13  C19 MIQ B 502     -14.576  -0.188   8.234  1.00140.06     0.247 C 
HETATM   14  O25 MIQ B 502     -15.494  -0.426   8.937  1.00143.95    -0.271 OA
HETATM   15  N20 MIQ B 502     -13.286  -0.771   8.544  1.00140.02    -0.296 N 
HETATM   16  H13 MIQ B 502     -13.164  -1.358   9.345  1.00142.77     0.171 HD
HETATM   17  C21 MIQ B 502     -12.179  -0.457   7.678  1.00142.22     0.224 C 
HETATM   18  C22 MIQ B 502     -12.171   0.926   7.057  1.00139.52     0.106 C 
HETATM   19  O24 MIQ B 502     -11.324  -1.243   7.459  1.00146.13    -0.273 OA
HETATM   20  C23 MIQ B 502     -13.478   1.067   6.298  1.00139.15     0.045 C 
ENDBRANCH  10  12
BRANCH   5  21
HETATM   21  N6  MIQ B 502     -17.283   6.935  10.518  1.00140.95    -0.377 N 
HETATM   22  C7  MIQ B 502     -18.366   7.893  10.375  1.00142.12     0.149 C 
HETATM   23  C8  MIQ B 502     -18.023   9.237  11.004  1.00144.10     0.187 C 
HETATM   24  O9  MIQ B 502     -17.499   9.117  12.292  1.00148.65    -0.388 OA
HETATM   25  C10 MIQ B 502     -17.136   7.864  12.794  1.00147.44     0.187 C 
HETATM   26  C11 MIQ B 502     -16.648   6.800  11.817  1.00144.08     0.149 C 
ENDBRANCH   5  21
TORSDOF 2
ENDMDL
MODEL 6
REMARK VINA RESULT:      -7.2     12.278     14.556
REMARK  2 active torsions:
REMARK  status: ('A' for Active; 'I' for Inactive)
REMARK    1  A    between atoms: C5_5  and  N6_21 
REMARK    2  A    between atoms: C18_14  and  N17_19 
ROOT
HETATM    1  O1  MIQ B 502     -14.713  -8.522   1.907  1.00142.91    -0.171 OA
HETATM    2  C2  MIQ B 502     -15.682  -8.542   0.902  1.00141.17     0.195 A 
HETATM    3  C3  MIQ B 502     -17.213  -8.298   1.092  1.00141.71     0.035 A 
HETATM    4  C4  MIQ B 502     -18.058  -7.995   2.271  1.00142.86     0.046 A 
HETATM    5  C5  MIQ B 502     -19.457  -7.821   2.125  1.00139.53     0.031 A 
HETATM    6  C12 MIQ B 502     -20.067  -7.941   0.808  1.00139.38     0.030 A 
HETATM    7  C13 MIQ B 502     -19.257  -8.231  -0.323  1.00141.18     0.019 A 
HETATM    8  C14 MIQ B 502     -17.788  -8.410  -0.164  1.00138.77     0.033 A 
HETATM    9  C15 MIQ B 502     -16.607  -8.724  -1.139  1.00142.10     0.195 A 
HETATM   10  N17 MIQ B 502     -15.516  -8.760  -0.392  1.00139.42    -0.288 N 
HETATM   11  O16 MIQ B 502     -16.693  -8.928  -2.517  1.00148.93    -0.171 OA
ENDROOT
BRANCH  10  12
HETATM   12  C18 MIQ B 502     -14.214  -9.045  -0.965  1.00139.82     0.187 C 
HETATM   13  C19 MIQ B 502     -14.112  -8.287  -2.294  1.00140.06     0.247 C 
HETATM   14  O25 MIQ B 502     -14.362  -7.134  -2.320  1.00143.95    -0.271 OA
HETATM   15  N20 MIQ B 502     -13.712  -8.945  -3.521  1.00140.02    -0.296 N 
HETATM   16  H13 MIQ B 502     -13.655  -8.440  -4.383  1.00142.77     0.171 HD
HETATM   17  C21 MIQ B 502     -13.422 -10.355  -3.466  1.00142.22     0.224 C 
HETATM   18  C22 MIQ B 502     -14.232 -11.179  -2.483  1.00139.52     0.106 C 
HETATM   19  O24 MIQ B 502     -12.591 -10.842  -4.150  1.00146.13    -0.273 OA
HETATM   20  C23 MIQ B 502     -14.018 -10.553  -1.117  1.00139.15     0.045 C 
ENDBRANCH  10  12
BRANCH   5  21
HETATM   21  N6  MIQ B 502     -20.274  -7.538   3.291  1.00140.95    -0.377 N 
HETATM   22  C7  MIQ B 502     -19.617  -7.101   4.510  1.00142.12     0.149 C 
HETATM   23  C8  MIQ B 502     -20.425  -7.457   5.751  1.00144.10     0.187 C 
HETATM   24  O9  MIQ B 502     -21.773  -7.108   5.641  1.00148.65    -0.388 OA
HETATM   25  C10 MIQ B 502     -22.300  -6.699   4.414  1.00147.44     0.187 C 
HETATM   26  C11 MIQ B 502     -21.692  -7.265   3.134  1.00144.08     0.149 C 
ENDBRANCH   5  21
TORSDOF 2
ENDMDL
MODEL 7
REMARK VINA RESULT:      -6.9     14.511     17.649
REMARK  2 active torsions:
REMARK  status: ('A' for Active; 'I' for Inactive)
REMARK    1  A    between atoms: C5_5  and  N6_21 
REMARK    2  A    between atoms: C18_14  and  N17_19 
ROOT
HETATM    1  O1  MIQ B 502     -21.510  13.640  -2.315  1.00142.91    -0.171 OA
HETATM    2  C2  MIQ B 502     -20.233  14.102  -1.988  1.00141.17     0.195 A 
HETATM    3  C3  MIQ B 502     -19.068  14.382  -2.991  1.00141.71     0.035 A 
HETATM    4  C4  MIQ B 502     -18.942  14.267  -4.463  1.00142.86     0.046 A 
HETATM    5  C5  MIQ B 502     -17.724  14.604  -5.106  1.00139.53     0.031 A 
HETATM    6  C12 MIQ B 502     -16.593  15.067  -4.315  1.00139.38     0.030 A 
HETATM    7  C13 MIQ B 502     -16.714  15.178  -2.903  1.00141.18     0.019 A 
HETATM    8  C14 MIQ B 502     -17.996  14.824  -2.234  1.00138.77     0.033 A 
HETATM    9  C15 MIQ B 502     -18.497  14.820  -0.753  1.00142.10     0.195 A 
HETATM   10  N17 MIQ B 502     -19.751  14.399  -0.793  1.00139.42    -0.288 N 
HETATM   11  O16 MIQ B 502     -17.766  15.185   0.378  1.00148.93    -0.171 OA
ENDROOT
BRANCH  10  12
HETATM   12  C18 MIQ B 502     -20.539  14.252   0.416  1.00139.82     0.187 C 
HETATM   13  C19 MIQ B 502     -21.003  12.792   0.498  1.00140.06     0.247 C 
HETATM   14  O25 MIQ B 502     -20.208  11.928   0.384  1.00143.95    -0.271 OA
HETATM   15  N20 MIQ B 502     -22.391  12.443   0.718  1.00140.02    -0.296 N 
HETATM   16  H13 MIQ B 502     -22.682  11.486   0.763  1.00142.77     0.171 HD
HETATM   17  C21 MIQ B 502     -23.345  13.515   0.845  1.00142.22     0.224 C 
HETATM   18  C22 MIQ B 502     -23.078  14.764   0.026  1.00139.52     0.106 C 
HETATM   19  O24 MIQ B 502     -24.285  13.426   1.555  1.00146.13    -0.273 OA
HETATM   20  C23 MIQ B 502     -21.696  15.251   0.421  1.00139.15     0.045 C 
ENDBRANCH  10  12
BRANCH   5  21
HETATM   21  N6  MIQ B 502     -17.610  14.473  -6.547  1.00140.95    -0.377 N 
HETATM   22  C7  MIQ B 502     -18.668  15.017  -7.380  1.00142.12     0.149 C 
HETATM   23  C8  MIQ B 502     -18.772  14.289  -8.715  1.00144.10     0.187 C 
HETATM   24  O9  MIQ B 502     -17.536  14.133  -9.346  1.00148.65    -0.388 OA
HETATM   25  C10 MIQ B 502     -16.352  14.423  -8.664  1.00147.44     0.187 C 
HETATM   26  C11 MIQ B 502     -16.313  14.225  -7.152  1.00144.08     0.149 C 
ENDBRANCH   5  21
TORSDOF 2
ENDMDL
MODEL 8
REMARK VINA RESULT:      -6.8     12.589     14.619
REMARK  2 active torsions:
REMARK  status: ('A' for Active; 'I' for Inactive)
REMARK    1  A    between atoms: C5_5  and  N6_21 
REMARK    2  A    between atoms: C18_14  and  N17_19 
ROOT
HETATM    1  O1  MIQ B 502     -19.336  -9.295  -1.577  1.00142.91    -0.171 OA
HETATM    2  C2  MIQ B 502     -18.405  -8.815  -0.653  1.00141.17     0.195 A 
HETATM    3  C3  MIQ B 502     -18.716  -8.314   0.794  1.00141.71     0.035 A 
HETATM    4  C4  MIQ B 502     -19.963  -8.196   1.585  1.00142.86     0.046 A 
HETATM    5  C5  MIQ B 502     -19.927  -7.693   2.910  1.00139.53     0.031 A 
HETATM    6  C12 MIQ B 502     -18.656  -7.291   3.495  1.00139.38     0.030 A 
HETATM    7  C13 MIQ B 502     -17.459  -7.405   2.737  1.00141.18     0.019 A 
HETATM    8  C14 MIQ B 502     -17.504  -7.936   1.347  1.00138.77     0.033 A 
HETATM    9  C15 MIQ B 502     -16.434  -8.204   0.239  1.00142.10     0.195 A 
HETATM   10  N17 MIQ B 502     -17.097  -8.689  -0.798  1.00139.42    -0.288 N 
HETATM   11  O16 MIQ B 502     -15.061  -7.972   0.329  1.00148.93    -0.171 OA
ENDROOT
BRANCH  10  12
HETATM   12  C18 MIQ B 502     -16.420  -9.043  -2.032  1.00139.82     0.187 C 
HETATM   13  C19 MIQ B 502     -15.269  -9.993  -1.678  1.00140.06     0.247 C 
HETATM   14  O25 MIQ B 502     -15.490 -10.940  -1.010  1.00143.95    -0.271 OA
HETATM   15  N20 MIQ B 502     -13.918  -9.765  -2.147  1.00140.02    -0.296 N 
HETATM   16  H13 MIQ B 502     -13.175 -10.389  -1.904  1.00142.77     0.171 HD
HETATM   17  C21 MIQ B 502     -13.672  -8.596  -2.953  1.00142.22     0.224 C 
HETATM   18  C22 MIQ B 502     -14.502  -7.366  -2.640  1.00139.52     0.106 C 
HETATM   19  O24 MIQ B 502     -12.867  -8.601  -3.818  1.00146.13    -0.273 OA
HETATM   20  C23 MIQ B 502     -15.956  -7.784  -2.763  1.00139.15     0.045 C 
ENDBRANCH  10  12
BRANCH   5  21
HETATM   21  N6  MIQ B 502     -21.158  -7.569   3.668  1.00140.95    -0.377 N 
HETATM   22  C7  MIQ B 502     -22.291  -8.399   3.295  1.00142.12     0.149 C 
HETATM   23  C8  MIQ B 502     -23.617  -7.759   3.682  1.00144.10     0.187 C 
HETATM   24  O9  MIQ B 502     -23.631  -7.288   4.996  1.00148.65    -0.388 OA
HETATM   25  C10 MIQ B 502     -22.449  -7.229   5.739  1.00147.44     0.187 C 
HETATM   26  C11 MIQ B 502     -21.135  -6.993   5.001  1.00144.08     0.149 C 
ENDBRANCH   5  21
TORSDOF 2
ENDMDL
MODEL 9
REMARK VINA RESULT:      -6.8     13.139     15.398
REMARK  2 active torsions:
REMARK  status: ('A' for Active; 'I' for Inactive)
REMARK    1  A    between atoms: C5_5  and  N6_21 
REMARK    2  A    between atoms: C18_14  and  N17_19 
ROOT
HETATM    1  O1  MIQ B 502     -16.470 -10.312  -1.629  1.00142.91    -0.171 OA
HETATM    2  C2  MIQ B 502     -15.979  -9.511  -0.595  1.00141.17     0.195 A 
HETATM    3  C3  MIQ B 502     -16.804  -8.948   0.606  1.00141.71     0.035 A 
HETATM    4  C4  MIQ B 502     -18.225  -9.065   1.011  1.00142.86     0.046 A 
HETATM    5  C5  MIQ B 502     -18.690  -8.425   2.187  1.00139.53     0.031 A 
HETATM    6  C12 MIQ B 502     -17.765  -7.649   3.002  1.00139.38     0.030 A 
HETATM    7  C13 MIQ B 502     -16.403  -7.538   2.615  1.00141.18     0.019 A 
HETATM    8  C14 MIQ B 502     -15.919  -8.215   1.380  1.00138.77     0.033 A 
HETATM    9  C15 MIQ B 502     -14.538  -8.323   0.655  1.00142.10     0.195 A 
HETATM   10  N17 MIQ B 502     -14.745  -9.074  -0.414  1.00139.42    -0.288 N 
HETATM   11  O16 MIQ B 502     -13.335  -7.741   1.058  1.00148.93    -0.171 OA
ENDROOT
BRANCH  10  12
HETATM   12  C18 MIQ B 502     -13.674  -9.378  -1.345  1.00139.82     0.187 C 
HETATM   13  C19 MIQ B 502     -14.134  -8.952  -2.744  1.00140.06     0.247 C 
HETATM   14  O25 MIQ B 502     -14.560  -7.863  -2.903  1.00143.95    -0.271 OA
HETATM   15  N20 MIQ B 502     -14.056  -9.848  -3.880  1.00140.02    -0.296 N 
HETATM   16  H13 MIQ B 502     -14.366  -9.559  -4.787  1.00142.77     0.171 HD
HETATM   17  C21 MIQ B 502     -13.543 -11.175  -3.658  1.00142.22     0.224 C 
HETATM   18  C22 MIQ B 502     -13.845 -11.806  -2.312  1.00139.52     0.106 C 
HETATM   19  O24 MIQ B 502     -12.914 -11.740  -4.483  1.00146.13    -0.273 OA
HETATM   20  C23 MIQ B 502     -13.300 -10.858  -1.260  1.00139.15     0.045 C 
ENDBRANCH  10  12
BRANCH   5  21
HETATM   21  N6  MIQ B 502     -20.088  -8.535   2.563  1.00140.95    -0.377 N 
HETATM   22  C7  MIQ B 502     -20.988  -7.450   2.215  1.00142.12     0.149 C 
HETATM   23  C8  MIQ B 502     -22.174  -7.367   3.167  1.00144.10     0.187 C 
HETATM   24  O9  MIQ B 502     -22.785  -8.604   3.383  1.00148.65    -0.388 OA
HETATM   25  C10 MIQ B 502     -22.181  -9.780   2.933  1.00147.44     0.187 C 
HETATM   26  C11 MIQ B 502     -20.658  -9.837   2.862  1.00144.08     0.149 C 
ENDBRANCH   5  21
TORSDOF 2
ENDMDL
