MODEL 1
REMARK VINA RESULT:      -7.1      0.000      0.000
REMARK  2 active torsions:
REMARK  status: ('A' for Active; 'I' for Inactive)
REMARK    1  A    between atoms: C5_5  and  N6_21 
REMARK    2  A    between atoms: C18_14  and  N17_19 
ROOT
HETATM    1  O1  MIQ B 502     -16.503  -2.499   6.581  1.00142.91    -0.171 OA
HETATM    2  C2  MIQ B 502     -16.244  -1.762   7.739  1.00141.17     0.195 A 
HETATM    3  C3  MIQ B 502     -17.153  -1.685   9.007  1.00141.71     0.035 A 
HETATM    4  C4  MIQ B 502     -18.450  -2.304   9.369  1.00142.86     0.046 A 
HETATM    5  C5  MIQ B 502     -19.043  -2.039  10.629  1.00139.53     0.031 A 
HETATM    6  C12 MIQ B 502     -18.373  -1.155  11.572  1.00139.38     0.030 A 
HETATM    7  C13 MIQ B 502     -17.128  -0.563  11.225  1.00141.18     0.019 A 
HETATM    8  C14 MIQ B 502     -16.509  -0.846   9.902  1.00138.77     0.033 A 
HETATM    9  C15 MIQ B 502     -15.193  -0.400   9.186  1.00142.10     0.195 A 
HETATM   10  N17 MIQ B 502     -15.200  -0.995   8.005  1.00139.42    -0.288 N 
HETATM   11  O16 MIQ B 502     -14.215   0.457   9.694  1.00148.93    -0.171 OA
ENDROOT
BRANCH  10  12
HETATM   12  C18 MIQ B 502     -14.125  -0.796   7.050  1.00139.82     0.187 C 
HETATM   13  C19 MIQ B 502     -14.759  -0.433   5.702  1.00140.06     0.247 C 
HETATM   14  O25 MIQ B 502     -15.556   0.436   5.655  1.00143.95    -0.271 OA
HETATM   15  N20 MIQ B 502     -14.403  -1.123   4.479  1.00140.02    -0.296 N 
HETATM   16  H13 MIQ B 502     -14.829  -0.880   3.606  1.00142.77     0.171 HD
HETATM   17  C21 MIQ B 502     -13.435  -2.186   4.563  1.00142.22     0.224 C 
HETATM   18  C22 MIQ B 502     -13.438  -3.012   5.835  1.00139.52     0.106 C 
HETATM   19  O24 MIQ B 502     -12.674  -2.400   3.684  1.00146.13    -0.273 OA
HETATM   20  C23 MIQ B 502     -13.238  -2.038   6.982  1.00139.15     0.045 C 
ENDBRANCH  10  12
BRANCH   5  21
HETATM   21  N6  MIQ B 502     -20.321  -2.640  10.965  1.00140.95    -0.377 N 
HETATM   22  C7  MIQ B 502     -20.352  -4.041  11.345  1.00142.12     0.149 C 
HETATM   23  C8  MIQ B 502     -21.699  -4.684  11.042  1.00144.10     0.187 C 
HETATM   24  O9  MIQ B 502     -22.778  -3.920  11.492  1.00148.65    -0.388 OA
HETATM   25  C10 MIQ B 502     -22.580  -2.614  11.946  1.00147.44     0.187 C 
HETATM   26  C11 MIQ B 502     -21.442  -1.797  11.345  1.00144.08     0.149 C 
ENDBRANCH   5  21
TORSDOF 2
ENDMDL
MODEL 2
REMARK VINA RESULT:      -7.1      1.732      2.045
REMARK  2 active torsions:
REMARK  status: ('A' for Active; 'I' for Inactive)
REMARK    1  A    between atoms: C5_5  and  N6_21 
REMARK    2  A    between atoms: C18_14  and  N17_19 
ROOT
HETATM    1  O1  MIQ B 502     -16.447  -1.211   6.524  1.00142.91    -0.171 OA
HETATM    2  C2  MIQ B 502     -15.909  -2.058   7.496  1.00141.17     0.195 A 
HETATM    3  C3  MIQ B 502     -16.679  -2.680   8.705  1.00141.71     0.035 A 
HETATM    4  C4  MIQ B 502     -18.082  -2.593   9.173  1.00142.86     0.046 A 
HETATM    5  C5  MIQ B 502     -18.495  -3.290  10.336  1.00139.53     0.031 A 
HETATM    6  C12 MIQ B 502     -17.533  -4.097  11.074  1.00139.38     0.030 A 
HETATM    7  C13 MIQ B 502     -16.187  -4.182  10.625  1.00141.18     0.019 A 
HETATM    8  C14 MIQ B 502     -15.761  -3.449   9.402  1.00138.77     0.033 A 
HETATM    9  C15 MIQ B 502     -14.414  -3.304   8.620  1.00142.10     0.195 A 
HETATM   10  N17 MIQ B 502     -14.670  -2.507   7.596  1.00139.42    -0.288 N 
HETATM   11  O16 MIQ B 502     -13.192  -3.897   8.944  1.00148.93    -0.171 OA
ENDROOT
BRANCH  10  12
HETATM   12  C18 MIQ B 502     -13.635  -2.133   6.651  1.00139.82     0.187 C 
HETATM   13  C19 MIQ B 502     -13.605  -0.602   6.571  1.00140.06     0.247 C 
HETATM   14  O25 MIQ B 502     -13.539   0.026   7.567  1.00143.95    -0.271 OA
HETATM   15  N20 MIQ B 502     -13.651   0.098   5.303  1.00140.02    -0.296 N 
HETATM   16  H13 MIQ B 502     -13.638   1.098   5.265  1.00142.77     0.171 HD
HETATM   17  C21 MIQ B 502     -13.742  -0.690   4.101  1.00142.22     0.224 C 
HETATM   18  C22 MIQ B 502     -14.526  -1.985   4.193  1.00139.52     0.106 C 
HETATM   19  O24 MIQ B 502     -13.227  -0.345   3.095  1.00146.13    -0.273 OA
HETATM   20  C23 MIQ B 502     -13.883  -2.801   5.299  1.00139.15     0.045 C 
ENDBRANCH  10  12
BRANCH   5  21
HETATM   21  N6  MIQ B 502     -19.869  -3.184  10.792  1.00140.95    -0.377 N 
HETATM   22  C7  MIQ B 502     -20.432  -4.280  11.561  1.00142.12     0.149 C 
HETATM   23  C8  MIQ B 502     -21.947  -4.357  11.415  1.00144.10     0.187 C 
HETATM   24  O9  MIQ B 502     -22.573  -3.122  11.590  1.00148.65    -0.388 OA
HETATM   25  C10 MIQ B 502     -21.818  -1.948  11.652  1.00147.44     0.187 C 
HETATM   26  C11 MIQ B 502     -20.507  -1.882  10.875  1.00144.08     0.149 C 
ENDBRANCH   5  21
TORSDOF 2
ENDMDL
MODEL 3
REMARK VINA RESULT:      -7.1      5.097      6.849
REMARK  2 active torsions:
REMARK  status: ('A' for Active; 'I' for Inactive)
REMARK    1  A    between atoms: C5_5  and  N6_21 
REMARK    2  A    between atoms: C18_14  and  N17_19 
ROOT
HETATM    1  O1  MIQ B 502     -12.879  -3.954   6.093  1.00142.91    -0.171 OA
HETATM    2  C2  MIQ B 502     -12.894  -3.455   7.397  1.00141.17     0.195 A 
HETATM    3  C3  MIQ B 502     -12.573  -4.261   8.696  1.00141.71     0.035 A 
HETATM    4  C4  MIQ B 502     -12.185  -5.668   8.953  1.00142.86     0.046 A 
HETATM    5  C5  MIQ B 502     -11.953  -6.118  10.277  1.00139.53     0.031 A 
HETATM    6  C12 MIQ B 502     -12.096  -5.190  11.391  1.00139.38     0.030 A 
HETATM    7  C13 MIQ B 502     -12.467  -3.841  11.145  1.00141.18     0.019 A 
HETATM    8  C14 MIQ B 502     -12.707  -3.374   9.752  1.00138.77     0.033 A 
HETATM    9  C15 MIQ B 502     -13.113  -2.010   9.105  1.00142.10     0.195 A 
HETATM   10  N17 MIQ B 502     -13.169  -2.227   7.801  1.00139.42    -0.288 N 
HETATM   11  O16 MIQ B 502     -13.366  -0.810   9.772  1.00148.93    -0.171 OA
ENDROOT
BRANCH  10  12
HETATM   12  C18 MIQ B 502     -13.536  -1.173   6.873  1.00139.82     0.187 C 
HETATM   13  C19 MIQ B 502     -14.678  -1.700   5.995  1.00140.06     0.247 C 
HETATM   14  O25 MIQ B 502     -15.624  -2.183   6.509  1.00143.95    -0.271 OA
HETATM   15  N20 MIQ B 502     -14.632  -1.616   4.550  1.00140.02    -0.296 N 
HETATM   16  H13 MIQ B 502     -15.381  -1.969   3.988  1.00142.77     0.171 HD
HETATM   17  C21 MIQ B 502     -13.462  -1.032   3.946  1.00142.22     0.224 C 
HETATM   18  C22 MIQ B 502     -12.143  -1.258   4.658  1.00139.52     0.106 C 
HETATM   19  O24 MIQ B 502     -13.531  -0.403   2.947  1.00146.13    -0.273 OA
HETATM   20  C23 MIQ B 502     -12.317  -0.726   6.068  1.00139.15     0.045 C 
ENDBRANCH  10  12
BRANCH   5  21
HETATM   21  N6  MIQ B 502     -11.588  -7.502  10.515  1.00140.95    -0.377 N 
HETATM   22  C7  MIQ B 502     -10.595  -7.794  11.535  1.00142.12     0.149 C 
HETATM   23  C8  MIQ B 502      -9.857  -9.097  11.255  1.00144.10     0.187 C 
HETATM   24  O9  MIQ B 502     -10.717 -10.151  10.941  1.00148.65    -0.388 OA
HETATM   25  C10 MIQ B 502     -12.072  -9.911  10.696  1.00147.44     0.187 C 
HETATM   26  C11 MIQ B 502     -12.477  -8.570  10.092  1.00144.08     0.149 C 
ENDBRANCH   5  21
TORSDOF 2
ENDMDL
MODEL 4
REMARK VINA RESULT:      -7.0      4.410      5.665
REMARK  2 active torsions:
REMARK  status: ('A' for Active; 'I' for Inactive)
REMARK    1  A    between atoms: C5_5  and  N6_21 
REMARK    2  A    between atoms: C18_14  and  N17_19 
ROOT
HETATM    1  O1  MIQ B 502     -12.821  -3.670   6.193  1.00142.91    -0.171 OA
HETATM    2  C2  MIQ B 502     -13.862  -3.395   7.083  1.00141.17     0.195 A 
HETATM    3  C3  MIQ B 502     -14.305  -4.285   8.287  1.00141.71     0.035 A 
HETATM    4  C4  MIQ B 502     -13.822  -5.575   8.833  1.00142.86     0.046 A 
HETATM    5  C5  MIQ B 502     -14.443  -6.150   9.971  1.00139.53     0.031 A 
HETATM    6  C12 MIQ B 502     -15.561  -5.467  10.606  1.00139.38     0.030 A 
HETATM    7  C13 MIQ B 502     -16.024  -4.229  10.083  1.00141.18     0.019 A 
HETATM    8  C14 MIQ B 502     -15.367  -3.630   8.890  1.00138.77     0.033 A 
HETATM    9  C15 MIQ B 502     -15.583  -2.325   8.055  1.00142.10     0.195 A 
HETATM   10  N17 MIQ B 502     -14.670  -2.349   7.098  1.00139.42    -0.288 N 
HETATM   11  O16 MIQ B 502     -16.547  -1.341   8.277  1.00148.93    -0.171 OA
ENDROOT
BRANCH  10  12
HETATM   12  C18 MIQ B 502     -14.580  -1.289   6.111  1.00139.82     0.187 C 
HETATM   13  C19 MIQ B 502     -14.606  -1.941   4.723  1.00140.06     0.247 C 
HETATM   14  O25 MIQ B 502     -15.460  -2.712   4.465  1.00143.95    -0.271 OA
HETATM   15  N20 MIQ B 502     -13.613  -1.630   3.715  1.00140.02    -0.296 N 
HETATM   16  H13 MIQ B 502     -13.638  -2.067   2.814  1.00142.77     0.171 HD
HETATM   17  C21 MIQ B 502     -12.575  -0.693   4.057  1.00142.22     0.224 C 
HETATM   18  C22 MIQ B 502     -12.105  -0.694   5.499  1.00139.52     0.106 C 
HETATM   19  O24 MIQ B 502     -12.117   0.043   3.253  1.00146.13    -0.273 OA
HETATM   20  C23 MIQ B 502     -13.333  -0.440   6.353  1.00139.15     0.045 C 
ENDBRANCH  10  12
BRANCH   5  21
HETATM   21  N6  MIQ B 502     -13.969  -7.421  10.486  1.00140.95    -0.377 N 
HETATM   22  C7  MIQ B 502     -14.910  -8.284  11.179  1.00142.12     0.149 C 
HETATM   23  C8  MIQ B 502     -14.214  -9.198  12.180  1.00144.10     0.187 C 
HETATM   24  O9  MIQ B 502     -13.098  -9.842  11.643  1.00148.65    -0.388 OA
HETATM   25  C10 MIQ B 502     -12.594  -9.463  10.395  1.00147.44     0.187 C 
HETATM   26  C11 MIQ B 502     -12.753  -8.012   9.954  1.00144.08     0.149 C 
ENDBRANCH   5  21
TORSDOF 2
ENDMDL
MODEL 5
REMARK VINA RESULT:      -7.0     22.046     22.757
REMARK  2 active torsions:
REMARK  status: ('A' for Active; 'I' for Inactive)
REMARK    1  A    between atoms: C5_5  and  N6_21 
REMARK    2  A    between atoms: C18_14  and  N17_19 
ROOT
HETATM    1  O1  MIQ B 502     -11.553 -17.112  -8.250  1.00142.91    -0.171 OA
HETATM    2  C2  MIQ B 502     -10.507 -16.284  -7.835  1.00141.17     0.195 A 
HETATM    3  C3  MIQ B 502      -9.597 -16.504  -6.585  1.00141.71     0.035 A 
HETATM    4  C4  MIQ B 502      -9.540 -17.550  -5.537  1.00142.86     0.046 A 
HETATM    5  C5  MIQ B 502      -8.574 -17.476  -4.502  1.00139.53     0.031 A 
HETATM    6  C12 MIQ B 502      -7.633 -16.366  -4.470  1.00139.38     0.030 A 
HETATM    7  C13 MIQ B 502      -7.686 -15.363  -5.476  1.00141.18     0.019 A 
HETATM    8  C14 MIQ B 502      -8.701 -15.447  -6.561  1.00138.77     0.033 A 
HETATM    9  C15 MIQ B 502      -9.057 -14.567  -7.803  1.00142.10     0.195 A 
HETATM   10  N17 MIQ B 502     -10.073 -15.170  -8.399  1.00139.42    -0.288 N 
HETATM   11  O16 MIQ B 502      -8.429 -13.384  -8.197  1.00148.93    -0.171 OA
ENDROOT
BRANCH  10  12
HETATM   12  C18 MIQ B 502     -10.685 -14.620  -9.594  1.00139.82     0.187 C 
HETATM   13  C19 MIQ B 502      -9.565 -14.324 -10.599  1.00140.06     0.247 C 
HETATM   14  O25 MIQ B 502      -8.782 -15.169 -10.854  1.00143.95    -0.271 OA
HETATM   15  N20 MIQ B 502      -9.444 -13.036 -11.250  1.00140.02    -0.296 N 
HETATM   16  H13 MIQ B 502      -8.704 -12.853 -11.900  1.00142.77     0.171 HD
HETATM   17  C21 MIQ B 502     -10.406 -12.017 -10.915  1.00142.22     0.224 C 
HETATM   18  C22 MIQ B 502     -10.926 -12.015  -9.490  1.00139.52     0.106 C 
HETATM   19  O24 MIQ B 502     -10.774 -11.228 -11.713  1.00146.13    -0.273 OA
HETATM   20  C23 MIQ B 502     -11.520 -13.390  -9.246  1.00139.15     0.045 C 
ENDBRANCH  10  12
BRANCH   5  21
HETATM   21  N6  MIQ B 502      -8.539 -18.500  -3.474  1.00140.95    -0.377 N 
HETATM   22  C7  MIQ B 502      -7.469 -18.462  -2.492  1.00142.12     0.149 C 
HETATM   23  C8  MIQ B 502      -7.167 -19.844  -1.927  1.00144.10     0.187 C 
HETATM   24  O9  MIQ B 502      -8.315 -20.533  -1.532  1.00148.65    -0.388 OA
HETATM   25  C10 MIQ B 502      -9.582 -20.047  -1.866  1.00147.44     0.187 C 
HETATM   26  C11 MIQ B 502      -9.741 -19.252  -3.157  1.00144.08     0.149 C 
ENDBRANCH   5  21
TORSDOF 2
ENDMDL
MODEL 6
REMARK VINA RESULT:      -6.9      5.008      8.109
REMARK  2 active torsions:
REMARK  status: ('A' for Active; 'I' for Inactive)
REMARK    1  A    between atoms: C5_5  and  N6_21 
REMARK    2  A    between atoms: C18_14  and  N17_19 
ROOT
HETATM    1  O1  MIQ B 502     -11.757  -5.780   8.869  1.00142.91    -0.171 OA
HETATM    2  C2  MIQ B 502     -13.005  -5.243   9.192  1.00141.17     0.195 A 
HETATM    3  C3  MIQ B 502     -13.765  -4.134   8.396  1.00141.71     0.035 A 
HETATM    4  C4  MIQ B 502     -13.454  -3.367   7.167  1.00142.86     0.046 A 
HETATM    5  C5  MIQ B 502     -14.368  -2.401   6.674  1.00139.53     0.031 A 
HETATM    6  C12 MIQ B 502     -15.618  -2.162   7.381  1.00139.38     0.030 A 
HETATM    7  C13 MIQ B 502     -15.917  -2.898   8.559  1.00141.18     0.019 A 
HETATM    8  C14 MIQ B 502     -14.955  -3.913   9.070  1.00138.77     0.033 A 
HETATM    9  C15 MIQ B 502     -14.934  -4.890  10.291  1.00142.10     0.195 A 
HETATM   10  N17 MIQ B 502     -13.791  -5.552  10.208  1.00139.42    -0.288 N 
HETATM   11  O16 MIQ B 502     -15.921  -5.030  11.267  1.00148.93    -0.171 OA
ENDROOT
BRANCH  10  12
HETATM   12  C18 MIQ B 502     -13.419  -6.547  11.197  1.00139.82     0.187 C 
HETATM   13  C19 MIQ B 502     -12.008  -6.209  11.693  1.00140.06     0.247 C 
HETATM   14  O25 MIQ B 502     -11.774  -5.113  12.061  1.00143.95    -0.271 OA
HETATM   15  N20 MIQ B 502     -10.953  -7.201  11.727  1.00140.02    -0.296 N 
HETATM   16  H13 MIQ B 502     -10.034  -6.965  12.047  1.00142.77     0.171 HD
HETATM   17  C21 MIQ B 502     -11.260  -8.529  11.262  1.00142.22     0.224 C 
HETATM   18  C22 MIQ B 502     -12.262  -8.639  10.129  1.00139.52     0.106 C 
HETATM   19  O24 MIQ B 502     -10.758  -9.484  11.745  1.00146.13    -0.273 OA
HETATM   20  C23 MIQ B 502     -13.528  -7.951  10.605  1.00139.15     0.045 C 
ENDBRANCH  10  12
BRANCH   5  21
HETATM   21  N6  MIQ B 502     -14.044  -1.646   5.477  1.00140.95    -0.377 N 
HETATM   22  C7  MIQ B 502     -14.736  -0.392   5.238  1.00142.12     0.149 C 
HETATM   23  C8  MIQ B 502     -14.808  -0.056   3.754  1.00144.10     0.187 C 
HETATM   24  O9  MIQ B 502     -13.579  -0.192   3.106  1.00148.65    -0.388 OA
HETATM   25  C10 MIQ B 502     -12.500  -0.800   3.754  1.00147.44     0.187 C 
HETATM   26  C11 MIQ B 502     -12.788  -1.885   4.788  1.00144.08     0.149 C 
ENDBRANCH   5  21
TORSDOF 2
ENDMDL
MODEL 7
REMARK VINA RESULT:      -6.9      4.707      6.864
REMARK  2 active torsions:
REMARK  status: ('A' for Active; 'I' for Inactive)
REMARK    1  A    between atoms: C5_5  and  N6_21 
REMARK    2  A    between atoms: C18_14  and  N17_19 
ROOT
HETATM    1  O1  MIQ B 502     -14.506  -1.549   9.438  1.00142.91    -0.171 OA
HETATM    2  C2  MIQ B 502     -14.037  -2.358   8.400  1.00141.17     0.195 A 
HETATM    3  C3  MIQ B 502     -13.264  -3.706   8.557  1.00141.71     0.035 A 
HETATM    4  C4  MIQ B 502     -12.820  -4.494   9.731  1.00142.86     0.046 A 
HETATM    5  C5  MIQ B 502     -12.120  -5.714   9.551  1.00139.53     0.031 A 
HETATM    6  C12 MIQ B 502     -11.837  -6.193   8.206  1.00139.38     0.030 A 
HETATM    7  C13 MIQ B 502     -12.264  -5.438   7.080  1.00141.18     0.019 A 
HETATM    8  C14 MIQ B 502     -13.000  -4.159   7.275  1.00138.77     0.033 A 
HETATM    9  C15 MIQ B 502     -13.614  -3.087   6.317  1.00142.10     0.195 A 
HETATM   10  N17 MIQ B 502     -14.149  -2.163   7.097  1.00139.42    -0.288 N 
HETATM   11  O16 MIQ B 502     -13.595  -3.106   4.921  1.00148.93    -0.171 OA
ENDROOT
BRANCH  10  12
HETATM   12  C18 MIQ B 502     -14.803  -0.992   6.545  1.00139.82     0.187 C 
HETATM   13  C19 MIQ B 502     -15.942  -1.475   5.638  1.00140.06     0.247 C 
HETATM   14  O25 MIQ B 502     -16.719  -2.257   6.058  1.00143.95    -0.271 OA
HETATM   15  N20 MIQ B 502     -16.094  -0.994   4.280  1.00140.02    -0.296 N 
HETATM   16  H13 MIQ B 502     -16.838  -1.323   3.697  1.00142.77     0.171 HD
HETATM   17  C21 MIQ B 502     -15.126  -0.048   3.788  1.00142.22     0.224 C 
HETATM   18  C22 MIQ B 502     -13.708  -0.193   4.304  1.00139.52     0.106 C 
HETATM   19  O24 MIQ B 502     -15.426   0.801   3.023  1.00146.13    -0.273 OA
HETATM   20  C23 MIQ B 502     -13.789  -0.110   5.818  1.00139.15     0.045 C 
ENDBRANCH  10  12
BRANCH   5  21
HETATM   21  N6  MIQ B 502     -11.678  -6.469  10.709  1.00140.95    -0.377 N 
HETATM   22  C7  MIQ B 502     -11.285  -5.742  11.904  1.00142.12     0.149 C 
HETATM   23  C8  MIQ B 502     -10.285  -6.525  12.744  1.00144.10     0.187 C 
HETATM   24  O9  MIQ B 502     -10.670  -7.851  12.952  1.00148.65    -0.388 OA
HETATM   25  C10 MIQ B 502     -11.743  -8.395  12.243  1.00147.44     0.187 C 
HETATM   26  C11 MIQ B 502     -12.032  -7.872  10.840  1.00144.08     0.149 C 
ENDBRANCH   5  21
TORSDOF 2
ENDMDL
MODEL 8
REMARK VINA RESULT:      -6.7     22.161     23.834
REMARK  2 active torsions:
REMARK  status: ('A' for Active; 'I' for Inactive)
REMARK    1  A    between atoms: C5_5  and  N6_21 
REMARK    2  A    between atoms: C18_14  and  N17_19 
ROOT
HETATM    1  O1  MIQ B 502      -9.626 -19.544  -6.783  1.00142.91    -0.171 OA
HETATM    2  C2  MIQ B 502      -8.932 -18.555  -6.082  1.00141.17     0.195 A 
HETATM    3  C3  MIQ B 502      -8.674 -17.092  -6.564  1.00141.71     0.035 A 
HETATM    4  C4  MIQ B 502      -9.041 -16.343  -7.790  1.00142.86     0.046 A 
HETATM    5  C5  MIQ B 502      -8.655 -14.988  -7.944  1.00139.53     0.031 A 
HETATM    6  C12 MIQ B 502      -7.894 -14.329  -6.892  1.00139.38     0.030 A 
HETATM    7  C13 MIQ B 502      -7.543 -15.046  -5.717  1.00141.18     0.019 A 
HETATM    8  C14 MIQ B 502      -7.953 -16.468  -5.559  1.00138.77     0.033 A 
HETATM    9  C15 MIQ B 502      -7.763 -17.550  -4.446  1.00142.10     0.195 A 
HETATM   10  N17 MIQ B 502      -8.364 -18.641  -4.891  1.00139.42    -0.288 N 
HETATM   11  O16 MIQ B 502      -7.092 -17.392  -3.233  1.00148.93    -0.171 OA
ENDROOT
BRANCH  10  12
HETATM   12  C18 MIQ B 502      -8.377 -19.868  -4.117  1.00139.82     0.187 C 
HETATM   13  C19 MIQ B 502      -8.926 -19.537  -2.724  1.00140.06     0.247 C 
HETATM   14  O25 MIQ B 502      -9.943 -18.947  -2.631  1.00143.95    -0.271 OA
HETATM   15  N20 MIQ B 502      -8.232 -19.933  -1.516  1.00140.02    -0.296 N 
HETATM   16  H13 MIQ B 502      -8.597 -19.705  -0.612  1.00142.77     0.171 HD
HETATM   17  C21 MIQ B 502      -6.986 -20.643  -1.655  1.00142.22     0.224 C 
HETATM   18  C22 MIQ B 502      -6.124 -20.277  -2.847  1.00139.52     0.106 C 
HETATM   19  O24 MIQ B 502      -6.658 -21.472  -0.880  1.00146.13    -0.273 OA
HETATM   20  C23 MIQ B 502      -6.981 -20.489  -4.081  1.00139.15     0.045 C 
ENDBRANCH  10  12
BRANCH   5  21
HETATM   21  N6  MIQ B 502      -9.008 -14.271  -9.155  1.00140.95    -0.377 N 
HETATM   22  C7  MIQ B 502      -9.168 -12.828  -9.088  1.00142.12     0.149 C 
HETATM   23  C8  MIQ B 502     -10.117 -12.310 -10.160  1.00144.10     0.187 C 
HETATM   24  O9  MIQ B 502      -9.835 -12.820 -11.429  1.00148.65    -0.388 OA
HETATM   25  C10 MIQ B 502      -8.921 -13.866 -11.584  1.00147.44     0.187 C 
HETATM   26  C11 MIQ B 502      -8.774 -14.880 -10.453  1.00144.08     0.149 C 
ENDBRANCH   5  21
TORSDOF 2
ENDMDL
MODEL 9
REMARK VINA RESULT:      -6.6      5.689      8.321
REMARK  2 active torsions:
REMARK  status: ('A' for Active; 'I' for Inactive)
REMARK    1  A    between atoms: C5_5  and  N6_21 
REMARK    2  A    between atoms: C18_14  and  N17_19 
ROOT
HETATM    1  O1  MIQ B 502     -14.464  -4.035  11.756  1.00142.91    -0.171 OA
HETATM    2  C2  MIQ B 502     -13.673  -4.657  10.787  1.00141.17     0.195 A 
HETATM    3  C3  MIQ B 502     -13.606  -4.282   9.272  1.00141.71     0.035 A 
HETATM    4  C4  MIQ B 502     -14.280  -3.252   8.446  1.00142.86     0.046 A 
HETATM    5  C5  MIQ B 502     -14.005  -3.153   7.059  1.00139.53     0.031 A 
HETATM    6  C12 MIQ B 502     -13.054  -4.068   6.444  1.00139.38     0.030 A 
HETATM    7  C13 MIQ B 502     -12.406  -5.054   7.236  1.00141.18     0.019 A 
HETATM    8  C14 MIQ B 502     -12.697  -5.152   8.692  1.00138.77     0.033 A 
HETATM    9  C15 MIQ B 502     -12.198  -6.072   9.853  1.00142.10     0.195 A 
HETATM   10  N17 MIQ B 502     -12.832  -5.665  10.941  1.00139.42    -0.288 N 
HETATM   11  O16 MIQ B 502     -11.272  -7.113   9.756  1.00148.93    -0.171 OA
ENDROOT
BRANCH  10  12
HETATM   12  C18 MIQ B 502     -12.625  -6.309  12.224  1.00139.82     0.187 C 
HETATM   13  C19 MIQ B 502     -11.125  -6.255  12.538  1.00140.06     0.247 C 
HETATM   14  O25 MIQ B 502     -10.558  -5.222  12.467  1.00143.95    -0.271 OA
HETATM   15  N20 MIQ B 502     -10.382  -7.437  12.926  1.00140.02    -0.296 N 
HETATM   16  H13 MIQ B 502      -9.402  -7.389  13.122  1.00142.77     0.171 HD
HETATM   17  C21 MIQ B 502     -11.094  -8.687  12.995  1.00142.22     0.224 C 
HETATM   18  C22 MIQ B 502     -12.220  -8.886  12.000  1.00139.52     0.106 C 
HETATM   19  O24 MIQ B 502     -10.815  -9.513  13.793  1.00146.13    -0.273 OA
HETATM   20  C23 MIQ B 502     -13.183  -7.731  12.202  1.00139.15     0.045 C 
ENDBRANCH  10  12
BRANCH   5  21
HETATM   21  N6  MIQ B 502     -14.684  -2.150   6.259  1.00140.95    -0.377 N 
HETATM   22  C7  MIQ B 502     -14.019  -0.879   6.028  1.00142.12     0.149 C 
HETATM   23  C8  MIQ B 502     -15.014   0.246   5.775  1.00144.10     0.187 C 
HETATM   24  O9  MIQ B 502     -15.993  -0.095   4.839  1.00148.65    -0.388 OA
HETATM   25  C10 MIQ B 502     -16.125  -1.415   4.402  1.00147.44     0.187 C 
HETATM   26  C11 MIQ B 502     -15.756  -2.542   5.361  1.00144.08     0.149 C 
ENDBRANCH   5  21
TORSDOF 2
ENDMDL
