MODEL 1
REMARK VINA RESULT:      -7.3      0.000      0.000
REMARK  2 active torsions:
REMARK  status: ('A' for Active; 'I' for Inactive)
REMARK    1  A    between atoms: C5_5  and  N6_21 
REMARK    2  A    between atoms: C18_14  and  N17_19 
ROOT
HETATM    1  O1  MIQ B 502       9.867 -23.737  15.458  1.00142.91    -0.171 OA
HETATM    2  C2  MIQ B 502       9.715 -22.692  16.372  1.00141.17     0.195 A 
HETATM    3  C3  MIQ B 502      10.867 -21.893  17.061  1.00141.71     0.035 A 
HETATM    4  C4  MIQ B 502      12.345 -21.966  16.983  1.00142.86     0.046 A 
HETATM    5  C5  MIQ B 502      13.148 -21.082  17.748  1.00139.53     0.031 A 
HETATM    6  C12 MIQ B 502      12.515 -20.098  18.614  1.00139.38     0.030 A 
HETATM    7  C13 MIQ B 502      11.097 -20.027  18.688  1.00141.18     0.019 A 
HETATM    8  C14 MIQ B 502      10.260 -20.956  17.881  1.00138.77     0.033 A 
HETATM    9  C15 MIQ B 502       8.722 -21.173  17.700  1.00142.10     0.195 A 
HETATM   10  N17 MIQ B 502       8.593 -22.165  16.833  1.00139.42    -0.288 N 
HETATM   11  O16 MIQ B 502       7.698 -20.464  18.329  1.00148.93    -0.171 OA
ENDROOT
BRANCH  10  12
HETATM   12  C18 MIQ B 502       7.288 -22.655  16.432  1.00139.82     0.187 C 
HETATM   13  C19 MIQ B 502       7.302 -24.183  16.563  1.00140.06     0.247 C 
HETATM   14  O25 MIQ B 502       7.665 -24.672  17.573  1.00143.95    -0.271 OA
HETATM   15  N20 MIQ B 502       6.876 -25.046  15.480  1.00140.02    -0.296 N 
HETATM   16  H13 MIQ B 502       6.897 -26.042  15.575  1.00142.77     0.171 HD
HETATM   17  C21 MIQ B 502       6.448 -24.426  14.252  1.00142.22     0.224 C 
HETATM   18  C22 MIQ B 502       7.142 -23.135  13.862  1.00139.52     0.106 C 
HETATM   19  O24 MIQ B 502       5.594 -24.900  13.587  1.00146.13    -0.273 OA
HETATM   20  C23 MIQ B 502       6.949 -22.175  15.022  1.00139.15     0.045 C 
ENDBRANCH  10  12
BRANCH   5  21
HETATM   21  N6  MIQ B 502      14.594 -21.175  17.673  1.00140.95    -0.377 N 
HETATM   22  C7  MIQ B 502      15.360 -21.103  18.906  1.00142.12     0.149 C 
HETATM   23  C8  MIQ B 502      16.768 -20.574  18.671  1.00144.10     0.187 C 
HETATM   24  O9  MIQ B 502      17.414 -21.201  17.603  1.00148.65    -0.388 OA
HETATM   25  C10 MIQ B 502      16.704 -22.041  16.742  1.00147.44     0.187 C 
HETATM   26  C11 MIQ B 502      15.225 -21.758  16.502  1.00144.08     0.149 C 
ENDBRANCH   5  21
TORSDOF 2
ENDMDL
MODEL 2
REMARK VINA RESULT:      -7.0      1.827      7.857
REMARK  2 active torsions:
REMARK  status: ('A' for Active; 'I' for Inactive)
REMARK    1  A    between atoms: C5_5  and  N6_21 
REMARK    2  A    between atoms: C18_14  and  N17_19 
ROOT
HETATM    1  O1  MIQ B 502      12.584 -22.239  16.192  1.00142.91    -0.171 OA
HETATM    2  C2  MIQ B 502      11.669 -21.694  17.095  1.00141.17     0.195 A 
HETATM    3  C3  MIQ B 502      10.125 -21.930  17.100  1.00141.71     0.035 A 
HETATM    4  C4  MIQ B 502       9.214 -22.728  16.245  1.00142.86     0.046 A 
HETATM    5  C5  MIQ B 502       7.820 -22.747  16.505  1.00139.53     0.031 A 
HETATM    6  C12 MIQ B 502       7.283 -21.979  17.620  1.00139.38     0.030 A 
HETATM    7  C13 MIQ B 502       8.157 -21.216  18.440  1.00141.18     0.019 A 
HETATM    8  C14 MIQ B 502       9.619 -21.201  18.163  1.00138.77     0.033 A 
HETATM    9  C15 MIQ B 502      10.856 -20.508  18.823  1.00142.10     0.195 A 
HETATM   10  N17 MIQ B 502      11.907 -20.886  18.115  1.00139.42    -0.288 N 
HETATM   11  O16 MIQ B 502      10.846 -19.662  19.933  1.00148.93    -0.171 OA
ENDROOT
BRANCH  10  12
HETATM   12  C18 MIQ B 502      13.243 -20.418  18.433  1.00139.82     0.187 C 
HETATM   13  C19 MIQ B 502      13.833 -19.789  17.165  1.00140.06     0.247 C 
HETATM   14  O25 MIQ B 502      13.209 -18.976  16.581  1.00143.95    -0.271 OA
HETATM   15  N20 MIQ B 502      15.140 -20.162  16.665  1.00140.02    -0.296 N 
HETATM   16  H13 MIQ B 502      15.511 -19.749  15.832  1.00142.77     0.171 HD
HETATM   17  C21 MIQ B 502      15.879 -21.165  17.389  1.00142.22     0.224 C 
HETATM   18  C22 MIQ B 502      15.068 -22.258  18.057  1.00139.52     0.106 C 
HETATM   19  O24 MIQ B 502      17.058 -21.131  17.461  1.00146.13    -0.273 OA
HETATM   20  C23 MIQ B 502      14.090 -21.563  18.986  1.00139.15     0.045 C 
ENDBRANCH  10  12
BRANCH   5  21
HETATM   21  N6  MIQ B 502       6.938 -23.520  15.651  1.00140.95    -0.377 N 
HETATM   22  C7  MIQ B 502       5.508 -23.275  15.727  1.00142.12     0.149 C 
HETATM   23  C8  MIQ B 502       4.699 -24.501  15.323  1.00144.10     0.187 C 
HETATM   24  O9  MIQ B 502       5.143 -25.078  14.132  1.00148.65    -0.388 OA
HETATM   25  C10 MIQ B 502       6.347 -24.668  13.553  1.00147.44     0.187 C 
HETATM   26  C11 MIQ B 502       7.465 -24.174  14.466  1.00144.08     0.149 C 
ENDBRANCH   5  21
TORSDOF 2
ENDMDL
MODEL 3
REMARK VINA RESULT:      -6.9      2.192      3.321
REMARK  2 active torsions:
REMARK  status: ('A' for Active; 'I' for Inactive)
REMARK    1  A    between atoms: C5_5  and  N6_21 
REMARK    2  A    between atoms: C18_14  and  N17_19 
ROOT
HETATM    1  O1  MIQ B 502       8.096 -25.330  15.022  1.00142.91    -0.171 OA
HETATM    2  C2  MIQ B 502       7.521 -24.390  15.881  1.00141.17     0.195 A 
HETATM    3  C3  MIQ B 502       8.256 -23.191  16.561  1.00141.71     0.035 A 
HETATM    4  C4  MIQ B 502       9.654 -22.700  16.524  1.00142.86     0.046 A 
HETATM    5  C5  MIQ B 502      10.030 -21.552  17.267  1.00139.53     0.031 A 
HETATM    6  C12 MIQ B 502       9.037 -20.853  18.069  1.00139.38     0.030 A 
HETATM    7  C13 MIQ B 502       7.696 -21.323  18.103  1.00141.18     0.019 A 
HETATM    8  C14 MIQ B 502       7.306 -22.527  17.320  1.00138.77     0.033 A 
HETATM    9  C15 MIQ B 502       5.974 -23.318  17.109  1.00142.10     0.195 A 
HETATM   10  N17 MIQ B 502       6.266 -24.313  16.288  1.00139.42    -0.288 N 
HETATM   11  O16 MIQ B 502       4.732 -23.029  17.678  1.00148.93    -0.171 OA
ENDROOT
BRANCH  10  12
HETATM   12  C18 MIQ B 502       5.261 -25.275  15.878  1.00139.82     0.187 C 
HETATM   13  C19 MIQ B 502       5.826 -26.678  16.130  1.00140.06     0.247 C 
HETATM   14  O25 MIQ B 502       6.276 -26.936  17.189  1.00143.95    -0.271 OA
HETATM   15  N20 MIQ B 502       5.819 -27.701  15.104  1.00140.02    -0.296 N 
HETATM   16  H13 MIQ B 502       6.197 -28.611  15.279  1.00142.77     0.171 HD
HETATM   17  C21 MIQ B 502       5.274 -27.359  13.815  1.00142.22     0.224 C 
HETATM   18  C22 MIQ B 502       5.469 -25.929  13.350  1.00139.52     0.106 C 
HETATM   19  O24 MIQ B 502       4.698 -28.154  13.157  1.00146.13    -0.273 OA
HETATM   20  C23 MIQ B 502       4.862 -25.041  14.421  1.00139.15     0.045 C 
ENDBRANCH  10  12
BRANCH   5  21
HETATM   21  N6  MIQ B 502      11.406 -21.091  17.233  1.00140.95    -0.377 N 
HETATM   22  C7  MIQ B 502      11.685 -19.712  17.596  1.00142.12     0.149 C 
HETATM   23  C8  MIQ B 502      12.954 -19.195  16.930  1.00144.10     0.187 C 
HETATM   24  O9  MIQ B 502      14.031 -20.075  17.056  1.00148.65    -0.388 OA
HETATM   25  C10 MIQ B 502      13.834 -21.370  17.542  1.00147.44     0.187 C 
HETATM   26  C11 MIQ B 502      12.495 -22.051  17.280  1.00144.08     0.149 C 
ENDBRANCH   5  21
TORSDOF 2
ENDMDL
MODEL 4
REMARK VINA RESULT:      -6.7     23.733     25.732
REMARK  2 active torsions:
REMARK  status: ('A' for Active; 'I' for Inactive)
REMARK    1  A    between atoms: C5_5  and  N6_21 
REMARK    2  A    between atoms: C18_14  and  N17_19 
ROOT
HETATM    1  O1  MIQ B 502      14.809 -11.672  -5.556  1.00142.91    -0.171 OA
HETATM    2  C2  MIQ B 502      13.769 -12.187  -6.334  1.00141.17     0.195 A 
HETATM    3  C3  MIQ B 502      12.415 -12.758  -5.802  1.00141.71     0.035 A 
HETATM    4  C4  MIQ B 502      11.842 -12.922  -4.445  1.00142.86     0.046 A 
HETATM    5  C5  MIQ B 502      10.552 -13.486  -4.276  1.00139.53     0.031 A 
HETATM    6  C12 MIQ B 502       9.788 -13.906  -5.443  1.00139.38     0.030 A 
HETATM    7  C13 MIQ B 502      10.338 -13.747  -6.743  1.00141.18     0.019 A 
HETATM    8  C14 MIQ B 502      11.691 -13.152  -6.915  1.00138.77     0.033 A 
HETATM    9  C15 MIQ B 502      12.600 -12.824  -8.144  1.00142.10     0.195 A 
HETATM   10  N17 MIQ B 502      13.707 -12.295  -7.650  1.00139.42    -0.288 N 
HETATM   11  O16 MIQ B 502      12.300 -13.049  -9.489  1.00148.93    -0.171 OA
ENDROOT
BRANCH  10  12
HETATM   12  C18 MIQ B 502      14.798 -11.879  -8.511  1.00139.82     0.187 C 
HETATM   13  C19 MIQ B 502      16.079 -12.550  -8.000  1.00140.06     0.247 C 
HETATM   14  O25 MIQ B 502      16.085 -13.714  -7.813  1.00143.95    -0.271 OA
HETATM   15  N20 MIQ B 502      17.287 -11.792  -7.744  1.00140.02    -0.296 N 
HETATM   16  H13 MIQ B 502      18.115 -12.241  -7.404  1.00142.77     0.171 HD
HETATM   17  C21 MIQ B 502      17.252 -10.370  -7.968  1.00142.22     0.224 C 
HETATM   18  C22 MIQ B 502      15.937  -9.669  -7.690  1.00139.52     0.106 C 
HETATM   19  O24 MIQ B 502      18.202  -9.783  -8.355  1.00146.13    -0.273 OA
HETATM   20  C23 MIQ B 502      14.892 -10.355  -8.551  1.00139.15     0.045 C 
ENDBRANCH  10  12
BRANCH   5  21
HETATM   21  N6  MIQ B 502      10.008 -13.655  -2.941  1.00140.95    -0.377 N 
HETATM   22  C7  MIQ B 502       9.557 -14.976  -2.537  1.00142.12     0.149 C 
HETATM   23  C8  MIQ B 502       8.477 -14.904  -1.464  1.00144.10     0.187 C 
HETATM   24  O9  MIQ B 502       8.807 -14.040  -0.418  1.00148.65    -0.388 OA
HETATM   25  C10 MIQ B 502       9.910 -13.189  -0.524  1.00147.44     0.187 C 
HETATM   26  C11 MIQ B 502      10.310 -12.682  -1.906  1.00144.08     0.149 C 
ENDBRANCH   5  21
TORSDOF 2
ENDMDL
MODEL 5
REMARK VINA RESULT:      -6.6      3.467      5.608
REMARK  2 active torsions:
REMARK  status: ('A' for Active; 'I' for Inactive)
REMARK    1  A    between atoms: C5_5  and  N6_21 
REMARK    2  A    between atoms: C18_14  and  N17_19 
ROOT
HETATM    1  O1  MIQ B 502       4.546 -22.962  18.032  1.00142.91    -0.171 OA
HETATM    2  C2  MIQ B 502       5.113 -23.468  16.860  1.00141.17     0.195 A 
HETATM    3  C3  MIQ B 502       6.597 -23.298  16.405  1.00141.71     0.035 A 
HETATM    4  C4  MIQ B 502       7.774 -22.620  16.999  1.00142.86     0.046 A 
HETATM    5  C5  MIQ B 502       9.025 -22.640  16.333  1.00139.53     0.031 A 
HETATM    6  C12 MIQ B 502       9.153 -23.331  15.058  1.00139.38     0.030 A 
HETATM    7  C13 MIQ B 502       8.026 -23.982  14.488  1.00141.18     0.019 A 
HETATM    8  C14 MIQ B 502       6.715 -23.960  15.194  1.00138.77     0.033 A 
HETATM    9  C15 MIQ B 502       5.296 -24.545  14.895  1.00142.10     0.195 A 
HETATM   10  N17 MIQ B 502       4.532 -24.185  15.913  1.00139.42    -0.288 N 
HETATM   11  O16 MIQ B 502       4.918 -25.292  13.778  1.00148.93    -0.171 OA
ENDROOT
BRANCH  10  12
HETATM   12  C18 MIQ B 502       3.127 -24.544  15.969  1.00139.82     0.187 C 
HETATM   13  C19 MIQ B 502       2.326 -23.261  16.219  1.00140.06     0.247 C 
HETATM   14  O25 MIQ B 502       2.513 -22.322  15.530  1.00143.95    -0.271 OA
HETATM   15  N20 MIQ B 502       1.339 -23.170  17.275  1.00140.02    -0.296 N 
HETATM   16  H13 MIQ B 502       0.827 -22.324  17.432  1.00142.77     0.171 HD
HETATM   17  C21 MIQ B 502       1.135 -24.327  18.109  1.00142.22     0.224 C 
HETATM   18  C22 MIQ B 502       2.351 -25.190  18.385  1.00139.52     0.106 C 
HETATM   19  O24 MIQ B 502       0.071 -24.590  18.551  1.00146.13    -0.273 OA
HETATM   20  C23 MIQ B 502       2.894 -25.615  17.033  1.00139.15     0.045 C 
ENDBRANCH  10  12
BRANCH   5  21
HETATM   21  N6  MIQ B 502      10.165 -21.959  16.919  1.00140.95    -0.377 N 
HETATM   22  C7  MIQ B 502      11.430 -21.981  16.205  1.00142.12     0.149 C 
HETATM   23  C8  MIQ B 502      12.618 -21.835  17.147  1.00144.10     0.187 C 
HETATM   24  O9  MIQ B 502      12.464 -20.786  18.056  1.00148.65    -0.388 OA
HETATM   25  C10 MIQ B 502      11.233 -20.138  18.187  1.00147.44     0.187 C 
HETATM   26  C11 MIQ B 502       9.958 -20.933  17.926  1.00144.08     0.149 C 
ENDBRANCH   5  21
TORSDOF 2
ENDMDL
MODEL 6
REMARK VINA RESULT:      -6.5      2.210      8.396
REMARK  2 active torsions:
REMARK  status: ('A' for Active; 'I' for Inactive)
REMARK    1  A    between atoms: C5_5  and  N6_21 
REMARK    2  A    between atoms: C18_14  and  N17_19 
ROOT
HETATM    1  O1  MIQ B 502       9.228 -21.228  19.433  1.00142.91    -0.171 OA
HETATM    2  C2  MIQ B 502       9.639 -21.664  18.171  1.00141.17     0.195 A 
HETATM    3  C3  MIQ B 502       8.745 -22.372  17.104  1.00141.71     0.035 A 
HETATM    4  C4  MIQ B 502       7.318 -22.772  17.073  1.00142.86     0.046 A 
HETATM    5  C5  MIQ B 502       6.778 -23.415  15.930  1.00139.53     0.031 A 
HETATM    6  C12 MIQ B 502       7.632 -23.682  14.781  1.00139.38     0.030 A 
HETATM    7  C13 MIQ B 502       8.999 -23.298  14.810  1.00141.18     0.019 A 
HETATM    8  C14 MIQ B 502       9.560 -22.621  16.012  1.00138.77     0.033 A 
HETATM    9  C15 MIQ B 502      10.967 -22.064  16.403  1.00142.10     0.195 A 
HETATM   10  N17 MIQ B 502      10.838 -21.568  17.623  1.00139.42    -0.288 N 
HETATM   11  O16 MIQ B 502      12.123 -22.090  15.621  1.00148.93    -0.171 OA
ENDROOT
BRANCH  10  12
HETATM   12  C18 MIQ B 502      11.961 -20.973  18.322  1.00139.82     0.187 C 
HETATM   13  C19 MIQ B 502      12.606 -19.947  17.382  1.00140.06     0.247 C 
HETATM   14  O25 MIQ B 502      11.927 -19.132  16.866  1.00143.95    -0.271 OA
HETATM   15  N20 MIQ B 502      14.030 -19.946  17.114  1.00140.02    -0.296 N 
HETATM   16  H13 MIQ B 502      14.438 -19.275  16.494  1.00142.77     0.171 HD
HETATM   17  C21 MIQ B 502      14.836 -20.957  17.748  1.00142.22     0.224 C 
HETATM   18  C22 MIQ B 502      14.185 -22.309  17.968  1.00139.52     0.106 C 
HETATM   19  O24 MIQ B 502      15.948 -20.740  18.085  1.00146.13    -0.273 OA
HETATM   20  C23 MIQ B 502      12.933 -22.057  18.787  1.00139.15     0.045 C 
ENDBRANCH  10  12
BRANCH   5  21
HETATM   21  N6  MIQ B 502       5.383 -23.814  15.920  1.00140.95    -0.377 N 
HETATM   22  C7  MIQ B 502       4.369 -22.791  15.732  1.00142.12     0.149 C 
HETATM   23  C8  MIQ B 502       3.039 -23.187  16.362  1.00144.10     0.187 C 
HETATM   24  O9  MIQ B 502       2.646 -24.485  16.030  1.00148.65    -0.388 OA
HETATM   25  C10 MIQ B 502       3.533 -25.350  15.385  1.00147.44     0.187 C 
HETATM   26  C11 MIQ B 502       5.026 -25.197  15.654  1.00144.08     0.149 C 
ENDBRANCH   5  21
TORSDOF 2
ENDMDL
MODEL 7
REMARK VINA RESULT:      -6.4     25.746     27.062
REMARK  2 active torsions:
REMARK  status: ('A' for Active; 'I' for Inactive)
REMARK    1  A    between atoms: C5_5  and  N6_21 
REMARK    2  A    between atoms: C18_14  and  N17_19 
ROOT
HETATM    1  O1  MIQ B 502      11.995 -11.846  -6.476  1.00142.91    -0.171 OA
HETATM    2  C2  MIQ B 502      12.785 -12.768  -7.167  1.00141.17     0.195 A 
HETATM    3  C3  MIQ B 502      14.023 -12.436  -8.059  1.00141.71     0.035 A 
HETATM    4  C4  MIQ B 502      14.703 -11.172  -8.428  1.00142.86     0.046 A 
HETATM    5  C5  MIQ B 502      15.837 -11.191  -9.279  1.00139.53     0.031 A 
HETATM    6  C12 MIQ B 502      16.336 -12.459  -9.791  1.00139.38     0.030 A 
HETATM    7  C13 MIQ B 502      15.685 -13.672  -9.436  1.00141.18     0.019 A 
HETATM    8  C14 MIQ B 502      14.496 -13.646  -8.541  1.00138.77     0.033 A 
HETATM    9  C15 MIQ B 502      13.546 -14.735  -7.944  1.00142.10     0.195 A 
HETATM   10  N17 MIQ B 502      12.660 -14.084  -7.208  1.00139.42    -0.288 N 
HETATM   11  O16 MIQ B 502      13.621 -16.114  -8.150  1.00148.93    -0.171 OA
ENDROOT
BRANCH  10  12
HETATM   12  C18 MIQ B 502      11.600 -14.782  -6.506  1.00139.82     0.187 C 
HETATM   13  C19 MIQ B 502      10.273 -14.106  -6.873  1.00140.06     0.247 C 
HETATM   14  O25 MIQ B 502      10.009 -13.934  -8.010  1.00143.95    -0.271 OA
HETATM   15  N20 MIQ B 502       9.328 -13.677  -5.862  1.00140.02    -0.296 N 
HETATM   16  H13 MIQ B 502       8.468 -13.232  -6.114  1.00142.77     0.171 HD
HETATM   17  C21 MIQ B 502       9.677 -13.889  -4.480  1.00142.22     0.224 C 
HETATM   18  C22 MIQ B 502      11.148 -13.787  -4.126  1.00139.52     0.106 C 
HETATM   19  O24 MIQ B 502       8.856 -14.134  -3.666  1.00146.13    -0.273 OA
HETATM   20  C23 MIQ B 502      11.874 -14.791  -5.003  1.00139.15     0.045 C 
ENDBRANCH  10  12
BRANCH   5  21
HETATM   21  N6  MIQ B 502      16.485  -9.944  -9.645  1.00140.95    -0.377 N 
HETATM   22  C7  MIQ B 502      17.112  -9.845 -10.951  1.00142.12     0.149 C 
HETATM   23  C8  MIQ B 502      18.245  -8.826 -10.962  1.00144.10     0.187 C 
HETATM   24  O9  MIQ B 502      17.887  -7.610 -10.378  1.00148.65    -0.388 OA
HETATM   25  C10 MIQ B 502      16.689  -7.490  -9.670  1.00147.44     0.187 C 
HETATM   26  C11 MIQ B 502      16.141  -8.717  -8.948  1.00144.08     0.149 C 
ENDBRANCH   5  21
TORSDOF 2
ENDMDL
MODEL 8
REMARK VINA RESULT:      -6.4      1.942      2.598
REMARK  2 active torsions:
REMARK  status: ('A' for Active; 'I' for Inactive)
REMARK    1  A    between atoms: C5_5  and  N6_21 
REMARK    2  A    between atoms: C18_14  and  N17_19 
ROOT
HETATM    1  O1  MIQ B 502       9.286 -24.569  14.752  1.00142.91    -0.171 OA
HETATM    2  C2  MIQ B 502       8.796 -23.732  15.757  1.00141.17     0.195 A 
HETATM    3  C3  MIQ B 502       9.643 -22.771  16.651  1.00141.71     0.035 A 
HETATM    4  C4  MIQ B 502      11.089 -22.457  16.724  1.00142.86     0.046 A 
HETATM    5  C5  MIQ B 502      11.571 -21.513  17.665  1.00139.53     0.031 A 
HETATM    6  C12 MIQ B 502      10.639 -20.849  18.565  1.00139.38     0.030 A 
HETATM    7  C13 MIQ B 502       9.252 -21.149  18.495  1.00141.18     0.019 A 
HETATM    8  C14 MIQ B 502       8.751 -22.139  17.503  1.00138.77     0.033 A 
HETATM    9  C15 MIQ B 502       7.343 -22.710  17.135  1.00142.10     0.195 A 
HETATM   10  N17 MIQ B 502       7.544 -23.573  16.153  1.00139.42    -0.288 N 
HETATM   11  O16 MIQ B 502       6.124 -22.375  17.727  1.00148.93    -0.171 OA
ENDROOT
BRANCH  10  12
HETATM   12  C18 MIQ B 502       6.448 -24.317  15.562  1.00139.82     0.187 C 
HETATM   13  C19 MIQ B 502       5.351 -23.314  15.184  1.00140.06     0.247 C 
HETATM   14  O25 MIQ B 502       5.635 -22.365  14.543  1.00143.95    -0.271 OA
HETATM   15  N20 MIQ B 502       3.973 -23.501  15.587  1.00140.02    -0.296 N 
HETATM   16  H13 MIQ B 502       3.267 -22.835  15.340  1.00142.77     0.171 HD
HETATM   17  C21 MIQ B 502       3.653 -24.662  16.378  1.00142.22     0.224 C 
HETATM   18  C22 MIQ B 502       4.717 -25.141  17.346  1.00139.52     0.106 C 
HETATM   19  O24 MIQ B 502       2.614 -25.215  16.271  1.00146.13    -0.273 OA
HETATM   20  C23 MIQ B 502       5.964 -25.403  16.521  1.00139.15     0.045 C 
ENDBRANCH  10  12
BRANCH   5  21
HETATM   21  N6  MIQ B 502      12.993 -21.226  17.735  1.00140.95    -0.377 N 
HETATM   22  C7  MIQ B 502      13.899 -22.295  18.119  1.00142.12     0.149 C 
HETATM   23  C8  MIQ B 502      15.171 -21.759  18.763  1.00144.10     0.187 C 
HETATM   24  O9  MIQ B 502      15.750 -20.717  18.036  1.00148.65    -0.388 OA
HETATM   25  C10 MIQ B 502      15.060 -20.125  16.975  1.00147.44     0.187 C 
HETATM   26  C11 MIQ B 502      13.537 -20.079  17.031  1.00144.08     0.149 C 
ENDBRANCH   5  21
TORSDOF 2
ENDMDL
MODEL 9
REMARK VINA RESULT:      -6.3      2.891      8.689
REMARK  2 active torsions:
REMARK  status: ('A' for Active; 'I' for Inactive)
REMARK    1  A    between atoms: C5_5  and  N6_21 
REMARK    2  A    between atoms: C18_14  and  N17_19 
ROOT
HETATM    1  O1  MIQ B 502       8.628 -22.441  18.776  1.00142.91    -0.171 OA
HETATM    2  C2  MIQ B 502       8.669 -22.635  17.394  1.00141.17     0.195 A 
HETATM    3  C3  MIQ B 502       7.469 -23.057  16.486  1.00141.71     0.035 A 
HETATM    4  C4  MIQ B 502       6.043 -23.355  16.757  1.00142.86     0.046 A 
HETATM    5  C5  MIQ B 502       5.174 -23.719  15.697  1.00139.53     0.031 A 
HETATM    6  C12 MIQ B 502       5.687 -23.799  14.337  1.00139.38     0.030 A 
HETATM    7  C13 MIQ B 502       7.054 -23.512  14.077  1.00141.18     0.019 A 
HETATM    8  C14 MIQ B 502       7.961 -23.128  15.193  1.00138.77     0.033 A 
HETATM    9  C15 MIQ B 502       9.474 -22.748  15.299  1.00142.10     0.195 A 
HETATM   10  N17 MIQ B 502       9.701 -22.503  16.579  1.00139.42    -0.288 N 
HETATM   11  O16 MIQ B 502      10.395 -22.684  14.251  1.00148.93    -0.171 OA
ENDROOT
BRANCH  10  12
HETATM   12  C18 MIQ B 502      11.020 -22.131  17.056  1.00139.82     0.187 C 
HETATM   13  C19 MIQ B 502      11.411 -23.117  18.164  1.00140.06     0.247 C 
HETATM   14  O25 MIQ B 502      11.328 -24.275  17.959  1.00143.95    -0.271 OA
HETATM   15  N20 MIQ B 502      11.887 -22.665  19.455  1.00140.02    -0.296 N 
HETATM   16  H13 MIQ B 502      12.133 -23.319  20.172  1.00142.77     0.171 HD
HETATM   17  C21 MIQ B 502      11.970 -21.245  19.685  1.00142.22     0.224 C 
HETATM   18  C22 MIQ B 502      10.925 -20.383  19.004  1.00139.52     0.106 C 
HETATM   19  O24 MIQ B 502      12.816 -20.778  20.366  1.00146.13    -0.273 OA
HETATM   20  C23 MIQ B 502      11.026 -20.674  17.518  1.00139.15     0.045 C 
ENDBRANCH  10  12
BRANCH   5  21
HETATM   21  N6  MIQ B 502       3.783 -24.024  15.978  1.00140.95    -0.377 N 
HETATM   22  C7  MIQ B 502       2.905 -22.942  16.392  1.00142.12     0.149 C 
HETATM   23  C8  MIQ B 502       1.744 -23.445  17.240  1.00144.10     0.187 C 
HETATM   24  O9  MIQ B 502       1.104 -24.553  16.683  1.00148.65    -0.388 OA
HETATM   25  C10 MIQ B 502       1.665 -25.220  15.590  1.00147.44     0.187 C 
HETATM   26  C11 MIQ B 502       3.183 -25.235  15.446  1.00144.08     0.149 C 
ENDBRANCH   5  21
TORSDOF 2
ENDMDL
