MODEL 1
REMARK VINA RESULT:      -7.7      0.000      0.000
REMARK  2 active torsions:
REMARK  status: ('A' for Active; 'I' for Inactive)
REMARK    1  A    between atoms: C5_5  and  N6_21 
REMARK    2  A    between atoms: C18_14  and  N17_19 
ROOT
HETATM    1  O1  MIQ B 502      -3.797  18.048   4.756  1.00142.91    -0.171 OA
HETATM    2  C2  MIQ B 502      -4.516  16.875   4.994  1.00141.17     0.195 A 
HETATM    3  C3  MIQ B 502      -4.902  16.297   6.393  1.00141.71     0.035 A 
HETATM    4  C4  MIQ B 502      -4.663  16.751   7.784  1.00142.86     0.046 A 
HETATM    5  C5  MIQ B 502      -5.151  15.994   8.878  1.00139.53     0.031 A 
HETATM    6  C12 MIQ B 502      -5.891  14.764   8.634  1.00139.38     0.030 A 
HETATM    7  C13 MIQ B 502      -6.121  14.329   7.301  1.00141.18     0.019 A 
HETATM    8  C14 MIQ B 502      -5.608  15.130   6.155  1.00138.77     0.033 A 
HETATM    9  C15 MIQ B 502      -5.662  14.982   4.600  1.00142.10     0.195 A 
HETATM   10  N17 MIQ B 502      -5.016  16.027   4.111  1.00139.42    -0.288 N 
HETATM   11  O16 MIQ B 502      -6.269  13.952   3.878  1.00148.93    -0.171 OA
ENDROOT
BRANCH  10  12
HETATM   12  C18 MIQ B 502      -4.851  16.215   2.681  1.00139.82     0.187 C 
HETATM   13  C19 MIQ B 502      -3.354  16.403   2.404  1.00140.06     0.247 C 
HETATM   14  O25 MIQ B 502      -2.585  15.620   2.838  1.00143.95    -0.271 OA
HETATM   15  N20 MIQ B 502      -2.856  17.514   1.620  1.00140.02    -0.296 N 
HETATM   16  H13 MIQ B 502      -1.876  17.630   1.451  1.00142.77     0.171 HD
HETATM   17  C21 MIQ B 502      -3.813  18.463   1.110  1.00142.22     0.224 C 
HETATM   18  C22 MIQ B 502      -5.033  18.729   1.972  1.00139.52     0.106 C 
HETATM   19  O24 MIQ B 502      -3.656  19.001   0.070  1.00146.13    -0.273 OA
HETATM   20  C23 MIQ B 502      -5.704  17.386   2.197  1.00139.15     0.045 C 
ENDBRANCH  10  12
BRANCH   5  21
HETATM   21  N6  MIQ B 502      -4.897  16.442  10.235  1.00140.95    -0.377 N 
HETATM   22  C7  MIQ B 502      -5.070  17.851  10.545  1.00142.12     0.149 C 
HETATM   23  C8  MIQ B 502      -4.200  18.286  11.717  1.00144.10     0.187 C 
HETATM   24  O9  MIQ B 502      -4.286  17.421  12.809  1.00148.65    -0.388 OA
HETATM   25  C10 MIQ B 502      -4.931  16.187  12.685  1.00147.44     0.187 C 
HETATM   26  C11 MIQ B 502      -4.913  15.488  11.330  1.00144.08     0.149 C 
ENDBRANCH   5  21
TORSDOF 2
ENDMDL
MODEL 2
REMARK VINA RESULT:      -7.1      2.235      8.097
REMARK  2 active torsions:
REMARK  status: ('A' for Active; 'I' for Inactive)
REMARK    1  A    between atoms: C5_5  and  N6_21 
REMARK    2  A    between atoms: C18_14  and  N17_19 
ROOT
HETATM    1  O1  MIQ B 502      -3.776  16.235   9.714  1.00142.91    -0.171 OA
HETATM    2  C2  MIQ B 502      -4.665  15.520   8.908  1.00141.17     0.195 A 
HETATM    3  C3  MIQ B 502      -4.663  15.475   7.347  1.00141.71     0.035 A 
HETATM    4  C4  MIQ B 502      -3.809  16.103   6.310  1.00142.86     0.046 A 
HETATM    5  C5  MIQ B 502      -4.060  15.866   4.935  1.00139.53     0.031 A 
HETATM    6  C12 MIQ B 502      -5.162  15.000   4.540  1.00139.38     0.030 A 
HETATM    7  C13 MIQ B 502      -5.980  14.397   5.534  1.00141.18     0.019 A 
HETATM    8  C14 MIQ B 502      -5.710  14.648   6.976  1.00138.77     0.033 A 
HETATM    9  C15 MIQ B 502      -6.366  14.176   8.315  1.00142.10     0.195 A 
HETATM   10  N17 MIQ B 502      -5.668  14.745   9.284  1.00139.42    -0.288 N 
HETATM   11  O16 MIQ B 502      -7.466  13.328   8.453  1.00148.93    -0.171 OA
ENDROOT
BRANCH  10  12
HETATM   12  C18 MIQ B 502      -6.006  14.542  10.680  1.00139.82     0.187 C 
HETATM   13  C19 MIQ B 502      -6.081  15.921  11.348  1.00140.06     0.247 C 
HETATM   14  O25 MIQ B 502      -6.740  16.765  10.854  1.00143.95    -0.271 OA
HETATM   15  N20 MIQ B 502      -5.369  16.215  12.575  1.00140.02    -0.296 N 
HETATM   16  H13 MIQ B 502      -5.421  17.121  12.998  1.00142.77     0.171 HD
HETATM   17  C21 MIQ B 502      -4.562  15.171  13.154  1.00142.22     0.224 C 
HETATM   18  C22 MIQ B 502      -3.889  14.215  12.187  1.00139.52     0.106 C 
HETATM   19  O24 MIQ B 502      -4.437  15.063  14.324  1.00146.13    -0.273 OA
HETATM   20  C23 MIQ B 502      -4.994  13.608  11.342  1.00139.15     0.045 C 
ENDBRANCH  10  12
BRANCH   5  21
HETATM   21  N6  MIQ B 502      -3.226  16.500   3.931  1.00140.95    -0.377 N 
HETATM   22  C7  MIQ B 502      -3.100  15.864   2.630  1.00142.12     0.149 C 
HETATM   23  C8  MIQ B 502      -1.785  16.218   1.949  1.00144.10     0.187 C 
HETATM   24  O9  MIQ B 502      -1.511  17.587   1.973  1.00148.65    -0.388 OA
HETATM   25  C10 MIQ B 502      -2.281  18.449   2.757  1.00147.44     0.187 C 
HETATM   26  C11 MIQ B 502      -2.896  17.910   4.045  1.00144.08     0.149 C 
ENDBRANCH   5  21
TORSDOF 2
ENDMDL
MODEL 3
REMARK VINA RESULT:      -6.9      2.326      8.054
REMARK  2 active torsions:
REMARK  status: ('A' for Active; 'I' for Inactive)
REMARK    1  A    between atoms: C5_5  and  N6_21 
REMARK    2  A    between atoms: C18_14  and  N17_19 
ROOT
HETATM    1  O1  MIQ B 502      -3.832  17.513   8.883  1.00142.91    -0.171 OA
HETATM    2  C2  MIQ B 502      -4.458  16.404   8.309  1.00141.17     0.195 A 
HETATM    3  C3  MIQ B 502      -4.727  16.182   6.787  1.00141.71     0.035 A 
HETATM    4  C4  MIQ B 502      -4.438  16.983   5.574  1.00142.86     0.046 A 
HETATM    5  C5  MIQ B 502      -4.814  16.505   4.293  1.00139.53     0.031 A 
HETATM    6  C12 MIQ B 502      -5.485  15.219   4.170  1.00139.38     0.030 A 
HETATM    7  C13 MIQ B 502      -5.761  14.450   5.333  1.00141.18     0.019 A 
HETATM    8  C14 MIQ B 502      -5.363  14.957   6.675  1.00138.77     0.033 A 
HETATM    9  C15 MIQ B 502      -5.488  14.414   8.136  1.00142.10     0.195 A 
HETATM   10  N17 MIQ B 502      -4.938  15.332   8.915  1.00139.42    -0.288 N 
HETATM   11  O16 MIQ B 502      -6.067  13.208   8.533  1.00148.93    -0.171 OA
ENDROOT
BRANCH  10  12
HETATM   12  C18 MIQ B 502      -4.888  15.171  10.356  1.00139.82     0.187 C 
HETATM   13  C19 MIQ B 502      -4.169  13.850  10.655  1.00140.06     0.247 C 
HETATM   14  O25 MIQ B 502      -3.123  13.637  10.151  1.00143.95    -0.271 OA
HETATM   15  N20 MIQ B 502      -4.735  12.856  11.544  1.00140.02    -0.296 N 
HETATM   16  H13 MIQ B 502      -4.258  11.995  11.725  1.00142.77     0.171 HD
HETATM   17  C21 MIQ B 502      -6.017  13.134  12.137  1.00142.22     0.224 C 
HETATM   18  C22 MIQ B 502      -6.995  13.936  11.301  1.00139.52     0.106 C 
HETATM   19  O24 MIQ B 502      -6.289  12.760  13.225  1.00146.13    -0.273 OA
HETATM   20  C23 MIQ B 502      -6.296  15.236  10.947  1.00139.15     0.045 C 
ENDBRANCH  10  12
BRANCH   5  21
HETATM   21  N6  MIQ B 502      -4.538  17.306   3.115  1.00140.95    -0.377 N 
HETATM   22  C7  MIQ B 502      -3.390  16.962   2.293  1.00142.12     0.149 C 
HETATM   23  C8  MIQ B 502      -2.849  18.169   1.538  1.00144.10     0.187 C 
HETATM   24  O9  MIQ B 502      -3.848  18.899   0.891  1.00148.65    -0.388 OA
HETATM   25  C10 MIQ B 502      -5.196  18.632   1.146  1.00147.44     0.187 C 
HETATM   26  C11 MIQ B 502      -5.590  18.117   2.527  1.00144.08     0.149 C 
ENDBRANCH   5  21
TORSDOF 2
ENDMDL
MODEL 4
REMARK VINA RESULT:      -6.8      2.578      8.776
REMARK  2 active torsions:
REMARK  status: ('A' for Active; 'I' for Inactive)
REMARK    1  A    between atoms: C5_5  and  N6_21 
REMARK    2  A    between atoms: C18_14  and  N17_19 
ROOT
HETATM    1  O1  MIQ B 502      -2.745  15.019  11.138  1.00142.91    -0.171 OA
HETATM    2  C2  MIQ B 502      -3.978  14.733  10.547  1.00141.17     0.195 A 
HETATM    3  C3  MIQ B 502      -4.289  14.736   9.016  1.00141.71     0.035 A 
HETATM    4  C4  MIQ B 502      -3.471  15.008   7.810  1.00142.86     0.046 A 
HETATM    5  C5  MIQ B 502      -4.050  14.928   6.518  1.00139.53     0.031 A 
HETATM    6  C12 MIQ B 502      -5.456  14.575   6.377  1.00139.38     0.030 A 
HETATM    7  C13 MIQ B 502      -6.240  14.313   7.533  1.00141.18     0.019 A 
HETATM    8  C14 MIQ B 502      -5.626  14.396   8.886  1.00138.77     0.033 A 
HETATM    9  C15 MIQ B 502      -6.147  14.182  10.345  1.00142.10     0.195 A 
HETATM   10  N17 MIQ B 502      -5.113  14.404  11.139  1.00139.42    -0.288 N 
HETATM   11  O16 MIQ B 502      -7.443  13.830  10.726  1.00148.93    -0.171 OA
ENDROOT
BRANCH  10  12
HETATM   12  C18 MIQ B 502      -5.232  14.310  12.582  1.00139.82     0.187 C 
HETATM   13  C19 MIQ B 502      -4.700  15.618  13.181  1.00140.06     0.247 C 
HETATM   14  O25 MIQ B 502      -5.107  16.646  12.772  1.00143.95    -0.271 OA
HETATM   15  N20 MIQ B 502      -3.714  15.626  14.242  1.00140.02    -0.296 N 
HETATM   16  H13 MIQ B 502      -3.370  16.486  14.620  1.00142.77     0.171 HD
HETATM   17  C21 MIQ B 502      -3.224  14.358  14.718  1.00142.22     0.224 C 
HETATM   18  C22 MIQ B 502      -3.116  13.242  13.696  1.00139.52     0.106 C 
HETATM   19  O24 MIQ B 502      -2.927  14.195  15.850  1.00146.13    -0.273 OA
HETATM   20  C23 MIQ B 502      -4.500  13.071  13.096  1.00139.15     0.045 C 
ENDBRANCH  10  12
BRANCH   5  21
HETATM   21  N6  MIQ B 502      -3.241  15.211   5.347  1.00140.95    -0.377 N 
HETATM   22  C7  MIQ B 502      -3.782  16.092   4.326  1.00142.12     0.149 C 
HETATM   23  C8  MIQ B 502      -3.188  15.803   2.953  1.00144.10     0.187 C 
HETATM   24  O9  MIQ B 502      -1.796  15.699   2.975  1.00148.65    -0.388 OA
HETATM   25  C10 MIQ B 502      -1.109  15.640   4.190  1.00147.44     0.187 C 
HETATM   26  C11 MIQ B 502      -1.804  15.005   5.390  1.00144.08     0.149 C 
ENDBRANCH   5  21
TORSDOF 2
ENDMDL
MODEL 5
REMARK VINA RESULT:      -6.7      1.802      2.508
REMARK  2 active torsions:
REMARK  status: ('A' for Active; 'I' for Inactive)
REMARK    1  A    between atoms: C5_5  and  N6_21 
REMARK    2  A    between atoms: C18_14  and  N17_19 
ROOT
HETATM    1  O1  MIQ B 502      -3.810  19.291   6.560  1.00142.91    -0.171 OA
HETATM    2  C2  MIQ B 502      -4.251  18.147   5.891  1.00141.17     0.195 A 
HETATM    3  C3  MIQ B 502      -4.765  16.831   6.557  1.00141.71     0.035 A 
HETATM    4  C4  MIQ B 502      -4.939  16.401   7.964  1.00142.86     0.046 A 
HETATM    5  C5  MIQ B 502      -5.442  15.110   8.263  1.00139.53     0.031 A 
HETATM    6  C12 MIQ B 502      -5.789  14.201   7.179  1.00139.38     0.030 A 
HETATM    7  C13 MIQ B 502      -5.623  14.613   5.829  1.00141.18     0.019 A 
HETATM    8  C14 MIQ B 502      -5.096  15.971   5.522  1.00138.77     0.033 A 
HETATM    9  C15 MIQ B 502      -4.788  16.759   4.207  1.00142.10     0.195 A 
HETATM   10  N17 MIQ B 502      -4.332  17.941   4.588  1.00139.42    -0.288 N 
HETATM   11  O16 MIQ B 502      -4.959  16.302   2.899  1.00148.93    -0.171 OA
ENDROOT
BRANCH  10  12
HETATM   12  C18 MIQ B 502      -3.925  18.943   3.621  1.00139.82     0.187 C 
HETATM   13  C19 MIQ B 502      -5.065  19.106   2.608  1.00140.06     0.247 C 
HETATM   14  O25 MIQ B 502      -6.162  19.292   3.000  1.00143.95    -0.271 OA
HETATM   15  N20 MIQ B 502      -4.832  19.043   1.179  1.00140.02    -0.296 N 
HETATM   16  H13 MIQ B 502      -5.585  19.144   0.528  1.00142.77     0.171 HD
HETATM   17  C21 MIQ B 502      -3.486  18.804   0.726  1.00142.22     0.224 C 
HETATM   18  C22 MIQ B 502      -2.621  17.914   1.597  1.00139.52     0.106 C 
HETATM   19  O24 MIQ B 502      -3.077  19.283  -0.274  1.00146.13    -0.273 OA
HETATM   20  C23 MIQ B 502      -2.598  18.550   2.975  1.00139.15     0.045 C 
ENDBRANCH  10  12
BRANCH   5  21
HETATM   21  N6  MIQ B 502      -5.594  14.697   9.646  1.00140.95    -0.377 N 
HETATM   22  C7  MIQ B 502      -5.763  15.722  10.662  1.00142.12     0.149 C 
HETATM   23  C8  MIQ B 502      -5.274  15.255  12.027  1.00144.10     0.187 C 
HETATM   24  O9  MIQ B 502      -5.751  13.989  12.371  1.00148.65    -0.388 OA
HETATM   25  C10 MIQ B 502      -6.404  13.196  11.423  1.00147.44     0.187 C 
HETATM   26  C11 MIQ B 502      -6.011  13.341   9.957  1.00144.08     0.149 C 
ENDBRANCH   5  21
TORSDOF 2
ENDMDL
MODEL 6
REMARK VINA RESULT:      -6.4      4.691      7.036
REMARK  2 active torsions:
REMARK  status: ('A' for Active; 'I' for Inactive)
REMARK    1  A    between atoms: C5_5  and  N6_21 
REMARK    2  A    between atoms: C18_14  and  N17_19 
ROOT
HETATM    1  O1  MIQ B 502      -3.943  12.925   8.407  1.00142.91    -0.171 OA
HETATM    2  C2  MIQ B 502      -4.320  13.473   9.635  1.00141.17     0.195 A 
HETATM    3  C3  MIQ B 502      -3.992  12.887  11.045  1.00141.71     0.035 A 
HETATM    4  C4  MIQ B 502      -3.250  11.689  11.504  1.00142.86     0.046 A 
HETATM    5  C5  MIQ B 502      -3.116  11.416  12.889  1.00139.53     0.031 A 
HETATM    6  C12 MIQ B 502      -3.710  12.318  13.864  1.00139.38     0.030 A 
HETATM    7  C13 MIQ B 502      -4.420  13.468  13.425  1.00141.18     0.019 A 
HETATM    8  C14 MIQ B 502      -4.556  13.751  11.970  1.00138.77     0.033 A 
HETATM    9  C15 MIQ B 502      -5.237  14.879  11.129  1.00142.10     0.195 A 
HETATM   10  N17 MIQ B 502      -5.011  14.576   9.861  1.00139.42    -0.288 N 
HETATM   11  O16 MIQ B 502      -5.942  15.979  11.621  1.00148.93    -0.171 OA
ENDROOT
BRANCH  10  12
HETATM   12  C18 MIQ B 502      -5.517  15.405   8.783  1.00139.82     0.187 C 
HETATM   13  C19 MIQ B 502      -6.198  14.483   7.764  1.00140.06     0.247 C 
HETATM   14  O25 MIQ B 502      -7.004  13.707   8.138  1.00143.95    -0.271 OA
HETATM   15  N20 MIQ B 502      -5.884  14.541   6.351  1.00140.02    -0.296 N 
HETATM   16  H13 MIQ B 502      -6.331  13.929   5.697  1.00142.77     0.171 HD
HETATM   17  C21 MIQ B 502      -4.889  15.489   5.920  1.00142.22     0.224 C 
HETATM   18  C22 MIQ B 502      -3.751  15.768   6.883  1.00139.52     0.106 C 
HETATM   19  O24 MIQ B 502      -4.961  16.026   4.869  1.00146.13    -0.273 OA
HETATM   20  C23 MIQ B 502      -4.388  16.239   8.178  1.00139.15     0.045 C 
ENDBRANCH  10  12
BRANCH   5  21
HETATM   21  N6  MIQ B 502      -2.399  10.230  13.324  1.00140.95    -0.377 N 
HETATM   22  C7  MIQ B 502      -2.595   9.761  14.684  1.00142.12     0.149 C 
HETATM   23  C8  MIQ B 502      -1.388   8.985  15.197  1.00144.10     0.187 C 
HETATM   24  O9  MIQ B 502      -0.937   8.022  14.292  1.00148.65    -0.388 OA
HETATM   25  C10 MIQ B 502      -1.433   7.990  12.987  1.00147.44     0.187 C 
HETATM   26  C11 MIQ B 502      -1.872   9.300  12.341  1.00144.08     0.149 C 
ENDBRANCH   5  21
TORSDOF 2
ENDMDL
MODEL 7
REMARK VINA RESULT:      -6.4      2.529      8.445
REMARK  2 active torsions:
REMARK  status: ('A' for Active; 'I' for Inactive)
REMARK    1  A    between atoms: C5_5  and  N6_21 
REMARK    2  A    between atoms: C18_14  and  N17_19 
ROOT
HETATM    1  O1  MIQ B 502      -4.473  12.694   7.510  1.00142.91    -0.171 OA
HETATM    2  C2  MIQ B 502      -4.658  13.949   8.095  1.00141.17     0.195 A 
HETATM    3  C3  MIQ B 502      -4.570  15.328   7.366  1.00141.71     0.035 A 
HETATM    4  C4  MIQ B 502      -4.295  15.724   5.965  1.00142.86     0.046 A 
HETATM    5  C5  MIQ B 502      -4.284  17.093   5.596  1.00139.53     0.031 A 
HETATM    6  C12 MIQ B 502      -4.545  18.114   6.600  1.00139.38     0.030 A 
HETATM    7  C13 MIQ B 502      -4.810  17.734   7.944  1.00141.18     0.019 A 
HETATM    8  C14 MIQ B 502      -4.822  16.295   8.325  1.00138.77     0.033 A 
HETATM    9  C15 MIQ B 502      -5.069  15.513   9.656  1.00142.10     0.195 A 
HETATM   10  N17 MIQ B 502      -4.944  14.231   9.354  1.00139.42    -0.288 N 
HETATM   11  O16 MIQ B 502      -5.358  16.061  10.906  1.00148.93    -0.171 OA
ENDROOT
BRANCH  10  12
HETATM   12  C18 MIQ B 502      -5.094  13.198  10.362  1.00139.82     0.187 C 
HETATM   13  C19 MIQ B 502      -6.470  13.377  11.015  1.00140.06     0.247 C 
HETATM   14  O25 MIQ B 502      -7.426  13.465  10.329  1.00143.95    -0.271 OA
HETATM   15  N20 MIQ B 502      -6.631  13.436  12.453  1.00140.02    -0.296 N 
HETATM   16  H13 MIQ B 502      -7.534  13.560  12.867  1.00142.77     0.171 HD
HETATM   17  C21 MIQ B 502      -5.448  13.337  13.269  1.00142.22     0.224 C 
HETATM   18  C22 MIQ B 502      -4.176  13.937  12.701  1.00139.52     0.106 C 
HETATM   19  O24 MIQ B 502      -5.469  12.809  14.326  1.00146.13    -0.273 OA
HETATM   20  C23 MIQ B 502      -3.941  13.260  11.363  1.00139.15     0.045 C 
ENDBRANCH  10  12
BRANCH   5  21
HETATM   21  N6  MIQ B 502      -3.999  17.467   4.223  1.00140.95    -0.377 N 
HETATM   22  C7  MIQ B 502      -3.124  16.614   3.438  1.00142.12     0.149 C 
HETATM   23  C8  MIQ B 502      -2.413  17.389   2.335  1.00144.10     0.187 C 
HETATM   24  O9  MIQ B 502      -3.278  18.198   1.596  1.00148.65    -0.388 OA
HETATM   25  C10 MIQ B 502      -4.591  18.407   2.024  1.00147.44     0.187 C 
HETATM   26  C11 MIQ B 502      -4.883  18.382   3.521  1.00144.08     0.149 C 
ENDBRANCH   5  21
TORSDOF 2
ENDMDL
MODEL 8
REMARK VINA RESULT:      -6.4      2.732      9.239
REMARK  2 active torsions:
REMARK  status: ('A' for Active; 'I' for Inactive)
REMARK    1  A    between atoms: C5_5  and  N6_21 
REMARK    2  A    between atoms: C18_14  and  N17_19 
ROOT
HETATM    1  O1  MIQ B 502      -7.183  14.320  10.855  1.00142.91    -0.171 OA
HETATM    2  C2  MIQ B 502      -5.806  14.511  10.722  1.00141.17     0.195 A 
HETATM    3  C3  MIQ B 502      -5.044  14.841   9.399  1.00141.71     0.035 A 
HETATM    4  C4  MIQ B 502      -5.479  15.044   7.996  1.00142.86     0.046 A 
HETATM    5  C5  MIQ B 502      -4.528  15.341   6.987  1.00139.53     0.031 A 
HETATM    6  C12 MIQ B 502      -3.118  15.449   7.332  1.00139.38     0.030 A 
HETATM    7  C13 MIQ B 502      -2.701  15.255   8.677  1.00141.18     0.019 A 
HETATM    8  C14 MIQ B 502      -3.704  14.946   9.733  1.00138.77     0.033 A 
HETATM    9  C15 MIQ B 502      -3.633  14.680  11.272  1.00142.10     0.195 A 
HETATM   10  N17 MIQ B 502      -4.877  14.460  11.662  1.00139.42    -0.288 N 
HETATM   11  O16 MIQ B 502      -2.485  14.674  12.067  1.00148.93    -0.171 OA
ENDROOT
BRANCH  10  12
HETATM   12  C18 MIQ B 502      -5.195  14.159  13.045  1.00139.82     0.187 C 
HETATM   13  C19 MIQ B 502      -4.573  15.255  13.918  1.00140.06     0.247 C 
HETATM   14  O25 MIQ B 502      -4.779  16.387  13.656  1.00143.95    -0.271 OA
HETATM   15  N20 MIQ B 502      -3.741  14.941  15.062  1.00140.02    -0.296 N 
HETATM   16  H13 MIQ B 502      -3.335  15.666  15.620  1.00142.77     0.171 HD
HETATM   17  C21 MIQ B 502      -3.496  13.552  15.356  1.00142.22     0.224 C 
HETATM   18  C22 MIQ B 502      -3.409  12.610  14.171  1.00139.52     0.106 C 
HETATM   19  O24 MIQ B 502      -3.374  13.168  16.467  1.00146.13    -0.273 OA
HETATM   20  C23 MIQ B 502      -4.713  12.755  13.408  1.00139.15     0.045 C 
ENDBRANCH  10  12
BRANCH   5  21
HETATM   21  N6  MIQ B 502      -4.966  15.522   5.615  1.00140.95    -0.377 N 
HETATM   22  C7  MIQ B 502      -4.184  16.384   4.745  1.00142.12     0.149 C 
HETATM   23  C8  MIQ B 502      -5.032  16.988   3.633  1.00144.10     0.187 C 
HETATM   24  O9  MIQ B 502      -5.826  16.043   2.980  1.00148.65    -0.388 OA
HETATM   25  C10 MIQ B 502      -5.957  14.751   3.497  1.00147.44     0.187 C 
HETATM   26  C11 MIQ B 502      -5.863  14.556   5.006  1.00144.08     0.149 C 
ENDBRANCH   5  21
TORSDOF 2
ENDMDL
MODEL 9
REMARK VINA RESULT:      -6.3      4.237      8.573
REMARK  2 active torsions:
REMARK  status: ('A' for Active; 'I' for Inactive)
REMARK    1  A    between atoms: C5_5  and  N6_21 
REMARK    2  A    between atoms: C18_14  and  N17_19 
ROOT
HETATM    1  O1  MIQ B 502      -1.055  13.124   8.969  1.00142.91    -0.171 OA
HETATM    2  C2  MIQ B 502      -2.436  13.132   9.181  1.00141.17     0.195 A 
HETATM    3  C3  MIQ B 502      -3.510  13.763   8.239  1.00141.71     0.035 A 
HETATM    4  C4  MIQ B 502      -3.435  14.481   6.945  1.00142.86     0.046 A 
HETATM    5  C5  MIQ B 502      -4.616  14.946   6.313  1.00139.53     0.031 A 
HETATM    6  C12 MIQ B 502      -5.910  14.714   6.940  1.00139.38     0.030 A 
HETATM    7  C13 MIQ B 502      -5.982  14.024   8.180  1.00141.18     0.019 A 
HETATM    8  C14 MIQ B 502      -4.739  13.537   8.838  1.00138.77     0.033 A 
HETATM    9  C15 MIQ B 502      -4.426  12.761  10.159  1.00142.10     0.195 A 
HETATM   10  N17 MIQ B 502      -3.111  12.618  10.195  1.00139.42    -0.288 N 
HETATM   11  O16 MIQ B 502      -5.349  12.316  11.106  1.00148.93    -0.171 OA
ENDROOT
BRANCH  10  12
HETATM   12  C18 MIQ B 502      -2.452  11.949  11.302  1.00139.82     0.187 C 
HETATM   13  C19 MIQ B 502      -1.348  12.879  11.819  1.00140.06     0.247 C 
HETATM   14  O25 MIQ B 502      -1.613  14.000  12.076  1.00143.95    -0.271 OA
HETATM   15  N20 MIQ B 502       0.012  12.418  12.008  1.00140.02    -0.296 N 
HETATM   16  H13 MIQ B 502       0.725  13.037  12.341  1.00142.77     0.171 HD
HETATM   17  C21 MIQ B 502       0.313  11.049  11.678  1.00142.22     0.224 C 
HETATM   18  C22 MIQ B 502      -0.458  10.443  10.520  1.00139.52     0.106 C 
HETATM   19  O24 MIQ B 502       1.116  10.429  12.283  1.00146.13    -0.273 OA
HETATM   20  C23 MIQ B 502      -1.930  10.582  10.862  1.00139.15     0.045 C 
ENDBRANCH  10  12
BRANCH   5  21
HETATM   21  N6  MIQ B 502      -4.526  15.661   5.053  1.00140.95    -0.377 N 
HETATM   22  C7  MIQ B 502      -4.882  14.962   3.831  1.00142.12     0.149 C 
HETATM   23  C8  MIQ B 502      -4.166  15.538   2.617  1.00144.10     0.187 C 
HETATM   24  O9  MIQ B 502      -4.242  16.931   2.551  1.00148.65    -0.388 OA
HETATM   25  C10 MIQ B 502      -4.731  17.665   3.636  1.00147.44     0.187 C 
HETATM   26  C11 MIQ B 502      -4.523  17.113   5.042  1.00144.08     0.149 C 
ENDBRANCH   5  21
TORSDOF 2
ENDMDL
