MODEL 1
REMARK VINA RESULT:      -6.6      0.000      0.000
REMARK  2 active torsions:
REMARK  status: ('A' for Active; 'I' for Inactive)
REMARK    1  A    between atoms: C5_5  and  N6_21 
REMARK    2  A    between atoms: C18_14  and  N17_19 
ROOT
HETATM    1  O1  MIQ B 502       0.348  14.743 -13.203  1.00142.91    -0.171 OA
HETATM    2  C2  MIQ B 502       0.825  15.112 -14.463  1.00141.17     0.195 A 
HETATM    3  C3  MIQ B 502       1.046  16.571 -14.975  1.00141.71     0.035 A 
HETATM    4  C4  MIQ B 502       0.849  17.906 -14.363  1.00142.86     0.046 A 
HETATM    5  C5  MIQ B 502       1.147  19.082 -15.098  1.00139.53     0.031 A 
HETATM    6  C12 MIQ B 502       1.650  18.975 -16.460  1.00139.38     0.030 A 
HETATM    7  C13 MIQ B 502       1.840  17.695 -17.046  1.00141.18     0.019 A 
HETATM    8  C14 MIQ B 502       1.527  16.464 -16.270  1.00138.77     0.033 A 
HETATM    9  C15 MIQ B 502       1.607  14.930 -16.563  1.00142.10     0.195 A 
HETATM   10  N17 MIQ B 502       1.186  14.326 -15.463  1.00139.42    -0.288 N 
HETATM   11  O16 MIQ B 502       2.032  14.326 -17.747  1.00148.93    -0.171 OA
ENDROOT
BRANCH  10  12
HETATM   12  C18 MIQ B 502       1.109  12.880 -15.376  1.00139.82     0.187 C 
HETATM   13  C19 MIQ B 502      -0.335  12.510 -15.012  1.00140.06     0.247 C 
HETATM   14  O25 MIQ B 502      -1.222  12.961 -15.646  1.00143.95    -0.271 OA
HETATM   15  N20 MIQ B 502      -0.640  11.616 -13.914  1.00140.02    -0.296 N 
HETATM   16  H13 MIQ B 502      -1.587  11.387 -13.683  1.00142.77     0.171 HD
HETATM   17  C21 MIQ B 502       0.459  11.086 -13.149  1.00142.22     0.224 C 
HETATM   18  C22 MIQ B 502       1.666  11.988 -12.978  1.00139.52     0.106 C 
HETATM   19  O24 MIQ B 502       0.422  10.000 -12.684  1.00146.13    -0.273 OA
HETATM   20  C23 MIQ B 502       2.135  12.352 -14.375  1.00139.15     0.045 C 
ENDBRANCH  10  12
BRANCH   5  21
HETATM   21  N6  MIQ B 502       0.936  20.384 -14.491  1.00140.95    -0.377 N 
HETATM   22  C7  MIQ B 502       1.412  20.604 -13.136  1.00142.12     0.149 C 
HETATM   23  C8  MIQ B 502       0.608  21.681 -12.419  1.00144.10     0.187 C 
HETATM   24  O9  MIQ B 502       0.438  22.835 -13.188  1.00148.65    -0.388 OA
HETATM   25  C10 MIQ B 502       0.787  22.842 -14.540  1.00147.44     0.187 C 
HETATM   26  C11 MIQ B 502       0.677  21.541 -15.329  1.00144.08     0.149 C 
ENDBRANCH   5  21
TORSDOF 2
ENDMDL
MODEL 2
REMARK VINA RESULT:      -6.3      1.634      2.108
REMARK  2 active torsions:
REMARK  status: ('A' for Active; 'I' for Inactive)
REMARK    1  A    between atoms: C5_5  and  N6_21 
REMARK    2  A    between atoms: C18_14  and  N17_19 
ROOT
HETATM    1  O1  MIQ B 502       0.702  14.910 -12.675  1.00142.91    -0.171 OA
HETATM    2  C2  MIQ B 502       1.144  15.123 -13.983  1.00141.17     0.195 A 
HETATM    3  C3  MIQ B 502       1.250  16.503 -14.707  1.00141.71     0.035 A 
HETATM    4  C4  MIQ B 502       0.955  17.896 -14.294  1.00142.86     0.046 A 
HETATM    5  C5  MIQ B 502       1.160  18.970 -15.197  1.00139.53     0.031 A 
HETATM    6  C12 MIQ B 502       1.663  18.701 -16.537  1.00139.38     0.030 A 
HETATM    7  C13 MIQ B 502       1.947  17.366 -16.932  1.00141.18     0.019 A 
HETATM    8  C14 MIQ B 502       1.733  16.243 -15.979  1.00138.77     0.033 A 
HETATM    9  C15 MIQ B 502       1.927  14.693 -16.045  1.00142.10     0.195 A 
HETATM   10  N17 MIQ B 502       1.559  14.228 -14.863  1.00139.42    -0.288 N 
HETATM   11  O16 MIQ B 502       2.392  13.955 -17.135  1.00148.93    -0.171 OA
ENDROOT
BRANCH  10  12
HETATM   12  C18 MIQ B 502       1.592  12.809 -14.563  1.00139.82     0.187 C 
HETATM   13  C19 MIQ B 502       3.002  12.297 -14.882  1.00140.06     0.247 C 
HETATM   14  O25 MIQ B 502       3.936  12.863 -14.435  1.00143.95    -0.271 OA
HETATM   15  N20 MIQ B 502       3.221  11.131 -15.713  1.00140.02    -0.296 N 
HETATM   16  H13 MIQ B 502       4.147  10.810 -15.920  1.00142.77     0.171 HD
HETATM   17  C21 MIQ B 502       2.066  10.463 -16.256  1.00142.22     0.224 C 
HETATM   18  C22 MIQ B 502       0.876  11.335 -16.606  1.00139.52     0.106 C 
HETATM   19  O24 MIQ B 502       2.048   9.292 -16.414  1.00146.13    -0.273 OA
HETATM   20  C23 MIQ B 502       0.497  12.077 -15.337  1.00139.15     0.045 C 
ENDBRANCH  10  12
BRANCH   5  21
HETATM   21  N6  MIQ B 502       0.853  20.327 -14.785  1.00140.95    -0.377 N 
HETATM   22  C7  MIQ B 502       1.424  20.822 -13.544  1.00142.12     0.149 C 
HETATM   23  C8  MIQ B 502       0.568  21.918 -12.921  1.00144.10     0.187 C 
HETATM   24  O9  MIQ B 502       0.191  22.900 -13.838  1.00148.65    -0.388 OA
HETATM   25  C10 MIQ B 502       0.409  22.713 -15.206  1.00147.44     0.187 C 
HETATM   26  C11 MIQ B 502       0.381  21.293 -15.761  1.00144.08     0.149 C 
ENDBRANCH   5  21
TORSDOF 2
ENDMDL
MODEL 3
REMARK VINA RESULT:      -6.1      1.815      2.059
REMARK  2 active torsions:
REMARK  status: ('A' for Active; 'I' for Inactive)
REMARK    1  A    between atoms: C5_5  and  N6_21 
REMARK    2  A    between atoms: C18_14  and  N17_19 
ROOT
HETATM    1  O1  MIQ B 502       2.457  14.164 -14.483  1.00142.91    -0.171 OA
HETATM    2  C2  MIQ B 502       2.052  14.649 -15.728  1.00141.17     0.195 A 
HETATM    3  C3  MIQ B 502       1.606  16.111 -16.048  1.00141.71     0.035 A 
HETATM    4  C4  MIQ B 502       1.479  17.340 -15.229  1.00142.86     0.046 A 
HETATM    5  C5  MIQ B 502       1.037  18.551 -15.819  1.00139.53     0.031 A 
HETATM    6  C12 MIQ B 502       0.707  18.587 -17.236  1.00139.38     0.030 A 
HETATM    7  C13 MIQ B 502       0.830  17.409 -18.022  1.00141.18     0.019 A 
HETATM    8  C14 MIQ B 502       1.297  16.141 -17.398  1.00138.77     0.033 A 
HETATM    9  C15 MIQ B 502       1.553  14.689 -17.920  1.00142.10     0.195 A 
HETATM   10  N17 MIQ B 502       1.968  13.994 -16.874  1.00139.42    -0.288 N 
HETATM   11  O16 MIQ B 502       1.376  14.226 -19.224  1.00148.93    -0.171 OA
ENDROOT
BRANCH  10  12
HETATM   12  C18 MIQ B 502       2.290  12.583 -16.982  1.00139.82     0.187 C 
HETATM   13  C19 MIQ B 502       1.489  11.837 -15.908  1.00140.06     0.247 C 
HETATM   14  O25 MIQ B 502       0.327  12.018 -15.826  1.00143.95    -0.271 OA
HETATM   15  N20 MIQ B 502       2.121  10.909 -14.991  1.00140.02    -0.296 N 
HETATM   16  H13 MIQ B 502       1.588  10.433 -14.290  1.00142.77     0.171 HD
HETATM   17  C21 MIQ B 502       3.543  10.713 -15.103  1.00142.22     0.224 C 
HETATM   18  C22 MIQ B 502       4.365  11.913 -15.531  1.00139.52     0.106 C 
HETATM   19  O24 MIQ B 502       4.042   9.665 -14.878  1.00146.13    -0.273 OA
HETATM   20  C23 MIQ B 502       3.799  12.372 -16.863  1.00139.15     0.045 C 
ENDBRANCH  10  12
BRANCH   5  21
HETATM   21  N6  MIQ B 502       0.902  19.743 -15.001  1.00140.95    -0.377 N 
HETATM   22  C7  MIQ B 502       1.476  19.739 -13.667  1.00142.12     0.149 C 
HETATM   23  C8  MIQ B 502       0.753  20.701 -12.733  1.00144.10     0.187 C 
HETATM   24  O9  MIQ B 502       0.561  21.964 -13.297  1.00148.65    -0.388 OA
HETATM   25  C10 MIQ B 502       0.817  22.180 -14.653  1.00147.44     0.187 C 
HETATM   26  C11 MIQ B 502       0.618  21.023 -15.626  1.00144.08     0.149 C 
ENDBRANCH   5  21
TORSDOF 2
ENDMDL
MODEL 4
REMARK VINA RESULT:      -6.0      2.826      8.159
REMARK  2 active torsions:
REMARK  status: ('A' for Active; 'I' for Inactive)
REMARK    1  A    between atoms: C5_5  and  N6_21 
REMARK    2  A    between atoms: C18_14  and  N17_19 
ROOT
HETATM    1  O1  MIQ B 502       1.911  16.604 -16.545  1.00142.91    -0.171 OA
HETATM    2  C2  MIQ B 502       1.423  15.794 -15.517  1.00141.17     0.195 A 
HETATM    3  C3  MIQ B 502       1.849  14.321 -15.221  1.00141.71     0.035 A 
HETATM    4  C4  MIQ B 502       2.810  13.391 -15.860  1.00142.86     0.046 A 
HETATM    5  C5  MIQ B 502       2.985  12.079 -15.351  1.00139.53     0.031 A 
HETATM    6  C12 MIQ B 502       2.215  11.645 -14.193  1.00139.38     0.030 A 
HETATM    7  C13 MIQ B 502       1.295  12.537 -13.580  1.00141.18     0.019 A 
HETATM    8  C14 MIQ B 502       1.117  13.914 -14.118  1.00138.77     0.033 A 
HETATM    9  C15 MIQ B 502       0.232  15.142 -13.725  1.00142.10     0.195 A 
HETATM   10  N17 MIQ B 502       0.524  16.095 -14.595  1.00139.42    -0.288 N 
HETATM   11  O16 MIQ B 502      -0.681  15.211 -12.672  1.00148.93    -0.171 OA
ENDROOT
BRANCH  10  12
HETATM   12  C18 MIQ B 502      -0.127  17.391 -14.545  1.00139.82     0.187 C 
HETATM   13  C19 MIQ B 502      -0.636  17.712 -15.956  1.00140.06     0.247 C 
HETATM   14  O25 MIQ B 502      -1.288  16.914 -16.529  1.00143.95    -0.271 OA
HETATM   15  N20 MIQ B 502      -0.344  18.975 -16.604  1.00140.02    -0.296 N 
HETATM   16  H13 MIQ B 502      -0.677  19.170 -17.527  1.00142.77     0.171 HD
HETATM   17  C21 MIQ B 502       0.462  19.930 -15.887  1.00142.22     0.224 C 
HETATM   18  C22 MIQ B 502       1.535  19.367 -14.976  1.00139.52     0.106 C 
HETATM   19  O24 MIQ B 502       0.290  21.093 -16.002  1.00146.13    -0.273 OA
HETATM   20  C23 MIQ B 502       0.830  18.447 -13.996  1.00139.15     0.045 C 
ENDBRANCH  10  12
BRANCH   5  21
HETATM   21  N6  MIQ B 502       3.919  11.174 -15.995  1.00140.95    -0.377 N 
HETATM   22  C7  MIQ B 502       4.091  11.263 -17.435  1.00142.12     0.149 C 
HETATM   23  C8  MIQ B 502       4.540   9.938 -18.037  1.00144.10     0.187 C 
HETATM   24  O9  MIQ B 502       5.603   9.358 -17.343  1.00148.65    -0.388 OA
HETATM   25  C10 MIQ B 502       6.005   9.870 -16.107  1.00147.44     0.187 C 
HETATM   26  C11 MIQ B 502       4.957  10.526 -15.214  1.00144.08     0.149 C 
ENDBRANCH   5  21
TORSDOF 2
ENDMDL
MODEL 5
REMARK VINA RESULT:      -6.0     13.903     16.387
REMARK  2 active torsions:
REMARK  status: ('A' for Active; 'I' for Inactive)
REMARK    1  A    between atoms: C5_5  and  N6_21 
REMARK    2  A    between atoms: C18_14  and  N17_19 
ROOT
HETATM    1  O1  MIQ B 502       8.379  21.672 -27.202  1.00142.91    -0.171 OA
HETATM    2  C2  MIQ B 502       9.547  22.393 -26.946  1.00141.17     0.195 A 
HETATM    3  C3  MIQ B 502       9.785  23.372 -25.753  1.00141.71     0.035 A 
HETATM    4  C4  MIQ B 502       8.945  23.814 -24.614  1.00142.86     0.046 A 
HETATM    5  C5  MIQ B 502       9.452  24.737 -23.665  1.00139.53     0.031 A 
HETATM    6  C12 MIQ B 502      10.805  25.252 -23.810  1.00139.38     0.030 A 
HETATM    7  C13 MIQ B 502      11.612  24.828 -24.901  1.00141.18     0.019 A 
HETATM    8  C14 MIQ B 502      11.075  23.857 -25.893  1.00138.77     0.033 A 
HETATM    9  C15 MIQ B 502      11.642  23.175 -27.181  1.00142.10     0.195 A 
HETATM   10  N17 MIQ B 502      10.674  22.397 -27.638  1.00139.42    -0.288 N 
HETATM   11  O16 MIQ B 502      12.911  23.355 -27.733  1.00148.93    -0.171 OA
ENDROOT
BRANCH  10  12
HETATM   12  C18 MIQ B 502      10.841  21.611 -28.846  1.00139.82     0.187 C 
HETATM   13  C19 MIQ B 502       9.680  21.949 -29.788  1.00140.06     0.247 C 
HETATM   14  O25 MIQ B 502       9.443  23.079 -30.028  1.00143.95    -0.271 OA
HETATM   15  N20 MIQ B 502       8.867  20.917 -30.399  1.00140.02    -0.296 N 
HETATM   16  H13 MIQ B 502       8.107  21.151 -31.007  1.00142.77     0.171 HD
HETATM   17  C21 MIQ B 502       9.169  19.545 -30.083  1.00142.22     0.224 C 
HETATM   18  C22 MIQ B 502       9.687  19.266 -28.685  1.00139.52     0.106 C 
HETATM   19  O24 MIQ B 502       9.025  18.682 -30.877  1.00146.13    -0.273 OA
HETATM   20  C23 MIQ B 502      10.926  20.124 -28.505  1.00139.15     0.045 C 
ENDBRANCH  10  12
BRANCH   5  21
HETATM   21  N6  MIQ B 502       8.613  25.172 -22.563  1.00140.95    -0.377 N 
HETATM   22  C7  MIQ B 502       7.487  24.339 -22.176  1.00142.12     0.149 C 
HETATM   23  C8  MIQ B 502       6.377  25.151 -21.521  1.00144.10     0.187 C 
HETATM   24  O9  MIQ B 502       6.849  26.015 -20.531  1.00148.65    -0.388 OA
HETATM   25  C10 MIQ B 502       8.220  26.233 -20.375  1.00147.44     0.187 C 
HETATM   26  C11 MIQ B 502       9.117  26.140 -21.605  1.00144.08     0.149 C 
ENDBRANCH   5  21
TORSDOF 2
ENDMDL
MODEL 6
REMARK VINA RESULT:      -5.9     15.210     18.237
REMARK  2 active torsions:
REMARK  status: ('A' for Active; 'I' for Inactive)
REMARK    1  A    between atoms: C5_5  and  N6_21 
REMARK    2  A    between atoms: C18_14  and  N17_19 
ROOT
HETATM    1  O1  MIQ B 502       9.549  27.163  -2.925  1.00142.91    -0.171 OA
HETATM    2  C2  MIQ B 502      10.514  27.271  -3.929  1.00141.17     0.195 A 
HETATM    3  C3  MIQ B 502      10.265  27.729  -5.402  1.00141.71     0.035 A 
HETATM    4  C4  MIQ B 502       9.056  28.158  -6.145  1.00142.86     0.046 A 
HETATM    5  C5  MIQ B 502       9.148  28.526  -7.511  1.00139.53     0.031 A 
HETATM    6  C12 MIQ B 502      10.437  28.481  -8.186  1.00139.38     0.030 A 
HETATM    7  C13 MIQ B 502      11.596  28.071  -7.474  1.00141.18     0.019 A 
HETATM    8  C14 MIQ B 502      11.494  27.688  -6.039  1.00138.77     0.033 A 
HETATM    9  C15 MIQ B 502      12.512  27.203  -4.956  1.00142.10     0.195 A 
HETATM   10  N17 MIQ B 502      11.809  27.021  -3.850  1.00139.42    -0.288 N 
HETATM   11  O16 MIQ B 502      13.883  27.002  -5.127  1.00148.93    -0.171 OA
ENDROOT
BRANCH  10  12
HETATM   12  C18 MIQ B 502      12.431  26.550  -2.626  1.00139.82     0.187 C 
HETATM   13  C19 MIQ B 502      11.674  25.298  -2.168  1.00140.06     0.247 C 
HETATM   14  O25 MIQ B 502      11.494  24.421  -2.935  1.00143.95    -0.271 OA
HETATM   15  N20 MIQ B 502      11.177  25.159  -0.814  1.00140.02    -0.296 N 
HETATM   16  H13 MIQ B 502      10.678  24.339  -0.529  1.00142.77     0.171 HD
HETATM   17  C21 MIQ B 502      11.400  26.248   0.102  1.00142.22     0.224 C 
HETATM   18  C22 MIQ B 502      11.391  27.646  -0.487  1.00139.52     0.106 C 
HETATM   19  O24 MIQ B 502      11.586  26.059   1.253  1.00146.13    -0.273 OA
HETATM   20  C23 MIQ B 502      12.447  27.661  -1.577  1.00139.15     0.045 C 
ENDBRANCH  10  12
BRANCH   5  21
HETATM   21  N6  MIQ B 502       7.954  28.930  -8.231  1.00140.95    -0.377 N 
HETATM   22  C7  MIQ B 502       6.681  28.343  -7.849  1.00142.12     0.149 C 
HETATM   23  C8  MIQ B 502       5.693  28.325  -9.008  1.00144.10     0.187 C 
HETATM   24  O9  MIQ B 502       5.610  29.551  -9.671  1.00148.65    -0.388 OA
HETATM   25  C10 MIQ B 502       6.532  30.566  -9.400  1.00147.44     0.187 C 
HETATM   26  C11 MIQ B 502       7.944  30.175  -8.978  1.00144.08     0.149 C 
ENDBRANCH   5  21
TORSDOF 2
ENDMDL
MODEL 7
REMARK VINA RESULT:      -5.8     13.878     16.792
REMARK  2 active torsions:
REMARK  status: ('A' for Active; 'I' for Inactive)
REMARK    1  A    between atoms: C5_5  and  N6_21 
REMARK    2  A    between atoms: C18_14  and  N17_19 
ROOT
HETATM    1  O1  MIQ B 502       9.250  22.083 -22.850  1.00142.91    -0.171 OA
HETATM    2  C2  MIQ B 502       8.939  23.034 -23.824  1.00141.17     0.195 A 
HETATM    3  C3  MIQ B 502       9.059  22.844 -25.370  1.00141.71     0.035 A 
HETATM    4  C4  MIQ B 502       9.491  21.715 -26.227  1.00142.86     0.046 A 
HETATM    5  C5  MIQ B 502       9.489  21.846 -27.639  1.00139.53     0.031 A 
HETATM    6  C12 MIQ B 502       9.060  23.096 -28.248  1.00139.38     0.030 A 
HETATM    7  C13 MIQ B 502       8.644  24.178 -27.427  1.00141.18     0.019 A 
HETATM    8  C14 MIQ B 502       8.645  24.035 -25.945  1.00138.77     0.033 A 
HETATM    9  C15 MIQ B 502       8.267  24.969 -24.750  1.00142.10     0.195 A 
HETATM   10  N17 MIQ B 502       8.484  24.264 -23.652  1.00139.42    -0.288 N 
HETATM   11  O16 MIQ B 502       7.798  26.281 -24.831  1.00148.93    -0.171 OA
ENDROOT
BRANCH  10  12
HETATM   12  C18 MIQ B 502       8.253  24.824 -22.334  1.00139.82     0.187 C 
HETATM   13  C19 MIQ B 502       6.865  25.477 -22.339  1.00140.06     0.247 C 
HETATM   14  O25 MIQ B 502       5.938  24.855 -22.722  1.00143.95    -0.271 OA
HETATM   15  N20 MIQ B 502       6.658  26.835 -21.882  1.00140.02    -0.296 N 
HETATM   16  H13 MIQ B 502       5.748  27.252 -21.897  1.00142.77     0.171 HD
HETATM   17  C21 MIQ B 502       7.807  27.577 -21.429  1.00142.22     0.224 C 
HETATM   18  C22 MIQ B 502       9.123  27.285 -22.123  1.00139.52     0.106 C 
HETATM   19  O24 MIQ B 502       7.726  28.369 -20.556  1.00146.13    -0.273 OA
HETATM   20  C23 MIQ B 502       9.373  25.796 -21.966  1.00139.15     0.045 C 
ENDBRANCH  10  12
BRANCH   5  21
HETATM   21  N6  MIQ B 502       9.930  20.737 -28.466  1.00140.95    -0.377 N 
HETATM   22  C7  MIQ B 502       9.073  20.300 -29.555  1.00142.12     0.149 C 
HETATM   23  C8  MIQ B 502       9.292  18.832 -29.897  1.00144.10     0.187 C 
HETATM   24  O9  MIQ B 502      10.642  18.499 -30.028  1.00148.65    -0.388 OA
HETATM   25  C10 MIQ B 502      11.634  19.404 -29.643  1.00147.44     0.187 C 
HETATM   26  C11 MIQ B 502      11.335  20.373 -28.504  1.00144.08     0.149 C 
ENDBRANCH   5  21
TORSDOF 2
ENDMDL
MODEL 8
REMARK VINA RESULT:      -5.7      2.942      9.054
REMARK  2 active torsions:
REMARK  status: ('A' for Active; 'I' for Inactive)
REMARK    1  A    between atoms: C5_5  and  N6_21 
REMARK    2  A    between atoms: C18_14  and  N17_19 
ROOT
HETATM    1  O1  MIQ B 502       1.817  12.888 -12.363  1.00142.91    -0.171 OA
HETATM    2  C2  MIQ B 502       0.758  12.943 -13.272  1.00141.17     0.195 A 
HETATM    3  C3  MIQ B 502      -0.267  11.801 -13.563  1.00141.71     0.035 A 
HETATM    4  C4  MIQ B 502      -0.444  10.429 -13.029  1.00142.86     0.046 A 
HETATM    5  C5  MIQ B 502      -1.498   9.607 -13.501  1.00139.53     0.031 A 
HETATM    6  C12 MIQ B 502      -2.412  10.114 -14.514  1.00139.38     0.030 A 
HETATM    7  C13 MIQ B 502      -2.244  11.430 -15.025  1.00141.18     0.019 A 
HETATM    8  C14 MIQ B 502      -1.136  12.289 -14.525  1.00138.77     0.033 A 
HETATM    9  C15 MIQ B 502      -0.648  13.742 -14.832  1.00142.10     0.195 A 
HETATM   10  N17 MIQ B 502       0.403  13.946 -14.056  1.00139.42    -0.288 N 
HETATM   11  O16 MIQ B 502      -1.210  14.637 -15.744  1.00148.93    -0.171 OA
ENDROOT
BRANCH  10  12
HETATM   12  C18 MIQ B 502       1.134  15.199 -14.084  1.00139.82     0.187 C 
HETATM   13  C19 MIQ B 502       0.110  16.340 -14.036  1.00140.06     0.247 C 
HETATM   14  O25 MIQ B 502      -0.720  16.333 -13.197  1.00143.95    -0.271 OA
HETATM   15  N20 MIQ B 502       0.135  17.430 -14.989  1.00140.02    -0.296 N 
HETATM   16  H13 MIQ B 502      -0.543  18.165 -14.950  1.00142.77     0.171 HD
HETATM   17  C21 MIQ B 502       1.151  17.411 -16.009  1.00142.22     0.224 C 
HETATM   18  C22 MIQ B 502       1.576  16.048 -16.522  1.00139.52     0.106 C 
HETATM   19  O24 MIQ B 502       1.633  18.408 -16.421  1.00146.13    -0.273 OA
HETATM   20  C23 MIQ B 502       2.041  15.258 -15.313  1.00139.15     0.045 C 
ENDBRANCH  10  12
BRANCH   5  21
HETATM   21  N6  MIQ B 502      -1.650   8.261 -12.980  1.00140.95    -0.377 N 
HETATM   22  C7  MIQ B 502      -2.757   7.452 -13.460  1.00142.12     0.149 C 
HETATM   23  C8  MIQ B 502      -3.181   6.404 -12.438  1.00144.10     0.187 C 
HETATM   24  O9  MIQ B 502      -2.102   5.689 -11.914  1.00148.65    -0.388 OA
HETATM   25  C10 MIQ B 502      -0.791   6.101 -12.165  1.00147.44     0.187 C 
HETATM   26  C11 MIQ B 502      -0.519   7.588 -12.365  1.00144.08     0.149 C 
ENDBRANCH   5  21
TORSDOF 2
ENDMDL
MODEL 9
REMARK VINA RESULT:      -5.5      4.196      8.893
REMARK  2 active torsions:
REMARK  status: ('A' for Active; 'I' for Inactive)
REMARK    1  A    between atoms: C5_5  and  N6_21 
REMARK    2  A    between atoms: C18_14  and  N17_19 
ROOT
HETATM    1  O1  MIQ B 502       0.599  11.905 -13.863  1.00142.91    -0.171 OA
HETATM    2  C2  MIQ B 502      -0.565  12.635 -13.612  1.00141.17     0.195 A 
HETATM    3  C3  MIQ B 502      -2.028  12.093 -13.692  1.00141.71     0.035 A 
HETATM    4  C4  MIQ B 502      -2.608  10.769 -14.021  1.00142.86     0.046 A 
HETATM    5  C5  MIQ B 502      -4.013  10.579 -14.007  1.00139.53     0.031 A 
HETATM    6  C12 MIQ B 502      -4.889  11.691 -13.668  1.00139.38     0.030 A 
HETATM    7  C13 MIQ B 502      -4.333  12.960 -13.352  1.00141.18     0.019 A 
HETATM    8  C14 MIQ B 502      -2.858  13.153 -13.365  1.00138.77     0.033 A 
HETATM    9  C15 MIQ B 502      -1.904  14.359 -13.080  1.00142.10     0.195 A 
HETATM   10  N17 MIQ B 502      -0.675  13.904 -13.258  1.00139.42    -0.288 N 
HETATM   11  O16 MIQ B 502      -2.280  15.653 -12.715  1.00148.93    -0.171 OA
ENDROOT
BRANCH  10  12
HETATM   12  C18 MIQ B 502       0.482  14.763 -13.093  1.00139.82     0.187 C 
HETATM   13  C19 MIQ B 502       1.334  14.649 -14.364  1.00140.06     0.247 C 
HETATM   14  O25 MIQ B 502       0.822  14.798 -15.416  1.00143.95    -0.271 OA
HETATM   15  N20 MIQ B 502       2.754  14.370 -14.308  1.00140.02    -0.296 N 
HETATM   16  H13 MIQ B 502       3.298  14.292 -15.145  1.00142.77     0.171 HD
HETATM   17  C21 MIQ B 502       3.355  14.181 -13.013  1.00142.22     0.224 C 
HETATM   18  C22 MIQ B 502       2.491  13.531 -11.950  1.00139.52     0.106 C 
HETATM   19  O24 MIQ B 502       4.464  14.522 -12.791  1.00146.13    -0.273 OA
HETATM   20  C23 MIQ B 502       1.245  14.389 -11.823  1.00139.15     0.045 C 
ENDBRANCH  10  12
BRANCH   5  21
HETATM   21  N6  MIQ B 502      -4.568   9.281 -14.346  1.00140.95    -0.377 N 
HETATM   22  C7  MIQ B 502      -5.623   8.737 -13.508  1.00142.12     0.149 C 
HETATM   23  C8  MIQ B 502      -5.653   7.215 -13.549  1.00144.10     0.187 C 
HETATM   24  O9  MIQ B 502      -5.599   6.705 -14.848  1.00148.65    -0.388 OA
HETATM   25  C10 MIQ B 502      -5.311   7.545 -15.927  1.00147.44     0.187 C 
HETATM   26  C11 MIQ B 502      -4.411   8.753 -15.690  1.00144.08     0.149 C 
ENDBRANCH   5  21
TORSDOF 2
ENDMDL
