MODEL 1
REMARK VINA RESULT:      -7.6      0.000      0.000
REMARK  2 active torsions:
REMARK  status: ('A' for Active; 'I' for Inactive)
REMARK    1  A    between atoms: C5_5  and  N6_21 
REMARK    2  A    between atoms: C18_14  and  N17_19 
ROOT
HETATM    1  O1  MIQ B 502       8.432  -0.611 -17.349  1.00142.91    -0.171 OA
HETATM    2  C2  MIQ B 502       9.268  -1.699 -17.610  1.00141.17     0.195 A 
HETATM    3  C3  MIQ B 502       9.953  -2.028 -18.974  1.00141.71     0.035 A 
HETATM    4  C4  MIQ B 502       9.951  -1.369 -20.302  1.00142.86     0.046 A 
HETATM    5  C5  MIQ B 502      10.693  -1.920 -21.377  1.00139.53     0.031 A 
HETATM    6  C12 MIQ B 502      11.461  -3.140 -21.175  1.00139.38     0.030 A 
HETATM    7  C13 MIQ B 502      11.464  -3.772 -19.902  1.00141.18     0.019 A 
HETATM    8  C14 MIQ B 502      10.686  -3.188 -18.776  1.00138.77     0.033 A 
HETATM    9  C15 MIQ B 502      10.454  -3.579 -17.280  1.00142.10     0.195 A 
HETATM   10  N17 MIQ B 502       9.651  -2.654 -16.781  1.00139.42    -0.288 N 
HETATM   11  O16 MIQ B 502      10.986  -4.684 -16.614  1.00148.93    -0.171 OA
ENDROOT
BRANCH  10  12
HETATM   12  C18 MIQ B 502       9.204  -2.704 -15.401  1.00139.82     0.187 C 
HETATM   13  C19 MIQ B 502       7.683  -2.512 -15.395  1.00140.06     0.247 C 
HETATM   14  O25 MIQ B 502       7.015  -3.182 -16.100  1.00143.95    -0.271 OA
HETATM   15  N20 MIQ B 502       7.040  -1.532 -14.544  1.00140.02    -0.296 N 
HETATM   16  H13 MIQ B 502       6.046  -1.412 -14.554  1.00142.77     0.171 HD
HETATM   17  C21 MIQ B 502       7.877  -0.718 -13.701  1.00142.22     0.224 C 
HETATM   18  C22 MIQ B 502       9.245  -0.354 -14.247  1.00139.52     0.106 C 
HETATM   19  O24 MIQ B 502       7.516  -0.358 -12.635  1.00146.13    -0.273 OA
HETATM   20  C23 MIQ B 502       9.945  -1.663 -14.564  1.00139.15     0.045 C 
ENDBRANCH  10  12
BRANCH   5  21
HETATM   21  N6  MIQ B 502      10.669  -1.272 -22.676  1.00140.95    -0.377 N 
HETATM   22  C7  MIQ B 502      11.907  -0.718 -23.198  1.00142.12     0.149 C 
HETATM   23  C8  MIQ B 502      11.652   0.431 -24.165  1.00144.10     0.187 C 
HETATM   24  O9  MIQ B 502      10.682   0.130 -25.123  1.00148.65    -0.388 OA
HETATM   25  C10 MIQ B 502       9.903  -1.023 -25.003  1.00147.44     0.187 C 
HETATM   26  C11 MIQ B 502       9.590  -1.551 -23.607  1.00144.08     0.149 C 
ENDBRANCH   5  21
TORSDOF 2
ENDMDL
MODEL 2
REMARK VINA RESULT:      -7.1      1.788      7.897
REMARK  2 active torsions:
REMARK  status: ('A' for Active; 'I' for Inactive)
REMARK    1  A    between atoms: C5_5  and  N6_21 
REMARK    2  A    between atoms: C18_14  and  N17_19 
ROOT
HETATM    1  O1  MIQ B 502       9.849   0.012 -20.680  1.00142.91    -0.171 OA
HETATM    2  C2  MIQ B 502      10.238  -1.277 -20.308  1.00141.17     0.195 A 
HETATM    3  C3  MIQ B 502       9.995  -1.949 -18.919  1.00141.71     0.035 A 
HETATM    4  C4  MIQ B 502       9.338  -1.497 -17.669  1.00142.86     0.046 A 
HETATM    5  C5  MIQ B 502       9.270  -2.358 -16.544  1.00139.53     0.031 A 
HETATM    6  C12 MIQ B 502       9.847  -3.692 -16.619  1.00139.38     0.030 A 
HETATM    7  C13 MIQ B 502      10.475  -4.126 -17.818  1.00141.18     0.019 A 
HETATM    8  C14 MIQ B 502      10.542  -3.219 -18.996  1.00138.77     0.033 A 
HETATM    9  C15 MIQ B 502      11.128  -3.336 -20.441  1.00142.10     0.195 A 
HETATM   10  N17 MIQ B 502      10.874  -2.181 -21.033  1.00139.42    -0.288 N 
HETATM   11  O16 MIQ B 502      11.787  -4.438 -20.989  1.00148.93    -0.171 OA
ENDROOT
BRANCH  10  12
HETATM   12  C18 MIQ B 502      11.293  -1.920 -22.397  1.00139.82     0.187 C 
HETATM   13  C19 MIQ B 502      12.101  -0.617 -22.398  1.00140.06     0.247 C 
HETATM   14  O25 MIQ B 502      12.990  -0.490 -21.632  1.00143.95    -0.271 OA
HETATM   15  N20 MIQ B 502      11.808   0.463 -23.317  1.00140.02    -0.296 N 
HETATM   16  H13 MIQ B 502      12.338   1.312 -23.303  1.00142.77     0.171 HD
HETATM   17  C21 MIQ B 502      10.712   0.289 -24.235  1.00142.22     0.224 C 
HETATM   18  C22 MIQ B 502       9.531  -0.524 -23.740  1.00139.52     0.106 C 
HETATM   19  O24 MIQ B 502      10.736   0.752 -25.322  1.00146.13    -0.273 OA
HETATM   20  C23 MIQ B 502      10.081  -1.877 -23.327  1.00139.15     0.045 C 
ENDBRANCH  10  12
BRANCH   5  21
HETATM   21  N6  MIQ B 502       8.637  -1.897 -15.322  1.00140.95    -0.377 N 
HETATM   22  C7  MIQ B 502       9.148  -2.380 -14.051  1.00142.12     0.149 C 
HETATM   23  C8  MIQ B 502       8.078  -2.370 -12.967  1.00144.10     0.187 C 
HETATM   24  O9  MIQ B 502       7.375  -1.165 -12.908  1.00148.65    -0.388 OA
HETATM   25  C10 MIQ B 502       7.527  -0.208 -13.914  1.00147.44     0.187 C 
HETATM   26  C11 MIQ B 502       7.843  -0.681 -15.329  1.00144.08     0.149 C 
ENDBRANCH   5  21
TORSDOF 2
ENDMDL
MODEL 3
REMARK VINA RESULT:      -6.9      2.120      7.838
REMARK  2 active torsions:
REMARK  status: ('A' for Active; 'I' for Inactive)
REMARK    1  A    between atoms: C5_5  and  N6_21 
REMARK    2  A    between atoms: C18_14  and  N17_19 
ROOT
HETATM    1  O1  MIQ B 502       8.517   0.191 -20.883  1.00142.91    -0.171 OA
HETATM    2  C2  MIQ B 502       9.513  -0.784 -20.966  1.00141.17     0.195 A 
HETATM    3  C3  MIQ B 502       9.944  -1.761 -19.826  1.00141.71     0.035 A 
HETATM    4  C4  MIQ B 502       9.490  -1.963 -18.430  1.00142.86     0.046 A 
HETATM    5  C5  MIQ B 502      10.089  -2.958 -17.618  1.00139.53     0.031 A 
HETATM    6  C12 MIQ B 502      11.156  -3.787 -18.159  1.00139.38     0.030 A 
HETATM    7  C13 MIQ B 502      11.592  -3.595 -19.498  1.00141.18     0.019 A 
HETATM    8  C14 MIQ B 502      10.957  -2.550 -20.347  1.00138.77     0.033 A 
HETATM    9  C15 MIQ B 502      11.156  -2.059 -21.819  1.00142.10     0.195 A 
HETATM   10  N17 MIQ B 502      10.280  -1.084 -22.000  1.00139.42    -0.288 N 
HETATM   11  O16 MIQ B 502      12.074  -2.552 -22.747  1.00148.93    -0.171 OA
ENDROOT
BRANCH  10  12
HETATM   12  C18 MIQ B 502      10.189  -0.374 -23.261  1.00139.82     0.187 C 
HETATM   13  C19 MIQ B 502      10.269   1.128 -22.960  1.00140.06     0.247 C 
HETATM   14  O25 MIQ B 502      11.150   1.534 -22.289  1.00143.95    -0.271 OA
HETATM   15  N20 MIQ B 502       9.295   2.065 -23.481  1.00140.02    -0.296 N 
HETATM   16  H13 MIQ B 502       9.355   3.042 -23.271  1.00142.77     0.171 HD
HETATM   17  C21 MIQ B 502       8.223   1.544 -24.289  1.00142.22     0.224 C 
HETATM   18  C22 MIQ B 502       7.715   0.159 -23.936  1.00139.52     0.106 C 
HETATM   19  O24 MIQ B 502       7.766   2.164 -25.185  1.00146.13    -0.273 OA
HETATM   20  C23 MIQ B 502       8.913  -0.770 -24.003  1.00139.15     0.045 C 
ENDBRANCH  10  12
BRANCH   5  21
HETATM   21  N6  MIQ B 502       9.644  -3.134 -16.247  1.00140.95    -0.377 N 
HETATM   22  C7  MIQ B 502       8.241  -3.425 -16.004  1.00142.12     0.149 C 
HETATM   23  C8  MIQ B 502       7.794  -2.957 -14.625  1.00144.10     0.187 C 
HETATM   24  O9  MIQ B 502       8.669  -3.347 -13.609  1.00148.65    -0.388 OA
HETATM   25  C10 MIQ B 502       9.916  -3.896 -13.921  1.00147.44     0.187 C 
HETATM   26  C11 MIQ B 502      10.606  -3.456 -15.207  1.00144.08     0.149 C 
ENDBRANCH   5  21
TORSDOF 2
ENDMDL
MODEL 4
REMARK VINA RESULT:      -6.8      4.113      7.952
REMARK  2 active torsions:
REMARK  status: ('A' for Active; 'I' for Inactive)
REMARK    1  A    between atoms: C5_5  and  N6_21 
REMARK    2  A    between atoms: C18_14  and  N17_19 
ROOT
HETATM    1  O1  MIQ B 502      12.015   0.315 -19.657  1.00142.91    -0.171 OA
HETATM    2  C2  MIQ B 502      12.093  -1.077 -19.567  1.00141.17     0.195 A 
HETATM    3  C3  MIQ B 502      12.699  -1.891 -18.380  1.00141.71     0.035 A 
HETATM    4  C4  MIQ B 502      13.323  -1.505 -17.092  1.00142.86     0.046 A 
HETATM    5  C5  MIQ B 502      13.789  -2.498 -16.195  1.00139.53     0.031 A 
HETATM    6  C12 MIQ B 502      13.654  -3.906 -16.542  1.00139.38     0.030 A 
HETATM    7  C13 MIQ B 502      13.055  -4.277 -17.776  1.00141.18     0.019 A 
HETATM    8  C14 MIQ B 502      12.565  -3.229 -18.713  1.00138.77     0.033 A 
HETATM    9  C15 MIQ B 502      11.871  -3.246 -20.114  1.00142.10     0.195 A 
HETATM   10  N17 MIQ B 502      11.678  -1.978 -20.440  1.00139.42    -0.288 N 
HETATM   11  O16 MIQ B 502      11.530  -4.372 -20.865  1.00148.93    -0.171 OA
ENDROOT
BRANCH  10  12
HETATM   12  C18 MIQ B 502      11.062  -1.606 -21.700  1.00139.82     0.187 C 
HETATM   13  C19 MIQ B 502      12.029  -0.670 -22.435  1.00140.06     0.247 C 
HETATM   14  O25 MIQ B 502      13.153  -0.998 -22.575  1.00143.95    -0.271 OA
HETATM   15  N20 MIQ B 502      11.599   0.605 -22.970  1.00140.02    -0.296 N 
HETATM   16  H13 MIQ B 502      12.242   1.210 -23.442  1.00142.77     0.171 HD
HETATM   17  C21 MIQ B 502      10.224   0.988 -22.778  1.00142.22     0.224 C 
HETATM   18  C22 MIQ B 502       9.562   0.530 -21.492  1.00139.52     0.106 C 
HETATM   19  O24 MIQ B 502       9.641   1.623 -23.586  1.00146.13    -0.273 OA
HETATM   20  C23 MIQ B 502       9.689  -0.982 -21.457  1.00139.15     0.045 C 
ENDBRANCH  10  12
BRANCH   5  21
HETATM   21  N6  MIQ B 502      14.411  -2.105 -14.944  1.00140.95    -0.377 N 
HETATM   22  C7  MIQ B 502      15.457  -2.949 -14.392  1.00142.12     0.149 C 
HETATM   23  C8  MIQ B 502      15.554  -2.819 -12.878  1.00144.10     0.187 C 
HETATM   24  O9  MIQ B 502      15.570  -1.491 -12.447  1.00148.65    -0.388 OA
HETATM   25  C10 MIQ B 502      15.285  -0.454 -13.339  1.00147.44     0.187 C 
HETATM   26  C11 MIQ B 502      14.327  -0.727 -14.493  1.00144.08     0.149 C 
ENDBRANCH   5  21
TORSDOF 2
ENDMDL
MODEL 5
REMARK VINA RESULT:      -6.8     13.089     15.742
REMARK  2 active torsions:
REMARK  status: ('A' for Active; 'I' for Inactive)
REMARK    1  A    between atoms: C5_5  and  N6_21 
REMARK    2  A    between atoms: C18_14  and  N17_19 
ROOT
HETATM    1  O1  MIQ B 502      16.562 -10.706 -19.593  1.00142.91    -0.171 OA
HETATM    2  C2  MIQ B 502      17.234 -11.924 -19.716  1.00141.17     0.195 A 
HETATM    3  C3  MIQ B 502      18.466 -12.386 -18.874  1.00141.71     0.035 A 
HETATM    4  C4  MIQ B 502      19.247 -11.758 -17.782  1.00142.86     0.046 A 
HETATM    5  C5  MIQ B 502      20.342 -12.444 -17.198  1.00139.53     0.031 A 
HETATM    6  C12 MIQ B 502      20.700 -13.772 -17.675  1.00139.38     0.030 A 
HETATM    7  C13 MIQ B 502      19.951 -14.375 -18.722  1.00141.18     0.019 A 
HETATM    8  C14 MIQ B 502      18.801 -13.651 -19.329  1.00138.77     0.033 A 
HETATM    9  C15 MIQ B 502      17.770 -13.976 -20.459  1.00142.10     0.195 A 
HETATM   10  N17 MIQ B 502      16.976 -12.921 -20.544  1.00139.42    -0.288 N 
HETATM   11  O16 MIQ B 502      17.708 -15.143 -21.222  1.00148.93    -0.171 OA
ENDROOT
BRANCH  10  12
HETATM   12  C18 MIQ B 502      15.896 -12.862 -21.511  1.00139.82     0.187 C 
HETATM   13  C19 MIQ B 502      15.029 -14.113 -21.320  1.00140.06     0.247 C 
HETATM   14  O25 MIQ B 502      14.639 -14.384 -20.241  1.00143.95    -0.271 OA
HETATM   15  N20 MIQ B 502      14.669 -14.969 -22.432  1.00140.02    -0.296 N 
HETATM   16  H13 MIQ B 502      14.108 -15.786 -22.293  1.00142.77     0.171 HD
HETATM   17  C21 MIQ B 502      15.166 -14.623 -23.739  1.00142.22     0.224 C 
HETATM   18  C22 MIQ B 502      16.534 -13.971 -23.796  1.00139.52     0.106 C 
HETATM   19  O24 MIQ B 502      14.535 -14.834 -24.715  1.00146.13    -0.273 OA
HETATM   20  C23 MIQ B 502      16.456 -12.729 -22.926  1.00139.15     0.045 C 
ENDBRANCH  10  12
BRANCH   5  21
HETATM   21  N6  MIQ B 502      21.107 -11.812 -16.139  1.00140.95    -0.377 N 
HETATM   22  C7  MIQ B 502      21.815 -12.657 -15.193  1.00142.12     0.149 C 
HETATM   23  C8  MIQ B 502      22.007 -11.969 -13.848  1.00144.10     0.187 C 
HETATM   24  O9  MIQ B 502      22.497 -10.668 -13.968  1.00148.65    -0.388 OA
HETATM   25  C10 MIQ B 502      22.558 -10.047 -15.218  1.00147.44     0.187 C 
HETATM   26  C11 MIQ B 502      21.522 -10.426 -16.272  1.00144.08     0.149 C 
ENDBRANCH   5  21
TORSDOF 2
ENDMDL
MODEL 6
REMARK VINA RESULT:      -6.7     12.420     15.694
REMARK  2 active torsions:
REMARK  status: ('A' for Active; 'I' for Inactive)
REMARK    1  A    between atoms: C5_5  and  N6_21 
REMARK    2  A    between atoms: C18_14  and  N17_19 
ROOT
HETATM    1  O1  MIQ B 502      17.806 -14.890 -20.733  1.00142.91    -0.171 OA
HETATM    2  C2  MIQ B 502      17.461 -13.556 -20.508  1.00141.17     0.195 A 
HETATM    3  C3  MIQ B 502      18.139 -12.587 -19.488  1.00141.71     0.035 A 
HETATM    4  C4  MIQ B 502      19.256 -12.740 -18.525  1.00142.86     0.046 A 
HETATM    5  C5  MIQ B 502      19.657 -11.649 -17.713  1.00139.53     0.031 A 
HETATM    6  C12 MIQ B 502      18.967 -10.372 -17.827  1.00139.38     0.030 A 
HETATM    7  C13 MIQ B 502      17.897 -10.225 -18.750  1.00141.18     0.019 A 
HETATM    8  C14 MIQ B 502      17.483 -11.373 -19.602  1.00138.77     0.033 A 
HETATM    9  C15 MIQ B 502      16.390 -11.589 -20.700  1.00142.10     0.195 A 
HETATM   10  N17 MIQ B 502      16.515 -12.844 -21.097  1.00139.42    -0.288 N 
HETATM   11  O16 MIQ B 502      15.471 -10.645 -21.161  1.00148.93    -0.171 OA
ENDROOT
BRANCH  10  12
HETATM   12  C18 MIQ B 502      15.643 -13.408 -22.111  1.00139.82     0.187 C 
HETATM   13  C19 MIQ B 502      15.029 -14.692 -21.538  1.00140.06     0.247 C 
HETATM   14  O25 MIQ B 502      14.510 -14.659 -20.479  1.00143.95    -0.271 OA
HETATM   15  N20 MIQ B 502      15.063 -15.944 -22.265  1.00140.02    -0.296 N 
HETATM   16  H13 MIQ B 502      14.665 -16.777 -21.877  1.00142.77     0.171 HD
HETATM   17  C21 MIQ B 502      15.712 -15.961 -23.551  1.00142.22     0.224 C 
HETATM   18  C22 MIQ B 502      16.904 -15.040 -23.724  1.00139.52     0.106 C 
HETATM   19  O24 MIQ B 502      15.328 -16.655 -24.427  1.00146.13    -0.273 OA
HETATM   20  C23 MIQ B 502      16.416 -13.638 -23.409  1.00139.15     0.045 C 
ENDBRANCH  10  12
BRANCH   5  21
HETATM   21  N6  MIQ B 502      20.742 -11.818 -16.764  1.00140.95    -0.377 N 
HETATM   22  C7  MIQ B 502      21.502 -10.646 -16.363  1.00142.12     0.149 C 
HETATM   23  C8  MIQ B 502      22.918 -11.007 -15.931  1.00144.10     0.187 C 
HETATM   24  O9  MIQ B 502      22.957 -12.079 -15.037  1.00148.65    -0.388 OA
HETATM   25  C10 MIQ B 502      21.811 -12.839 -14.794  1.00147.44     0.187 C 
HETATM   26  C11 MIQ B 502      20.786 -12.994 -15.913  1.00144.08     0.149 C 
ENDBRANCH   5  21
TORSDOF 2
ENDMDL
MODEL 7
REMARK VINA RESULT:      -6.6     12.383     14.155
REMARK  2 active torsions:
REMARK  status: ('A' for Active; 'I' for Inactive)
REMARK    1  A    between atoms: C5_5  and  N6_21 
REMARK    2  A    between atoms: C18_14  and  N17_19 
ROOT
HETATM    1  O1  MIQ B 502      -1.967  -5.551 -20.280  1.00142.91    -0.171 OA
HETATM    2  C2  MIQ B 502      -2.197  -6.436 -19.225  1.00141.17     0.195 A 
HETATM    3  C3  MIQ B 502      -2.236  -7.994 -19.320  1.00141.71     0.035 A 
HETATM    4  C4  MIQ B 502      -2.058  -8.952 -20.437  1.00142.86     0.046 A 
HETATM    5  C5  MIQ B 502      -2.151 -10.348 -20.206  1.00139.53     0.031 A 
HETATM    6  C12 MIQ B 502      -2.422 -10.842 -18.864  1.00139.38     0.030 A 
HETATM    7  C13 MIQ B 502      -2.591  -9.924 -17.792  1.00141.18     0.019 A 
HETATM    8  C14 MIQ B 502      -2.490  -8.460 -18.040  1.00138.77     0.033 A 
HETATM    9  C15 MIQ B 502      -2.610  -7.183 -17.145  1.00142.10     0.195 A 
HETATM   10  N17 MIQ B 502      -2.420  -6.153 -17.953  1.00139.42    -0.288 N 
HETATM   11  O16 MIQ B 502      -2.868  -7.144 -15.774  1.00148.93    -0.171 OA
ENDROOT
BRANCH  10  12
HETATM   12  C18 MIQ B 502      -2.477  -4.787 -17.464  1.00139.82     0.187 C 
HETATM   13  C19 MIQ B 502      -3.451  -4.011 -18.358  1.00140.06     0.247 C 
HETATM   14  O25 MIQ B 502      -4.527  -4.452 -18.557  1.00143.95    -0.271 OA
HETATM   15  N20 MIQ B 502      -3.090  -2.745 -18.962  1.00140.02    -0.296 N 
HETATM   16  H13 MIQ B 502      -3.733  -2.251 -19.549  1.00142.77     0.171 HD
HETATM   17  C21 MIQ B 502      -1.768  -2.231 -18.714  1.00142.22     0.224 C 
HETATM   18  C22 MIQ B 502      -0.658  -3.254 -18.559  1.00139.52     0.106 C 
HETATM   19  O24 MIQ B 502      -1.561  -1.071 -18.629  1.00146.13    -0.273 OA
HETATM   20  C23 MIQ B 502      -1.076  -4.177 -17.429  1.00139.15     0.045 C 
ENDBRANCH  10  12
BRANCH   5  21
HETATM   21  N6  MIQ B 502      -1.989 -11.274 -21.312  1.00140.95    -0.377 N 
HETATM   22  C7  MIQ B 502      -2.885 -12.413 -21.401  1.00142.12     0.149 C 
HETATM   23  C8  MIQ B 502      -2.250 -13.581 -22.145  1.00144.10     0.187 C 
HETATM   24  O9  MIQ B 502      -1.651 -13.197 -23.347  1.00148.65    -0.388 OA
HETATM   25  C10 MIQ B 502      -1.483 -11.845 -23.654  1.00147.44     0.187 C 
HETATM   26  C11 MIQ B 502      -1.282 -10.856 -22.510  1.00144.08     0.149 C 
ENDBRANCH   5  21
TORSDOF 2
ENDMDL
MODEL 8
REMARK VINA RESULT:      -6.5     13.246     15.813
REMARK  2 active torsions:
REMARK  status: ('A' for Active; 'I' for Inactive)
REMARK    1  A    between atoms: C5_5  and  N6_21 
REMARK    2  A    between atoms: C18_14  and  N17_19 
ROOT
HETATM    1  O1  MIQ B 502      19.921 -15.080 -19.150  1.00142.91    -0.171 OA
HETATM    2  C2  MIQ B 502      19.233 -13.868 -19.239  1.00141.17     0.195 A 
HETATM    3  C3  MIQ B 502      19.563 -12.560 -18.452  1.00141.71     0.035 A 
HETATM    4  C4  MIQ B 502      20.604 -12.204 -17.458  1.00142.86     0.046 A 
HETATM    5  C5  MIQ B 502      20.651 -10.900 -16.906  1.00139.53     0.031 A 
HETATM    6  C12 MIQ B 502      19.671  -9.905 -17.318  1.00139.38     0.030 A 
HETATM    7  C13 MIQ B 502      18.674 -10.245 -18.272  1.00141.18     0.019 A 
HETATM    8  C14 MIQ B 502      18.631 -11.616 -18.850  1.00138.77     0.033 A 
HETATM    9  C15 MIQ B 502      17.718 -12.341 -19.891  1.00142.10     0.195 A 
HETATM   10  N17 MIQ B 502      18.187 -13.574 -19.993  1.00139.42    -0.288 N 
HETATM   11  O16 MIQ B 502      16.628 -11.795 -20.571  1.00148.93    -0.171 OA
ENDROOT
BRANCH  10  12
HETATM   12  C18 MIQ B 502      17.568 -14.551 -20.869  1.00139.82     0.187 C 
HETATM   13  C19 MIQ B 502      17.481 -13.933 -22.270  1.00140.06     0.247 C 
HETATM   14  O25 MIQ B 502      18.448 -13.459 -22.752  1.00143.95    -0.271 OA
HETATM   15  N20 MIQ B 502      16.243 -13.919 -23.023  1.00140.02    -0.296 N 
HETATM   16  H13 MIQ B 502      16.198 -13.507 -23.934  1.00142.77     0.171 HD
HETATM   17  C21 MIQ B 502      15.074 -14.494 -22.409  1.00142.22     0.224 C 
HETATM   18  C22 MIQ B 502      14.957 -14.355 -20.904  1.00139.52     0.106 C 
HETATM   19  O24 MIQ B 502      14.251 -15.050 -23.049  1.00146.13    -0.273 OA
HETATM   20  C23 MIQ B 502      16.210 -14.977 -20.315  1.00139.15     0.045 C 
ENDBRANCH  10  12
BRANCH   5  21
HETATM   21  N6  MIQ B 502      21.666 -10.569 -15.922  1.00140.95    -0.377 N 
HETATM   22  C7  MIQ B 502      21.733  -9.206 -15.424  1.00142.12     0.149 C 
HETATM   23  C8  MIQ B 502      23.135  -8.841 -14.954  1.00144.10     0.187 C 
HETATM   24  O9  MIQ B 502      23.698  -9.809 -14.120  1.00148.65    -0.388 OA
HETATM   25  C10 MIQ B 502      23.086 -11.056 -13.969  1.00147.44     0.187 C 
HETATM   26  C11 MIQ B 502      22.287 -11.622 -15.138  1.00144.08     0.149 C 
ENDBRANCH   5  21
TORSDOF 2
ENDMDL
MODEL 9
REMARK VINA RESULT:      -6.5     13.059     15.586
REMARK  2 active torsions:
REMARK  status: ('A' for Active; 'I' for Inactive)
REMARK    1  A    between atoms: C5_5  and  N6_21 
REMARK    2  A    between atoms: C18_14  and  N17_19 
ROOT
HETATM    1  O1  MIQ B 502      -3.019  -2.194 -21.162  1.00142.91    -0.171 OA
HETATM    2  C2  MIQ B 502      -3.150  -2.886 -19.956  1.00141.17     0.195 A 
HETATM    3  C3  MIQ B 502      -4.488  -3.207 -19.216  1.00141.71     0.035 A 
HETATM    4  C4  MIQ B 502      -5.911  -2.919 -19.515  1.00142.86     0.046 A 
HETATM    5  C5  MIQ B 502      -6.931  -3.352 -18.630  1.00139.53     0.031 A 
HETATM    6  C12 MIQ B 502      -6.576  -4.083 -17.422  1.00139.38     0.030 A 
HETATM    7  C13 MIQ B 502      -5.212  -4.360 -17.136  1.00141.18     0.019 A 
HETATM    8  C14 MIQ B 502      -4.146  -3.905 -18.070  1.00138.77     0.033 A 
HETATM    9  C15 MIQ B 502      -2.587  -4.019 -18.098  1.00142.10     0.195 A 
HETATM   10  N17 MIQ B 502      -2.196  -3.408 -19.204  1.00139.42    -0.288 N 
HETATM   11  O16 MIQ B 502      -1.777  -4.639 -17.145  1.00148.93    -0.171 OA
ENDROOT
BRANCH  10  12
HETATM   12  C18 MIQ B 502      -0.792  -3.303 -19.555  1.00139.82     0.187 C 
HETATM   13  C19 MIQ B 502      -0.486  -1.824 -19.822  1.00140.06     0.247 C 
HETATM   14  O25 MIQ B 502      -0.802  -1.017 -19.021  1.00143.95    -0.271 OA
HETATM   15  N20 MIQ B 502       0.186  -1.389 -21.029  1.00140.02    -0.296 N 
HETATM   16  H13 MIQ B 502       0.374  -0.419 -21.195  1.00142.77     0.171 HD
HETATM   17  C21 MIQ B 502       0.551  -2.391 -21.997  1.00142.22     0.224 C 
HETATM   18  C22 MIQ B 502      -0.376  -3.584 -22.125  1.00139.52     0.106 C 
HETATM   19  O24 MIQ B 502       1.529  -2.289 -22.652  1.00146.13    -0.273 OA
HETATM   20  C23 MIQ B 502      -0.472  -4.207 -20.745  1.00139.15     0.045 C 
ENDBRANCH  10  12
BRANCH   5  21
HETATM   21  N6  MIQ B 502      -8.319  -3.051 -18.927  1.00140.95    -0.377 N 
HETATM   22  C7  MIQ B 502      -9.355  -3.760 -18.196  1.00142.12     0.149 C 
HETATM   23  C8  MIQ B 502     -10.651  -3.854 -18.992  1.00144.10     0.187 C 
HETATM   24  O9  MIQ B 502     -11.039  -2.631 -19.544  1.00148.65    -0.388 OA
HETATM   25  C10 MIQ B 502     -10.168  -1.539 -19.528  1.00147.44     0.187 C 
HETATM   26  C11 MIQ B 502      -8.667  -1.802 -19.581  1.00144.08     0.149 C 
ENDBRANCH   5  21
TORSDOF 2
ENDMDL
