MODEL 1
REMARK VINA RESULT:      -6.6      0.000      0.000
REMARK  2 active torsions:
REMARK  status: ('A' for Active; 'I' for Inactive)
REMARK    1  A    between atoms: C5_5  and  N6_21 
REMARK    2  A    between atoms: C18_14  and  N17_19 
ROOT
HETATM    1  O1  MIQ B 502     -14.027  -8.902  11.932  1.00142.91    -0.171 OA
HETATM    2  C2  MIQ B 502     -13.493 -10.134  11.550  1.00141.17     0.195 A 
HETATM    3  C3  MIQ B 502     -14.258 -11.494  11.496  1.00141.71     0.035 A 
HETATM    4  C4  MIQ B 502     -15.654 -11.891  11.797  1.00142.86     0.046 A 
HETATM    5  C5  MIQ B 502     -16.064 -13.240  11.648  1.00139.53     0.031 A 
HETATM    6  C12 MIQ B 502     -15.107 -14.240  11.197  1.00139.38     0.030 A 
HETATM    7  C13 MIQ B 502     -13.769 -13.860  10.907  1.00141.18     0.019 A 
HETATM    8  C14 MIQ B 502     -13.345 -12.442  11.063  1.00138.77     0.033 A 
HETATM    9  C15 MIQ B 502     -12.006 -11.665  10.846  1.00142.10     0.195 A 
HETATM   10  N17 MIQ B 502     -12.260 -10.405  11.156  1.00139.42    -0.288 N 
HETATM   11  O16 MIQ B 502     -10.790 -12.199  10.414  1.00148.93    -0.171 OA
ENDROOT
BRANCH  10  12
HETATM   12  C18 MIQ B 502     -11.230  -9.385  11.087  1.00139.82     0.187 C 
HETATM   13  C19 MIQ B 502     -11.131  -8.726  12.468  1.00140.06     0.247 C 
HETATM   14  O25 MIQ B 502     -11.012  -9.406  13.424  1.00143.95    -0.271 OA
HETATM   15  N20 MIQ B 502     -11.172  -7.287  12.632  1.00140.02    -0.296 N 
HETATM   16  H13 MIQ B 502     -11.113  -6.869  13.539  1.00142.77     0.171 HD
HETATM   17  C21 MIQ B 502     -11.328  -6.478  11.451  1.00142.22     0.224 C 
HETATM   18  C22 MIQ B 502     -12.169  -7.060  10.331  1.00139.52     0.106 C 
HETATM   19  O24 MIQ B 502     -10.819  -5.415  11.359  1.00146.13    -0.273 OA
HETATM   20  C23 MIQ B 502     -11.539  -8.392   9.967  1.00139.15     0.045 C 
ENDBRANCH  10  12
BRANCH   5  21
HETATM   21  N6  MIQ B 502     -17.431 -13.616  11.960  1.00140.95    -0.377 N 
HETATM   22  C7  MIQ B 502     -18.256 -12.682  12.706  1.00142.12     0.149 C 
HETATM   23  C8  MIQ B 502     -19.348 -13.392  13.496  1.00144.10     0.187 C 
HETATM   24  O9  MIQ B 502     -20.048 -14.329  12.733  1.00148.65    -0.388 OA
HETATM   25  C10 MIQ B 502     -19.590 -14.693  11.464  1.00147.44     0.187 C 
HETATM   26  C11 MIQ B 502     -18.089 -14.659  11.193  1.00144.08     0.149 C 
ENDBRANCH   5  21
TORSDOF 2
ENDMDL
MODEL 2
REMARK VINA RESULT:      -6.4      1.781      2.922
REMARK  2 active torsions:
REMARK  status: ('A' for Active; 'I' for Inactive)
REMARK    1  A    between atoms: C5_5  and  N6_21 
REMARK    2  A    between atoms: C18_14  and  N17_19 
ROOT
HETATM    1  O1  MIQ B 502     -10.799 -12.184  10.998  1.00142.91    -0.171 OA
HETATM    2  C2  MIQ B 502     -12.048 -11.578  11.154  1.00141.17     0.195 A 
HETATM    3  C3  MIQ B 502     -13.435 -12.293  11.080  1.00141.71     0.035 A 
HETATM    4  C4  MIQ B 502     -13.846 -13.698  10.850  1.00142.86     0.046 A 
HETATM    5  C5  MIQ B 502     -15.219 -14.050  10.841  1.00139.53     0.031 A 
HETATM    6  C12 MIQ B 502     -16.230 -13.026  11.060  1.00139.38     0.030 A 
HETATM    7  C13 MIQ B 502     -15.836 -11.678  11.282  1.00141.18     0.019 A 
HETATM    8  C14 MIQ B 502     -14.393 -11.315  11.293  1.00138.77     0.033 A 
HETATM    9  C15 MIQ B 502     -13.596  -9.985  11.500  1.00142.10     0.195 A 
HETATM   10  N17 MIQ B 502     -12.317 -10.306  11.395  1.00139.42    -0.288 N 
HETATM   11  O16 MIQ B 502     -14.131  -8.719  11.743  1.00148.93    -0.171 OA
ENDROOT
BRANCH  10  12
HETATM   12  C18 MIQ B 502     -11.272  -9.306  11.518  1.00139.82     0.187 C 
HETATM   13  C19 MIQ B 502     -11.545  -8.500  12.794  1.00140.06     0.247 C 
HETATM   14  O25 MIQ B 502     -11.728  -9.073  13.809  1.00143.95    -0.271 OA
HETATM   15  N20 MIQ B 502     -11.578  -7.052  12.790  1.00140.02    -0.296 N 
HETATM   16  H13 MIQ B 502     -11.763  -6.538  13.629  1.00142.77     0.171 HD
HETATM   17  C21 MIQ B 502     -11.362  -6.376  11.537  1.00142.22     0.224 C 
HETATM   18  C22 MIQ B 502     -11.872  -7.072  10.290  1.00139.52     0.106 C 
HETATM   19  O24 MIQ B 502     -10.809  -5.333  11.485  1.00146.13    -0.273 OA
HETATM   20  C23 MIQ B 502     -11.215  -8.440  10.261  1.00139.15     0.045 C 
ENDBRANCH  10  12
BRANCH   5  21
HETATM   21  N6  MIQ B 502     -15.608 -15.428  10.599  1.00140.95    -0.377 N 
HETATM   22  C7  MIQ B 502     -17.024 -15.747  10.524  1.00142.12     0.149 C 
HETATM   23  C8  MIQ B 502     -17.302 -17.193  10.913  1.00144.10     0.187 C 
HETATM   24  O9  MIQ B 502     -16.451 -18.100  10.278  1.00148.65    -0.388 OA
HETATM   25  C10 MIQ B 502     -15.339 -17.646   9.564  1.00147.44     0.187 C 
HETATM   26  C11 MIQ B 502     -14.659 -16.358  10.015  1.00144.08     0.149 C 
ENDBRANCH   5  21
TORSDOF 2
ENDMDL
MODEL 3
REMARK VINA RESULT:      -6.3     13.355     14.862
REMARK  2 active torsions:
REMARK  status: ('A' for Active; 'I' for Inactive)
REMARK    1  A    between atoms: C5_5  and  N6_21 
REMARK    2  A    between atoms: C18_14  and  N17_19 
ROOT
HETATM    1  O1  MIQ B 502     -21.358   3.486  15.063  1.00142.91    -0.171 OA
HETATM    2  C2  MIQ B 502     -20.462   2.427  15.229  1.00141.17     0.195 A 
HETATM    3  C3  MIQ B 502     -20.410   1.445  16.443  1.00141.71     0.035 A 
HETATM    4  C4  MIQ B 502     -21.207   1.318  17.686  1.00142.86     0.046 A 
HETATM    5  C5  MIQ B 502     -20.915   0.296  18.624  1.00139.53     0.031 A 
HETATM    6  C12 MIQ B 502     -19.826  -0.634  18.363  1.00139.38     0.030 A 
HETATM    7  C13 MIQ B 502     -19.062  -0.514  17.170  1.00141.18     0.019 A 
HETATM    8  C14 MIQ B 502     -19.375   0.560  16.188  1.00138.77     0.033 A 
HETATM    9  C15 MIQ B 502     -18.782   0.995  14.809  1.00142.10     0.195 A 
HETATM   10  N17 MIQ B 502     -19.496   2.036  14.415  1.00139.42    -0.288 N 
HETATM   11  O16 MIQ B 502     -17.712   0.402  14.134  1.00148.93    -0.171 OA
ENDROOT
BRANCH  10  12
HETATM   12  C18 MIQ B 502     -19.214   2.721  13.167  1.00139.82     0.187 C 
HETATM   13  C19 MIQ B 502     -19.130   1.661  12.062  1.00140.06     0.247 C 
HETATM   14  O25 MIQ B 502     -20.005   0.878  11.947  1.00143.95    -0.271 OA
HETATM   15  N20 MIQ B 502     -18.008   1.598  11.148  1.00140.02    -0.296 N 
HETATM   16  H13 MIQ B 502     -17.962   0.897  10.435  1.00142.77     0.171 HD
HETATM   17  C21 MIQ B 502     -16.947   2.558  11.315  1.00142.22     0.224 C 
HETATM   18  C22 MIQ B 502     -16.647   3.001  12.734  1.00139.52     0.106 C 
HETATM   19  O24 MIQ B 502     -16.346   2.981  10.390  1.00146.13    -0.273 OA
HETATM   20  C23 MIQ B 502     -17.943   3.558  13.295  1.00139.15     0.045 C 
ENDBRANCH  10  12
BRANCH   5  21
HETATM   21  N6  MIQ B 502     -21.694   0.193  19.844  1.00140.95    -0.377 N 
HETATM   22  C7  MIQ B 502     -22.737  -0.815  19.919  1.00142.12     0.149 C 
HETATM   23  C8  MIQ B 502     -23.841  -0.420  20.892  1.00144.10     0.187 C 
HETATM   24  O9  MIQ B 502     -23.349   0.021  22.122  1.00148.65    -0.388 OA
HETATM   25  C10 MIQ B 502     -21.984   0.273  22.289  1.00147.44     0.187 C 
HETATM   26  C11 MIQ B 502     -21.177   0.745  21.084  1.00144.08     0.149 C 
ENDBRANCH   5  21
TORSDOF 2
ENDMDL
MODEL 4
REMARK VINA RESULT:      -6.3      2.271      8.027
REMARK  2 active torsions:
REMARK  status: ('A' for Active; 'I' for Inactive)
REMARK    1  A    between atoms: C5_5  and  N6_21 
REMARK    2  A    between atoms: C18_14  and  N17_19 
ROOT
HETATM    1  O1  MIQ B 502     -16.482 -11.485  14.699  1.00142.91    -0.171 OA
HETATM    2  C2  MIQ B 502     -16.409 -11.854  13.354  1.00141.17     0.195 A 
HETATM    3  C3  MIQ B 502     -15.476 -11.221  12.273  1.00141.71     0.035 A 
HETATM    4  C4  MIQ B 502     -14.464 -10.138  12.308  1.00142.86     0.046 A 
HETATM    5  C5  MIQ B 502     -13.758  -9.779  11.132  1.00139.53     0.031 A 
HETATM    6  C12 MIQ B 502     -14.030 -10.478   9.884  1.00139.38     0.030 A 
HETATM    7  C13 MIQ B 502     -14.999 -11.517   9.851  1.00141.18     0.019 A 
HETATM    8  C14 MIQ B 502     -15.735 -11.891  11.089  1.00138.77     0.033 A 
HETATM    9  C15 MIQ B 502     -16.835 -12.947  11.437  1.00142.10     0.195 A 
HETATM   10  N17 MIQ B 502     -17.092 -12.795  12.725  1.00139.42    -0.288 N 
HETATM   11  O16 MIQ B 502     -17.424 -13.860  10.560  1.00148.93    -0.171 OA
ENDROOT
BRANCH  10  12
HETATM   12  C18 MIQ B 502     -18.087 -13.608  13.400  1.00139.82     0.187 C 
HETATM   13  C19 MIQ B 502     -19.003 -12.666  14.190  1.00140.06     0.247 C 
HETATM   14  O25 MIQ B 502     -19.489 -11.740  13.642  1.00143.95    -0.271 OA
HETATM   15  N20 MIQ B 502     -19.296 -12.883  15.592  1.00140.02    -0.296 N 
HETATM   16  H13 MIQ B 502     -19.890 -12.256  16.098  1.00142.77     0.171 HD
HETATM   17  C21 MIQ B 502     -18.683 -14.013  16.242  1.00142.22     0.224 C 
HETATM   18  C22 MIQ B 502     -17.297 -14.403  15.766  1.00139.52     0.106 C 
HETATM   19  O24 MIQ B 502     -19.238 -14.608  17.099  1.00146.13    -0.273 OA
HETATM   20  C23 MIQ B 502     -17.409 -14.661  14.275  1.00139.15     0.045 C 
ENDBRANCH  10  12
BRANCH   5  21
HETATM   21  N6  MIQ B 502     -12.781  -8.707  11.177  1.00140.95    -0.377 N 
HETATM   22  C7  MIQ B 502     -11.849  -8.664  12.291  1.00142.12     0.149 C 
HETATM   23  C8  MIQ B 502     -11.362  -7.248  12.571  1.00144.10     0.187 C 
HETATM   24  O9  MIQ B 502     -10.946  -6.579  11.418  1.00148.65    -0.388 OA
HETATM   25  C10 MIQ B 502     -11.197  -7.121  10.155  1.00147.44     0.187 C 
HETATM   26  C11 MIQ B 502     -12.443  -7.981   9.966  1.00144.08     0.149 C 
ENDBRANCH   5  21
TORSDOF 2
ENDMDL
MODEL 5
REMARK VINA RESULT:      -6.2      1.239      2.392
REMARK  2 active torsions:
REMARK  status: ('A' for Active; 'I' for Inactive)
REMARK    1  A    between atoms: C5_5  and  N6_21 
REMARK    2  A    between atoms: C18_14  and  N17_19 
ROOT
HETATM    1  O1  MIQ B 502     -12.491 -12.400  10.099  1.00142.91    -0.171 OA
HETATM    2  C2  MIQ B 502     -13.435 -11.587  10.730  1.00141.17     0.195 A 
HETATM    3  C3  MIQ B 502     -14.899 -11.987  11.096  1.00141.71     0.035 A 
HETATM    4  C4  MIQ B 502     -15.691 -13.227  10.920  1.00142.86     0.046 A 
HETATM    5  C5  MIQ B 502     -17.034 -13.290  11.369  1.00139.53     0.031 A 
HETATM    6  C12 MIQ B 502     -17.638 -12.129  12.007  1.00139.38     0.030 A 
HETATM    7  C13 MIQ B 502     -16.879 -10.940  12.177  1.00141.18     0.019 A 
HETATM    8  C14 MIQ B 502     -15.468 -10.881  11.706  1.00138.77     0.033 A 
HETATM    9  C15 MIQ B 502     -14.350  -9.788  11.718  1.00142.10     0.195 A 
HETATM   10  N17 MIQ B 502     -13.293 -10.340  11.146  1.00139.42    -0.288 N 
HETATM   11  O16 MIQ B 502     -14.453  -8.493  12.229  1.00148.93    -0.171 OA
ENDROOT
BRANCH  10  12
HETATM   12  C18 MIQ B 502     -12.056  -9.602  10.968  1.00139.82     0.187 C 
HETATM   13  C19 MIQ B 502     -11.657  -9.023  12.331  1.00140.06     0.247 C 
HETATM   14  O25 MIQ B 502     -11.614  -9.736  13.269  1.00143.95    -0.271 OA
HETATM   15  N20 MIQ B 502     -11.326  -7.623  12.498  1.00140.02    -0.296 N 
HETATM   16  H13 MIQ B 502     -11.073  -7.256  13.394  1.00142.77     0.171 HD
HETATM   17  C21 MIQ B 502     -11.397  -6.770  11.340  1.00142.22     0.224 C 
HETATM   18  C22 MIQ B 502     -12.465  -7.099  10.315  1.00139.52     0.106 C 
HETATM   19  O24 MIQ B 502     -10.654  -5.862  11.195  1.00146.13    -0.273 OA
HETATM   20  C23 MIQ B 502     -12.224  -8.535   9.887  1.00139.15     0.045 C 
ENDBRANCH  10  12
BRANCH   5  21
HETATM   21  N6  MIQ B 502     -17.803 -14.507  11.177  1.00140.95    -0.377 N 
HETATM   22  C7  MIQ B 502     -19.168 -14.552  11.672  1.00142.12     0.149 C 
HETATM   23  C8  MIQ B 502     -19.609 -15.974  11.995  1.00144.10     0.187 C 
HETATM   24  O9  MIQ B 502     -19.315 -16.879  10.973  1.00148.65    -0.388 OA
HETATM   25  C10 MIQ B 502     -18.495 -16.501   9.907  1.00147.44     0.187 C 
HETATM   26  C11 MIQ B 502     -17.406 -15.461  10.156  1.00144.08     0.149 C 
ENDBRANCH   5  21
TORSDOF 2
ENDMDL
MODEL 6
REMARK VINA RESULT:      -6.1      3.925      5.902
REMARK  2 active torsions:
REMARK  status: ('A' for Active; 'I' for Inactive)
REMARK    1  A    between atoms: C5_5  and  N6_21 
REMARK    2  A    between atoms: C18_14  and  N17_19 
ROOT
HETATM    1  O1  MIQ B 502     -10.835 -10.287  10.035  1.00142.91    -0.171 OA
HETATM    2  C2  MIQ B 502     -11.308 -11.110  11.060  1.00141.17     0.195 A 
HETATM    3  C3  MIQ B 502     -11.202 -12.668  11.114  1.00141.71     0.035 A 
HETATM    4  C4  MIQ B 502     -10.626 -13.682  10.200  1.00142.86     0.046 A 
HETATM    5  C5  MIQ B 502     -10.682 -15.060  10.532  1.00139.53     0.031 A 
HETATM    6  C12 MIQ B 502     -11.309 -15.478  11.777  1.00139.38     0.030 A 
HETATM    7  C13 MIQ B 502     -11.861 -14.505  12.654  1.00141.18     0.019 A 
HETATM    8  C14 MIQ B 502     -11.797 -13.061  12.302  1.00138.77     0.033 A 
HETATM    9  C15 MIQ B 502     -12.273 -11.740  12.989  1.00142.10     0.195 A 
HETATM   10  N17 MIQ B 502     -11.924 -10.758  12.175  1.00139.42    -0.288 N 
HETATM   11  O16 MIQ B 502     -12.935 -11.626  14.213  1.00148.93    -0.171 OA
ENDROOT
BRANCH  10  12
HETATM   12  C18 MIQ B 502     -12.225  -9.373  12.486  1.00139.82     0.187 C 
HETATM   13  C19 MIQ B 502     -12.866  -8.743  11.243  1.00140.06     0.247 C 
HETATM   14  O25 MIQ B 502     -13.777  -9.286  10.727  1.00143.95    -0.271 OA
HETATM   15  N20 MIQ B 502     -12.387  -7.494  10.687  1.00140.02    -0.296 N 
HETATM   16  H13 MIQ B 502     -12.811  -7.096   9.871  1.00142.77     0.171 HD
HETATM   17  C21 MIQ B 502     -11.267  -6.855  11.328  1.00142.22     0.224 C 
HETATM   18  C22 MIQ B 502     -10.227  -7.767  11.949  1.00139.52     0.106 C 
HETATM   19  O24 MIQ B 502     -11.168  -5.678  11.371  1.00146.13    -0.273 OA
HETATM   20  C23 MIQ B 502     -10.962  -8.645  12.945  1.00139.15     0.045 C 
ENDBRANCH  10  12
BRANCH   5  21
HETATM   21  N6  MIQ B 502     -10.127 -16.044   9.620  1.00140.95    -0.377 N 
HETATM   22  C7  MIQ B 502      -8.858 -15.755   8.975  1.00142.12     0.149 C 
HETATM   23  C8  MIQ B 502      -8.718 -16.483   7.644  1.00144.10     0.187 C 
HETATM   24  O9  MIQ B 502      -9.051 -17.836   7.727  1.00148.65    -0.388 OA
HETATM   25  C10 MIQ B 502      -9.663 -18.345   8.876  1.00147.44     0.187 C 
HETATM   26  C11 MIQ B 502     -10.569 -17.426   9.688  1.00144.08     0.149 C 
ENDBRANCH   5  21
TORSDOF 2
ENDMDL
MODEL 7
REMARK VINA RESULT:      -6.1      2.181      8.169
REMARK  2 active torsions:
REMARK  status: ('A' for Active; 'I' for Inactive)
REMARK    1  A    between atoms: C5_5  and  N6_21 
REMARK    2  A    between atoms: C18_14  and  N17_19 
ROOT
HETATM    1  O1  MIQ B 502     -15.997 -12.176  14.219  1.00142.91    -0.171 OA
HETATM    2  C2  MIQ B 502     -15.881 -12.308  12.834  1.00141.17     0.195 A 
HETATM    3  C3  MIQ B 502     -15.013 -11.416  11.891  1.00141.71     0.035 A 
HETATM    4  C4  MIQ B 502     -14.116 -10.259  12.124  1.00142.86     0.046 A 
HETATM    5  C5  MIQ B 502     -13.445  -9.642  11.039  1.00139.53     0.031 A 
HETATM    6  C12 MIQ B 502     -13.638 -10.149   9.688  1.00139.38     0.030 A 
HETATM    7  C13 MIQ B 502     -14.497 -11.258   9.464  1.00141.18     0.019 A 
HETATM    8  C14 MIQ B 502     -15.197 -11.904  10.608  1.00138.77     0.033 A 
HETATM    9  C15 MIQ B 502     -16.185 -13.107  10.755  1.00142.10     0.195 A 
HETATM   10  N17 MIQ B 502     -16.462 -13.196  12.045  1.00139.42    -0.288 N 
HETATM   11  O16 MIQ B 502     -16.674 -13.916   9.728  1.00148.93    -0.171 OA
ENDROOT
BRANCH  10  12
HETATM   12  C18 MIQ B 502     -17.372 -14.204  12.556  1.00139.82     0.187 C 
HETATM   13  C19 MIQ B 502     -16.890 -15.569  12.050  1.00140.06     0.247 C 
HETATM   14  O25 MIQ B 502     -15.762 -15.876  12.205  1.00143.95    -0.271 OA
HETATM   15  N20 MIQ B 502     -17.785 -16.498  11.390  1.00140.02    -0.296 N 
HETATM   16  H13 MIQ B 502     -17.456 -17.384  11.058  1.00142.77     0.171 HD
HETATM   17  C21 MIQ B 502     -19.155 -16.097  11.202  1.00142.22     0.224 C 
HETATM   18  C22 MIQ B 502     -19.406 -14.621  10.960  1.00139.52     0.106 C 
HETATM   19  O24 MIQ B 502     -20.039 -16.881  11.241  1.00146.13    -0.273 OA
HETATM   20  C23 MIQ B 502     -18.808 -13.882  12.144  1.00139.15     0.045 C 
ENDBRANCH  10  12
BRANCH   5  21
HETATM   21  N6  MIQ B 502     -12.582  -8.500  11.280  1.00140.95    -0.377 N 
HETATM   22  C7  MIQ B 502     -11.620  -8.574  12.366  1.00142.12     0.149 C 
HETATM   23  C8  MIQ B 502     -11.271  -7.195  12.912  1.00144.10     0.187 C 
HETATM   24  O9  MIQ B 502     -10.967  -6.274  11.907  1.00148.65    -0.388 OA
HETATM   25  C10 MIQ B 502     -11.207  -6.584  10.566  1.00147.44     0.187 C 
HETATM   26  C11 MIQ B 502     -12.364  -7.520  10.230  1.00144.08     0.149 C 
ENDBRANCH   5  21
TORSDOF 2
ENDMDL
MODEL 8
REMARK VINA RESULT:      -6.0      5.317      8.557
REMARK  2 active torsions:
REMARK  status: ('A' for Active; 'I' for Inactive)
REMARK    1  A    between atoms: C5_5  and  N6_21 
REMARK    2  A    between atoms: C18_14  and  N17_19 
ROOT
HETATM    1  O1  MIQ B 502     -13.058 -11.632  16.541  1.00142.91    -0.171 OA
HETATM    2  C2  MIQ B 502     -11.732 -11.197  16.595  1.00141.17     0.195 A 
HETATM    3  C3  MIQ B 502     -10.983 -10.383  15.493  1.00141.71     0.035 A 
HETATM    4  C4  MIQ B 502     -11.384  -9.854  14.167  1.00142.86     0.046 A 
HETATM    5  C5  MIQ B 502     -10.457  -9.133  13.373  1.00139.53     0.031 A 
HETATM    6  C12 MIQ B 502      -9.105  -8.909  13.865  1.00139.38     0.030 A 
HETATM    7  C13 MIQ B 502      -8.721  -9.415  15.136  1.00141.18     0.019 A 
HETATM    8  C14 MIQ B 502      -9.699 -10.170  15.966  1.00138.77     0.033 A 
HETATM    9  C15 MIQ B 502      -9.650 -10.855  17.370  1.00142.10     0.195 A 
HETATM   10  N17 MIQ B 502     -10.852 -11.371  17.567  1.00139.42    -0.288 N 
HETATM   11  O16 MIQ B 502      -8.557 -10.911  18.236  1.00148.93    -0.171 OA
ENDROOT
BRANCH  10  12
HETATM   12  C18 MIQ B 502     -11.173 -12.106  18.776  1.00139.82     0.187 C 
HETATM   13  C19 MIQ B 502     -11.774 -13.454  18.359  1.00140.06     0.247 C 
HETATM   14  O25 MIQ B 502     -11.199 -14.124  17.577  1.00143.95    -0.271 OA
HETATM   15  N20 MIQ B 502     -13.028 -13.932  18.904  1.00140.02    -0.296 N 
HETATM   16  H13 MIQ B 502     -13.413 -14.811  18.619  1.00142.77     0.171 HD
HETATM   17  C21 MIQ B 502     -13.717 -13.092  19.850  1.00142.22     0.224 C 
HETATM   18  C22 MIQ B 502     -13.588 -11.594  19.651  1.00139.52     0.106 C 
HETATM   19  O24 MIQ B 502     -14.346 -13.550  20.740  1.00146.13    -0.273 OA
HETATM   20  C23 MIQ B 502     -12.102 -11.283  19.667  1.00139.15     0.045 C 
ENDBRANCH  10  12
BRANCH   5  21
HETATM   21  N6  MIQ B 502     -10.859  -8.633  12.071  1.00140.95    -0.377 N 
HETATM   22  C7  MIQ B 502     -11.909  -9.334  11.352  1.00142.12     0.149 C 
HETATM   23  C8  MIQ B 502     -11.788  -9.149   9.845  1.00144.10     0.187 C 
HETATM   24  O9  MIQ B 502     -11.598  -7.816   9.475  1.00148.65    -0.388 OA
HETATM   25  C10 MIQ B 502     -11.322  -6.846  10.441  1.00147.44     0.187 C 
HETATM   26  C11 MIQ B 502     -10.563  -7.262  11.697  1.00144.08     0.149 C 
ENDBRANCH   5  21
TORSDOF 2
ENDMDL
MODEL 9
REMARK VINA RESULT:      -6.0     13.251     15.904
REMARK  2 active torsions:
REMARK  status: ('A' for Active; 'I' for Inactive)
REMARK    1  A    between atoms: C5_5  and  N6_21 
REMARK    2  A    between atoms: C18_14  and  N17_19 
ROOT
HETATM    1  O1  MIQ B 502     -19.984   5.271  13.058  1.00142.91    -0.171 OA
HETATM    2  C2  MIQ B 502     -19.043   4.346  12.601  1.00141.17     0.195 A 
HETATM    3  C3  MIQ B 502     -18.548   3.078  13.367  1.00141.71     0.035 A 
HETATM    4  C4  MIQ B 502     -18.876   2.493  14.688  1.00142.86     0.046 A 
HETATM    5  C5  MIQ B 502     -18.246   1.299  15.120  1.00139.53     0.031 A 
HETATM    6  C12 MIQ B 502     -17.271   0.644  14.259  1.00139.38     0.030 A 
HETATM    7  C13 MIQ B 502     -16.957   1.204  12.991  1.00141.18     0.019 A 
HETATM    8  C14 MIQ B 502     -17.624   2.457  12.542  1.00138.77     0.033 A 
HETATM    9  C15 MIQ B 502     -17.545   3.344  11.257  1.00142.10     0.195 A 
HETATM   10  N17 MIQ B 502     -18.391   4.343  11.451  1.00139.42    -0.288 N 
HETATM   11  O16 MIQ B 502     -16.741   3.124  10.138  1.00148.93    -0.171 OA
ENDROOT
BRANCH  10  12
HETATM   12  C18 MIQ B 502     -18.572   5.385  10.458  1.00139.82     0.187 C 
HETATM   13  C19 MIQ B 502     -18.479   6.737  11.176  1.00140.06     0.247 C 
HETATM   14  O25 MIQ B 502     -17.556   6.953  11.879  1.00143.95    -0.271 OA
HETATM   15  N20 MIQ B 502     -19.491   7.760  11.012  1.00140.02    -0.296 N 
HETATM   16  H13 MIQ B 502     -19.422   8.636  11.492  1.00142.77     0.171 HD
HETATM   17  C21 MIQ B 502     -20.613   7.468  10.157  1.00142.22     0.224 C 
HETATM   18  C22 MIQ B 502     -21.088   6.029  10.125  1.00139.52     0.106 C 
HETATM   19  O24 MIQ B 502     -21.131   8.310   9.510  1.00146.13    -0.273 OA
HETATM   20  C23 MIQ B 502     -19.892   5.189   9.715  1.00139.15     0.045 C 
ENDBRANCH  10  12
BRANCH   5  21
HETATM   21  N6  MIQ B 502     -18.566   0.745  16.423  1.00140.95    -0.377 N 
HETATM   22  C7  MIQ B 502     -18.817   1.659  17.524  1.00142.12     0.149 C 
HETATM   23  C8  MIQ B 502     -18.500   1.026  18.872  1.00144.10     0.187 C 
HETATM   24  O9  MIQ B 502     -19.052  -0.248  19.017  1.00148.65    -0.388 OA
HETATM   25  C10 MIQ B 502     -19.617  -0.904  17.921  1.00147.44     0.187 C 
HETATM   26  C11 MIQ B 502     -19.056  -0.618  16.531  1.00144.08     0.149 C 
ENDBRANCH   5  21
TORSDOF 2
ENDMDL
