MODEL 1
REMARK VINA RESULT:      -6.8      0.000      0.000
REMARK  2 active torsions:
REMARK  status: ('A' for Active; 'I' for Inactive)
REMARK    1  A    between atoms: C5_5  and  N6_21 
REMARK    2  A    between atoms: C18_14  and  N17_19 
ROOT
HETATM    1  O1  MIQ B 502       6.228   6.408  17.636  1.00142.91    -0.171 OA
HETATM    2  C2  MIQ B 502       6.411   7.772  17.395  1.00141.17     0.195 A 
HETATM    3  C3  MIQ B 502       7.499   8.407  16.472  1.00141.71     0.035 A 
HETATM    4  C4  MIQ B 502       8.581   7.839  15.633  1.00142.86     0.046 A 
HETATM    5  C5  MIQ B 502       9.431   8.693  14.886  1.00139.53     0.031 A 
HETATM    6  C12 MIQ B 502       9.239  10.135  14.944  1.00139.38     0.030 A 
HETATM    7  C13 MIQ B 502       8.202  10.680  15.748  1.00141.18     0.019 A 
HETATM    8  C14 MIQ B 502       7.310   9.778  16.528  1.00138.77     0.033 A 
HETATM    9  C15 MIQ B 502       6.098   9.995  17.491  1.00142.10     0.195 A 
HETATM   10  N17 MIQ B 502       5.718   8.789  17.879  1.00139.42    -0.288 N 
HETATM   11  O16 MIQ B 502       5.536  11.217  17.865  1.00148.93    -0.171 OA
ENDROOT
BRANCH  10  12
HETATM   12  C18 MIQ B 502       4.615   8.602  18.802  1.00139.82     0.187 C 
HETATM   13  C19 MIQ B 502       3.446   9.467  18.314  1.00140.06     0.247 C 
HETATM   14  O25 MIQ B 502       3.098   9.384  17.190  1.00143.95    -0.271 OA
HETATM   15  N20 MIQ B 502       2.750  10.380  19.198  1.00140.02    -0.296 N 
HETATM   16  H13 MIQ B 502       1.993  10.943  18.866  1.00142.77     0.171 HD
HETATM   17  C21 MIQ B 502       3.200  10.470  20.563  1.00142.22     0.224 C 
HETATM   18  C22 MIQ B 502       4.685  10.287  20.805  1.00139.52     0.106 C 
HETATM   19  O24 MIQ B 502       2.445  10.672  21.450  1.00146.13    -0.273 OA
HETATM   20  C23 MIQ B 502       5.052   8.932  20.228  1.00139.15     0.045 C 
ENDBRANCH  10  12
BRANCH   5  21
HETATM   21  N6  MIQ B 502      10.496   8.125  14.080  1.00140.95    -0.377 N 
HETATM   22  C7  MIQ B 502      11.190   8.986  13.138  1.00142.12     0.149 C 
HETATM   23  C8  MIQ B 502      11.769   8.201  11.969  1.00144.10     0.187 C 
HETATM   24  O9  MIQ B 502      12.477   7.067  12.373  1.00148.65    -0.388 OA
HETATM   25  C10 MIQ B 502      12.418   6.632  13.700  1.00147.44     0.187 C 
HETATM   26  C11 MIQ B 502      11.145   6.895  14.498  1.00144.08     0.149 C 
ENDBRANCH   5  21
TORSDOF 2
ENDMDL
MODEL 2
REMARK VINA RESULT:      -6.7      9.838     13.310
REMARK  2 active torsions:
REMARK  status: ('A' for Active; 'I' for Inactive)
REMARK    1  A    between atoms: C5_5  and  N6_21 
REMARK    2  A    between atoms: C18_14  and  N17_19 
ROOT
HETATM    1  O1  MIQ B 502      18.596  10.448  13.379  1.00142.91    -0.171 OA
HETATM    2  C2  MIQ B 502      18.294  11.443  12.447  1.00141.17     0.195 A 
HETATM    3  C3  MIQ B 502      19.035  11.697  11.096  1.00141.71     0.035 A 
HETATM    4  C4  MIQ B 502      20.179  11.038  10.422  1.00142.86     0.046 A 
HETATM    5  C5  MIQ B 502      20.637  11.506   9.164  1.00139.53     0.031 A 
HETATM    6  C12 MIQ B 502      19.978  12.641   8.533  1.00139.38     0.030 A 
HETATM    7  C13 MIQ B 502      18.881  13.272   9.179  1.00141.18     0.019 A 
HETATM    8  C14 MIQ B 502      18.404  12.775  10.497  1.00138.77     0.033 A 
HETATM    9  C15 MIQ B 502      17.263  13.192  11.482  1.00142.10     0.195 A 
HETATM   10  N17 MIQ B 502      17.339  12.356  12.505  1.00139.42    -0.288 N 
HETATM   11  O16 MIQ B 502      16.354  14.238  11.313  1.00148.93    -0.171 OA
ENDROOT
BRANCH  10  12
HETATM   12  C18 MIQ B 502      16.433  12.456  13.634  1.00139.82     0.187 C 
HETATM   13  C19 MIQ B 502      17.282  12.523  14.909  1.00140.06     0.247 C 
HETATM   14  O25 MIQ B 502      18.158  13.310  14.977  1.00143.95    -0.271 OA
HETATM   15  N20 MIQ B 502      17.033  11.651  16.039  1.00140.02    -0.296 N 
HETATM   16  H13 MIQ B 502      17.599  11.701  16.863  1.00142.77     0.171 HD
HETATM   17  C21 MIQ B 502      15.965  10.692  15.928  1.00142.22     0.224 C 
HETATM   18  C22 MIQ B 502      15.710  10.112  14.550  1.00139.52     0.106 C 
HETATM   19  O24 MIQ B 502      15.317  10.378  16.865  1.00146.13    -0.273 OA
HETATM   20  C23 MIQ B 502      15.447  11.289  13.629  1.00139.15     0.045 C 
ENDBRANCH  10  12
BRANCH   5  21
HETATM   21  N6  MIQ B 502      21.767  10.861   8.523  1.00140.95    -0.377 N 
HETATM   22  C7  MIQ B 502      21.520  10.017   7.366  1.00142.12     0.149 C 
HETATM   23  C8  MIQ B 502      22.592   8.947   7.203  1.00144.10     0.187 C 
HETATM   24  O9  MIQ B 502      23.888   9.455   7.306  1.00148.65    -0.388 OA
HETATM   25  C10 MIQ B 502      24.102  10.765   7.744  1.00147.44     0.187 C 
HETATM   26  C11 MIQ B 502      23.110  11.376   8.728  1.00144.08     0.149 C 
ENDBRANCH   5  21
TORSDOF 2
ENDMDL
MODEL 3
REMARK VINA RESULT:      -6.4      9.219     15.559
REMARK  2 active torsions:
REMARK  status: ('A' for Active; 'I' for Inactive)
REMARK    1  A    between atoms: C5_5  and  N6_21 
REMARK    2  A    between atoms: C18_14  and  N17_19 
ROOT
HETATM    1  O1  MIQ B 502      21.124  10.234  11.073  1.00142.91    -0.171 OA
HETATM    2  C2  MIQ B 502      20.171  11.229  10.840  1.00141.17     0.195 A 
HETATM    3  C3  MIQ B 502      18.895  11.503  11.698  1.00141.71     0.035 A 
HETATM    4  C4  MIQ B 502      18.330  10.872  12.914  1.00142.86     0.046 A 
HETATM    5  C5  MIQ B 502      17.123  11.357  13.478  1.00139.53     0.031 A 
HETATM    6  C12 MIQ B 502      16.436  12.481  12.858  1.00139.38     0.030 A 
HETATM    7  C13 MIQ B 502      16.978  13.086  11.692  1.00141.18     0.019 A 
HETATM    8  C14 MIQ B 502      18.247  12.575  11.106  1.00138.77     0.033 A 
HETATM    9  C15 MIQ B 502      19.126  12.969   9.875  1.00142.10     0.195 A 
HETATM   10  N17 MIQ B 502      20.149  12.130   9.873  1.00139.42    -0.288 N 
HETATM   11  O16 MIQ B 502      18.876  13.996   8.963  1.00148.93    -0.171 OA
ENDROOT
BRANCH  10  12
HETATM   12  C18 MIQ B 502      21.176  12.190   8.849  1.00139.82     0.187 C 
HETATM   13  C19 MIQ B 502      21.306  10.790   8.236  1.00140.06     0.247 C 
HETATM   14  O25 MIQ B 502      20.337  10.235   7.856  1.00143.95    -0.271 OA
HETATM   15  N20 MIQ B 502      22.589  10.130   8.104  1.00140.02    -0.296 N 
HETATM   16  H13 MIQ B 502      22.660   9.214   7.707  1.00142.77     0.171 HD
HETATM   17  C21 MIQ B 502      23.756  10.824   8.584  1.00142.22     0.224 C 
HETATM   18  C22 MIQ B 502      23.569  11.712   9.799  1.00139.52     0.106 C 
HETATM   19  O24 MIQ B 502      24.806  10.708   8.053  1.00146.13    -0.273 OA
HETATM   20  C23 MIQ B 502      22.485  12.712   9.439  1.00139.15     0.045 C 
ENDBRANCH  10  12
BRANCH   5  21
HETATM   21  N6  MIQ B 502      16.573  10.720  14.661  1.00140.95    -0.377 N 
HETATM   22  C7  MIQ B 502      15.132  10.718  14.842  1.00142.12     0.149 C 
HETATM   23  C8  MIQ B 502      14.744  10.634  16.313  1.00144.10     0.187 C 
HETATM   24  O9  MIQ B 502      15.433   9.633  17.000  1.00148.65    -0.388 OA
HETATM   25  C10 MIQ B 502      16.514   8.979  16.402  1.00147.44     0.187 C 
HETATM   26  C11 MIQ B 502      17.363   9.746  15.394  1.00144.08     0.149 C 
ENDBRANCH   5  21
TORSDOF 2
ENDMDL
MODEL 4
REMARK VINA RESULT:      -6.4      3.975      8.375
REMARK  2 active torsions:
REMARK  status: ('A' for Active; 'I' for Inactive)
REMARK    1  A    between atoms: C5_5  and  N6_21 
REMARK    2  A    between atoms: C18_14  and  N17_19 
ROOT
HETATM    1  O1  MIQ B 502      12.004   7.829  18.612  1.00142.91    -0.171 OA
HETATM    2  C2  MIQ B 502      12.001   8.468  17.370  1.00141.17     0.195 A 
HETATM    3  C3  MIQ B 502      10.757   9.085  16.654  1.00141.71     0.035 A 
HETATM    4  C4  MIQ B 502       9.323   9.192  17.013  1.00142.86     0.046 A 
HETATM    5  C5  MIQ B 502       8.410   9.828  16.135  1.00139.53     0.031 A 
HETATM    6  C12 MIQ B 502       8.884  10.378  14.873  1.00139.38     0.030 A 
HETATM    7  C13 MIQ B 502      10.259  10.277  14.529  1.00141.18     0.019 A 
HETATM    8  C14 MIQ B 502      11.214   9.611  15.456  1.00138.77     0.033 A 
HETATM    9  C15 MIQ B 502      12.750   9.318  15.429  1.00142.10     0.195 A 
HETATM   10  N17 MIQ B 502      13.021   8.685  16.558  1.00139.42    -0.288 N 
HETATM   11  O16 MIQ B 502      13.647   9.657  14.414  1.00148.93    -0.171 OA
ENDROOT
BRANCH  10  12
HETATM   12  C18 MIQ B 502      14.366   8.238  16.872  1.00139.82     0.187 C 
HETATM   13  C19 MIQ B 502      14.291   6.751  17.236  1.00140.06     0.247 C 
HETATM   14  O25 MIQ B 502      13.738   6.006  16.506  1.00143.95    -0.271 OA
HETATM   15  N20 MIQ B 502      14.886   6.231  18.450  1.00140.02    -0.296 N 
HETATM   16  H13 MIQ B 502      14.824   5.258  18.679  1.00142.77     0.171 HD
HETATM   17  C21 MIQ B 502      15.546   7.161  19.330  1.00142.22     0.224 C 
HETATM   18  C22 MIQ B 502      14.966   8.560  19.400  1.00139.52     0.106 C 
HETATM   19  O24 MIQ B 502      16.495   6.848  19.960  1.00146.13    -0.273 OA
HETATM   20  C23 MIQ B 502      14.967   9.099  17.981  1.00139.15     0.045 C 
ENDBRANCH  10  12
BRANCH   5  21
HETATM   21  N6  MIQ B 502       7.006   9.912  16.493  1.00140.95    -0.377 N 
HETATM   22  C7  MIQ B 502       6.085   8.940  15.929  1.00142.12     0.149 C 
HETATM   23  C8  MIQ B 502       4.666   9.486  15.838  1.00144.10     0.187 C 
HETATM   24  O9  MIQ B 502       4.241  10.094  17.021  1.00148.65    -0.388 OA
HETATM   25  C10 MIQ B 502       5.150  10.348  18.052  1.00147.44     0.187 C 
HETATM   26  C11 MIQ B 502       6.604  10.630  17.690  1.00144.08     0.149 C 
ENDBRANCH   5  21
TORSDOF 2
ENDMDL
MODEL 5
REMARK VINA RESULT:      -6.3     18.276     19.612
REMARK  2 active torsions:
REMARK  status: ('A' for Active; 'I' for Inactive)
REMARK    1  A    between atoms: C5_5  and  N6_21 
REMARK    2  A    between atoms: C18_14  and  N17_19 
ROOT
HETATM    1  O1  MIQ B 502       0.778  23.013   8.129  1.00142.91    -0.171 OA
HETATM    2  C2  MIQ B 502       1.121  24.343   8.381  1.00141.17     0.195 A 
HETATM    3  C3  MIQ B 502       1.728  25.349   7.353  1.00141.71     0.035 A 
HETATM    4  C4  MIQ B 502       2.100  25.244   5.922  1.00142.86     0.046 A 
HETATM    5  C5  MIQ B 502       2.643  26.362   5.238  1.00139.53     0.031 A 
HETATM    6  C12 MIQ B 502       2.834  27.619   5.947  1.00139.38     0.030 A 
HETATM    7  C13 MIQ B 502       2.477  27.721   7.319  1.00141.18     0.019 A 
HETATM    8  C14 MIQ B 502       1.906  26.545   8.030  1.00138.77     0.033 A 
HETATM    9  C15 MIQ B 502       1.405  26.279   9.488  1.00142.10     0.195 A 
HETATM   10  N17 MIQ B 502       1.004  25.018   9.512  1.00139.42    -0.288 N 
HETATM   11  O16 MIQ B 502       1.390  27.190  10.545  1.00148.93    -0.171 OA
ENDROOT
BRANCH  10  12
HETATM   12  C18 MIQ B 502       0.484  24.412  10.723  1.00139.82     0.187 C 
HETATM   13  C19 MIQ B 502       1.278  23.125  10.980  1.00140.06     0.247 C 
HETATM   14  O25 MIQ B 502       2.457  23.166  10.978  1.00143.95    -0.271 OA
HETATM   15  N20 MIQ B 502       0.621  21.859  11.230  1.00140.02    -0.296 N 
HETATM   16  H13 MIQ B 502       1.150  21.025  11.389  1.00142.77     0.171 HD
HETATM   17  C21 MIQ B 502      -0.819  21.833  11.216  1.00142.22     0.224 C 
HETATM   18  C22 MIQ B 502      -1.509  22.780  10.254  1.00139.52     0.106 C 
HETATM   19  O24 MIQ B 502      -1.431  21.111  11.925  1.00146.13    -0.273 OA
HETATM   20  C23 MIQ B 502      -1.020  24.175  10.597  1.00139.15     0.045 C 
ENDBRANCH  10  12
BRANCH   5  21
HETATM   21  N6  MIQ B 502       3.016  26.240   3.841  1.00140.95    -0.377 N 
HETATM   22  C7  MIQ B 502       2.219  25.382   2.981  1.00142.12     0.149 C 
HETATM   23  C8  MIQ B 502       3.029  24.844   1.808  1.00144.10     0.187 C 
HETATM   24  O9  MIQ B 502       3.759  25.835   1.150  1.00148.65    -0.388 OA
HETATM   25  C10 MIQ B 502       3.875  27.113   1.704  1.00147.44     0.187 C 
HETATM   26  C11 MIQ B 502       3.850  27.255   3.222  1.00144.08     0.149 C 
ENDBRANCH   5  21
TORSDOF 2
ENDMDL
MODEL 6
REMARK VINA RESULT:      -6.3     20.388     22.077
REMARK  2 active torsions:
REMARK  status: ('A' for Active; 'I' for Inactive)
REMARK    1  A    between atoms: C5_5  and  N6_21 
REMARK    2  A    between atoms: C18_14  and  N17_19 
ROOT
HETATM    1  O1  MIQ B 502      14.146  20.367   2.091  1.00142.91    -0.171 OA
HETATM    2  C2  MIQ B 502      15.512  20.122   1.941  1.00141.17     0.195 A 
HETATM    3  C3  MIQ B 502      16.664  20.789   2.758  1.00141.71     0.035 A 
HETATM    4  C4  MIQ B 502      16.691  21.793   3.848  1.00142.86     0.046 A 
HETATM    5  C5  MIQ B 502      17.926  22.212   4.405  1.00139.53     0.031 A 
HETATM    6  C12 MIQ B 502      19.172  21.652   3.904  1.00139.38     0.030 A 
HETATM    7  C13 MIQ B 502      19.147  20.689   2.859  1.00141.18     0.019 A 
HETATM    8  C14 MIQ B 502      17.848  20.250   2.279  1.00138.77     0.033 A 
HETATM    9  C15 MIQ B 502      17.428  19.243   1.160  1.00142.10     0.195 A 
HETATM   10  N17 MIQ B 502      16.107  19.291   1.102  1.00139.42    -0.288 N 
HETATM   11  O16 MIQ B 502      18.279  18.457   0.381  1.00148.93    -0.171 OA
ENDROOT
BRANCH  10  12
HETATM   12  C18 MIQ B 502      15.361  18.487   0.152  1.00139.82     0.187 C 
HETATM   13  C19 MIQ B 502      15.888  17.050   0.239  1.00140.06     0.247 C 
HETATM   14  O25 MIQ B 502      15.963  16.527   1.294  1.00143.95    -0.271 OA
HETATM   15  N20 MIQ B 502      16.292  16.311  -0.939  1.00140.02    -0.296 N 
HETATM   16  H13 MIQ B 502      16.640  15.375  -0.868  1.00142.77     0.171 HD
HETATM   17  C21 MIQ B 502      16.201  16.974  -2.215  1.00142.22     0.224 C 
HETATM   18  C22 MIQ B 502      16.459  18.468  -2.226  1.00139.52     0.106 C 
HETATM   19  O24 MIQ B 502      15.933  16.381  -3.202  1.00146.13    -0.273 OA
HETATM   20  C23 MIQ B 502      15.472  19.083  -1.251  1.00139.15     0.045 C 
ENDBRANCH  10  12
BRANCH   5  21
HETATM   21  N6  MIQ B 502      17.938  23.207   5.462  1.00140.95    -0.377 N 
HETATM   22  C7  MIQ B 502      18.652  22.905   6.691  1.00142.12     0.149 C 
HETATM   23  C8  MIQ B 502      18.080  23.665   7.881  1.00144.10     0.187 C 
HETATM   24  O9  MIQ B 502      17.891  25.023   7.619  1.00148.65    -0.388 OA
HETATM   25  C10 MIQ B 502      18.009  25.516   6.317  1.00147.44     0.187 C 
HETATM   26  C11 MIQ B 502      17.650  24.597   5.154  1.00144.08     0.149 C 
ENDBRANCH   5  21
TORSDOF 2
ENDMDL
MODEL 7
REMARK VINA RESULT:      -6.3      3.006      8.950
REMARK  2 active torsions:
REMARK  status: ('A' for Active; 'I' for Inactive)
REMARK    1  A    between atoms: C5_5  and  N6_21 
REMARK    2  A    between atoms: C18_14  and  N17_19 
ROOT
HETATM    1  O1  MIQ B 502      10.744   9.213  13.120  1.00142.91    -0.171 OA
HETATM    2  C2  MIQ B 502      11.109   9.088  14.462  1.00141.17     0.195 A 
HETATM    3  C3  MIQ B 502      10.138   9.091  15.686  1.00141.71     0.035 A 
HETATM    4  C4  MIQ B 502       8.666   9.211  15.819  1.00142.86     0.046 A 
HETATM    5  C5  MIQ B 502       8.057   9.178  17.098  1.00139.53     0.031 A 
HETATM    6  C12 MIQ B 502       8.883   9.024  18.288  1.00139.38     0.030 A 
HETATM    7  C13 MIQ B 502      10.293   8.907  18.161  1.00141.18     0.019 A 
HETATM    8  C14 MIQ B 502      10.927   8.941  16.814  1.00138.77     0.033 A 
HETATM    9  C15 MIQ B 502      12.396   8.843  16.288  1.00142.10     0.195 A 
HETATM   10  N17 MIQ B 502      12.320   8.939  14.971  1.00139.42    -0.288 N 
HETATM   11  O16 MIQ B 502      13.551   8.688  17.057  1.00148.93    -0.171 OA
ENDROOT
BRANCH  10  12
HETATM   12  C18 MIQ B 502      13.508   8.903  14.139  1.00139.82     0.187 C 
HETATM   13  C19 MIQ B 502      14.295   7.637  14.501  1.00140.06     0.247 C 
HETATM   14  O25 MIQ B 502      13.738   6.598  14.518  1.00143.95    -0.271 OA
HETATM   15  N20 MIQ B 502      15.707   7.681  14.818  1.00140.02    -0.296 N 
HETATM   16  H13 MIQ B 502      16.208   6.849  15.060  1.00142.77     0.171 HD
HETATM   17  C21 MIQ B 502      16.363   8.964  14.801  1.00142.22     0.224 C 
HETATM   18  C22 MIQ B 502      15.532  10.159  15.225  1.00139.52     0.106 C 
HETATM   19  O24 MIQ B 502      17.491   9.076  14.467  1.00146.13    -0.273 OA
HETATM   20  C23 MIQ B 502      14.318  10.186  14.314  1.00139.15     0.045 C 
ENDBRANCH  10  12
BRANCH   5  21
HETATM   21  N6  MIQ B 502       6.617   9.312  17.215  1.00140.95    -0.377 N 
HETATM   22  C7  MIQ B 502       5.800   9.079  16.036  1.00142.12     0.149 C 
HETATM   23  C8  MIQ B 502       4.483   9.841  16.097  1.00144.10     0.187 C 
HETATM   24  O9  MIQ B 502       3.824   9.691  17.319  1.00148.65    -0.388 OA
HETATM   25  C10 MIQ B 502       4.470   9.090  18.402  1.00147.44     0.187 C 
HETATM   26  C11 MIQ B 502       5.984   9.234  18.520  1.00144.08     0.149 C 
ENDBRANCH   5  21
TORSDOF 2
ENDMDL
MODEL 8
REMARK VINA RESULT:      -6.3     11.380     14.142
REMARK  2 active torsions:
REMARK  status: ('A' for Active; 'I' for Inactive)
REMARK    1  A    between atoms: C5_5  and  N6_21 
REMARK    2  A    between atoms: C18_14  and  N17_19 
ROOT
HETATM    1  O1  MIQ B 502      19.971   9.680  12.780  1.00142.91    -0.171 OA
HETATM    2  C2  MIQ B 502      19.327  10.797  12.243  1.00141.17     0.195 A 
HETATM    3  C3  MIQ B 502      19.604  11.439  10.847  1.00141.71     0.035 A 
HETATM    4  C4  MIQ B 502      20.537  11.113   9.742  1.00142.86     0.046 A 
HETATM    5  C5  MIQ B 502      20.556  11.901   8.564  1.00139.53     0.031 A 
HETATM    6  C12 MIQ B 502      19.653  13.036   8.439  1.00139.38     0.030 A 
HETATM    7  C13 MIQ B 502      18.758  13.348   9.497  1.00141.18     0.019 A 
HETATM    8  C14 MIQ B 502      18.740  12.516  10.731  1.00138.77     0.033 A 
HETATM    9  C15 MIQ B 502      17.922  12.542  12.063  1.00142.10     0.195 A 
HETATM   10  N17 MIQ B 502      18.367  11.527  12.785  1.00139.42    -0.288 N 
HETATM   11  O16 MIQ B 502      16.927  13.456  12.415  1.00148.93    -0.171 OA
ENDROOT
BRANCH  10  12
HETATM   12  C18 MIQ B 502      17.839  11.250  14.108  1.00139.82     0.187 C 
HETATM   13  C19 MIQ B 502      19.028  11.129  15.070  1.00140.06     0.247 C 
HETATM   14  O25 MIQ B 502      19.842  11.982  15.090  1.00143.95    -0.271 OA
HETATM   15  N20 MIQ B 502      19.177   9.996  15.960  1.00140.02    -0.296 N 
HETATM   16  H13 MIQ B 502      19.961   9.925  16.578  1.00142.77     0.171 HD
HETATM   17  C21 MIQ B 502      18.177   8.961  15.909  1.00142.22     0.224 C 
HETATM   18  C22 MIQ B 502      17.549   8.686  14.556  1.00139.52     0.106 C 
HETATM   19  O24 MIQ B 502      17.858   8.362  16.876  1.00146.13    -0.273 OA
HETATM   20  C23 MIQ B 502      16.960  10.001  14.079  1.00139.15     0.045 C 
ENDBRANCH  10  12
BRANCH   5  21
HETATM   21  N6  MIQ B 502      21.486  11.579   7.497  1.00140.95    -0.377 N 
HETATM   22  C7  MIQ B 502      22.274  12.652   6.915  1.00142.12     0.149 C 
HETATM   23  C8  MIQ B 502      22.677  12.347   5.478  1.00144.10     0.187 C 
HETATM   24  O9  MIQ B 502      23.209  11.065   5.323  1.00148.65    -0.388 OA
HETATM   25  C10 MIQ B 502      23.130  10.136   6.364  1.00147.44     0.187 C 
HETATM   26  C11 MIQ B 502      21.946  10.212   7.322  1.00144.08     0.149 C 
ENDBRANCH   5  21
TORSDOF 2
ENDMDL
MODEL 9
REMARK VINA RESULT:      -6.2      9.948     13.824
REMARK  2 active torsions:
REMARK  status: ('A' for Active; 'I' for Inactive)
REMARK    1  A    between atoms: C5_5  and  N6_21 
REMARK    2  A    between atoms: C18_14  and  N17_19 
ROOT
HETATM    1  O1  MIQ B 502      17.168  13.591  10.648  1.00142.91    -0.171 OA
HETATM    2  C2  MIQ B 502      18.030  12.688  11.274  1.00141.17     0.195 A 
HETATM    3  C3  MIQ B 502      19.309  12.048  10.648  1.00141.71     0.035 A 
HETATM    4  C4  MIQ B 502      19.968  12.172   9.326  1.00142.86     0.046 A 
HETATM    5  C5  MIQ B 502      21.153  11.446   9.045  1.00139.53     0.031 A 
HETATM    6  C12 MIQ B 502      21.725  10.575  10.061  1.00139.38     0.030 A 
HETATM    7  C13 MIQ B 502      21.094  10.456  11.329  1.00141.18     0.019 A 
HETATM    8  C14 MIQ B 502      19.852  11.223  11.619  1.00138.77     0.033 A 
HETATM    9  C15 MIQ B 502      18.904  11.352  12.856  1.00142.10     0.195 A 
HETATM   10  N17 MIQ B 502      17.952  12.199  12.500  1.00139.42    -0.288 N 
HETATM   11  O16 MIQ B 502      19.037  10.700  14.083  1.00148.93    -0.171 OA
ENDROOT
BRANCH  10  12
HETATM   12  C18 MIQ B 502      16.874  12.551  13.405  1.00139.82     0.187 C 
HETATM   13  C19 MIQ B 502      17.495  12.881  14.768  1.00140.06     0.247 C 
HETATM   14  O25 MIQ B 502      18.386  13.653  14.823  1.00143.95    -0.271 OA
HETATM   15  N20 MIQ B 502      17.015  12.275  15.993  1.00140.02    -0.296 N 
HETATM   16  H13 MIQ B 502      17.434  12.494  16.875  1.00142.77     0.171 HD
HETATM   17  C21 MIQ B 502      15.935  11.328  15.898  1.00142.22     0.224 C 
HETATM   18  C22 MIQ B 502      15.889  10.468  14.650  1.00139.52     0.106 C 
HETATM   19  O24 MIQ B 502      15.122  11.231  16.751  1.00146.13    -0.273 OA
HETATM   20  C23 MIQ B 502      15.846  11.423  13.471  1.00139.15     0.045 C 
ENDBRANCH  10  12
BRANCH   5  21
HETATM   21  N6  MIQ B 502      21.779  11.566   7.741  1.00140.95    -0.377 N 
HETATM   22  C7  MIQ B 502      22.351  12.846   7.360  1.00142.12     0.149 C 
HETATM   23  C8  MIQ B 502      22.372  13.032   5.848  1.00144.10     0.187 C 
HETATM   24  O9  MIQ B 502      22.886  11.924   5.171  1.00148.65    -0.388 OA
HETATM   25  C10 MIQ B 502      23.114  10.724   5.850  1.00147.44     0.187 C 
HETATM   26  C11 MIQ B 502      22.221  10.375   7.036  1.00144.08     0.149 C 
ENDBRANCH   5  21
TORSDOF 2
ENDMDL
