MODEL 1
REMARK VINA RESULT:      -7.6      0.000      0.000
REMARK  2 active torsions:
REMARK  status: ('A' for Active; 'I' for Inactive)
REMARK    1  A    between atoms: C5_5  and  N6_21 
REMARK    2  A    between atoms: C18_14  and  N17_19 
ROOT
HETATM    1  O1  MIQ B 502      11.705 -12.412  -2.474  1.00142.91    -0.171 OA
HETATM    2  C2  MIQ B 502      11.691 -13.552  -3.282  1.00141.17     0.195 A 
HETATM    3  C3  MIQ B 502      11.785 -15.031  -2.791  1.00141.71     0.035 A 
HETATM    4  C4  MIQ B 502      11.904 -15.655  -1.452  1.00142.86     0.046 A 
HETATM    5  C5  MIQ B 502      11.969 -17.065  -1.321  1.00139.53     0.031 A 
HETATM    6  C12 MIQ B 502      11.917 -17.904  -2.510  1.00139.38     0.030 A 
HETATM    7  C13 MIQ B 502      11.802 -17.307  -3.794  1.00141.18     0.019 A 
HETATM    8  C14 MIQ B 502      11.732 -15.826  -3.925  1.00138.77     0.033 A 
HETATM    9  C15 MIQ B 502      11.603 -14.833  -5.126  1.00142.10     0.195 A 
HETATM   10  N17 MIQ B 502      11.592 -13.620  -4.598  1.00139.42    -0.288 N 
HETATM   11  O16 MIQ B 502      11.520 -15.165  -6.480  1.00148.93    -0.171 OA
ENDROOT
BRANCH  10  12
HETATM   12  C18 MIQ B 502      11.499 -12.434  -5.429  1.00139.82     0.187 C 
HETATM   13  C19 MIQ B 502      10.312 -12.622  -6.382  1.00140.06     0.247 C 
HETATM   14  O25 MIQ B 502       9.264 -12.935  -5.941  1.00143.95    -0.271 OA
HETATM   15  N20 MIQ B 502      10.441 -12.421  -7.810  1.00140.02    -0.296 N 
HETATM   16  H13 MIQ B 502       9.660 -12.553  -8.423  1.00142.77     0.171 HD
HETATM   17  C21 MIQ B 502      11.733 -12.050  -8.326  1.00142.22     0.224 C 
HETATM   18  C22 MIQ B 502      12.942 -12.616  -7.606  1.00139.52     0.106 C 
HETATM   19  O24 MIQ B 502      11.844 -11.334  -9.260  1.00146.13    -0.273 OA
HETATM   20  C23 MIQ B 502      12.820 -12.188  -6.155  1.00139.15     0.045 C 
ENDBRANCH  10  12
BRANCH   5  21
HETATM   21  N6  MIQ B 502      12.100 -17.662  -0.005  1.00140.95    -0.377 N 
HETATM   22  C7  MIQ B 502      12.010 -19.107   0.115  1.00142.12     0.149 C 
HETATM   23  C8  MIQ B 502      11.524 -19.534   1.494  1.00144.10     0.187 C 
HETATM   24  O9  MIQ B 502      12.201 -18.891   2.532  1.00148.65    -0.388 OA
HETATM   25  C10 MIQ B 502      13.050 -17.814   2.263  1.00147.44     0.187 C 
HETATM   26  C11 MIQ B 502      12.736 -16.919   1.069  1.00144.08     0.149 C 
ENDBRANCH   5  21
TORSDOF 2
ENDMDL
MODEL 2
REMARK VINA RESULT:      -7.5      5.044      8.480
REMARK  2 active torsions:
REMARK  status: ('A' for Active; 'I' for Inactive)
REMARK    1  A    between atoms: C5_5  and  N6_21 
REMARK    2  A    between atoms: C18_14  and  N17_19 
ROOT
HETATM    1  O1  MIQ B 502       8.929  -9.903 -10.452  1.00142.91    -0.171 OA
HETATM    2  C2  MIQ B 502      10.307  -9.880 -10.674  1.00141.17     0.195 A 
HETATM    3  C3  MIQ B 502      11.415 -10.262  -9.640  1.00141.71     0.035 A 
HETATM    4  C4  MIQ B 502      11.378 -10.728  -8.234  1.00142.86     0.046 A 
HETATM    5  C5  MIQ B 502      12.583 -11.003  -7.539  1.00139.53     0.031 A 
HETATM    6  C12 MIQ B 502      13.862 -10.826  -8.212  1.00139.38     0.030 A 
HETATM    7  C13 MIQ B 502      13.897 -10.379  -9.560  1.00141.18     0.019 A 
HETATM    8  C14 MIQ B 502      12.629 -10.095 -10.286  1.00138.77     0.033 A 
HETATM    9  C15 MIQ B 502      12.274  -9.607 -11.728  1.00142.10     0.195 A 
HETATM   10  N17 MIQ B 502      10.953  -9.544 -11.778  1.00139.42    -0.288 N 
HETATM   11  O16 MIQ B 502      13.172  -9.300 -12.752  1.00148.93    -0.171 OA
ENDROOT
BRANCH  10  12
HETATM   12  C18 MIQ B 502      10.260  -9.108 -12.975  1.00139.82     0.187 C 
HETATM   13  C19 MIQ B 502       9.334  -7.950 -12.585  1.00140.06     0.247 C 
HETATM   14  O25 MIQ B 502       9.775  -7.041 -11.976  1.00143.95    -0.271 OA
HETATM   15  N20 MIQ B 502       7.932  -7.937 -12.948  1.00140.02    -0.296 N 
HETATM   16  H13 MIQ B 502       7.337  -7.177 -12.681  1.00142.77     0.171 HD
HETATM   17  C21 MIQ B 502       7.415  -9.062 -13.682  1.00142.22     0.224 C 
HETATM   18  C22 MIQ B 502       8.026 -10.416 -13.374  1.00139.52     0.106 C 
HETATM   19  O24 MIQ B 502       6.560  -8.934 -14.489  1.00146.13    -0.273 OA
HETATM   20  C23 MIQ B 502       9.518 -10.280 -13.617  1.00139.15     0.045 C 
ENDBRANCH  10  12
BRANCH   5  21
HETATM   21  N6  MIQ B 502      12.533 -11.445  -6.157  1.00140.95    -0.377 N 
HETATM   22  C7  MIQ B 502      11.665 -12.558  -5.815  1.00142.12     0.149 C 
HETATM   23  C8  MIQ B 502      11.215 -12.502  -4.361  1.00144.10     0.187 C 
HETATM   24  O9  MIQ B 502      12.268 -12.272  -3.474  1.00148.65    -0.388 OA
HETATM   25  C10 MIQ B 502      13.530 -11.908  -3.953  1.00147.44     0.187 C 
HETATM   26  C11 MIQ B 502      13.615 -11.108  -5.248  1.00144.08     0.149 C 
ENDBRANCH   5  21
TORSDOF 2
ENDMDL
MODEL 3
REMARK VINA RESULT:      -7.1      1.754      2.986
REMARK  2 active torsions:
REMARK  status: ('A' for Active; 'I' for Inactive)
REMARK    1  A    between atoms: C5_5  and  N6_21 
REMARK    2  A    between atoms: C18_14  and  N17_19 
ROOT
HETATM    1  O1  MIQ B 502      11.438 -16.551  -4.203  1.00142.91    -0.171 OA
HETATM    2  C2  MIQ B 502      11.849 -15.783  -3.112  1.00141.17     0.195 A 
HETATM    3  C3  MIQ B 502      12.125 -16.308  -1.667  1.00141.71     0.035 A 
HETATM    4  C4  MIQ B 502      12.055 -17.649  -1.039  1.00142.86     0.046 A 
HETATM    5  C5  MIQ B 502      12.376 -17.816   0.332  1.00139.53     0.031 A 
HETATM    6  C12 MIQ B 502      12.776 -16.664   1.126  1.00139.38     0.030 A 
HETATM    7  C13 MIQ B 502      12.844 -15.378   0.524  1.00141.18     0.019 A 
HETATM    8  C14 MIQ B 502      12.509 -15.209  -0.916  1.00138.77     0.033 A 
HETATM    9  C15 MIQ B 502      12.471 -13.995  -1.900  1.00142.10     0.195 A 
HETATM   10  N17 MIQ B 502      12.091 -14.484  -3.069  1.00139.42    -0.288 N 
HETATM   11  O16 MIQ B 502      12.776 -12.666  -1.601  1.00148.93    -0.171 OA
ENDROOT
BRANCH  10  12
HETATM   12  C18 MIQ B 502      11.929 -13.630  -4.231  1.00139.82     0.187 C 
HETATM   13  C19 MIQ B 502      10.519 -13.861  -4.788  1.00140.06     0.247 C 
HETATM   14  O25 MIQ B 502       9.593 -13.793  -4.059  1.00143.95    -0.271 OA
HETATM   15  N20 MIQ B 502      10.289 -14.154  -6.188  1.00140.02    -0.296 N 
HETATM   16  H13 MIQ B 502       9.364 -14.309  -6.537  1.00142.77     0.171 HD
HETATM   17  C21 MIQ B 502      11.435 -14.242  -7.055  1.00142.22     0.224 C 
HETATM   18  C22 MIQ B 502      12.711 -14.789  -6.445  1.00139.52     0.106 C 
HETATM   19  O24 MIQ B 502      11.382 -13.900  -8.185  1.00146.13    -0.273 OA
HETATM   20  C23 MIQ B 502      13.031 -13.907  -5.252  1.00139.15     0.045 C 
ENDBRANCH  10  12
BRANCH   5  21
HETATM   21  N6  MIQ B 502      12.289 -19.133   0.937  1.00140.95    -0.377 N 
HETATM   22  C7  MIQ B 502      11.835 -19.236   2.313  1.00142.12     0.149 C 
HETATM   23  C8  MIQ B 502      12.382 -20.480   3.001  1.00144.10     0.187 C 
HETATM   24  O9  MIQ B 502      12.228 -21.637   2.234  1.00148.65    -0.388 OA
HETATM   25  C10 MIQ B 502      11.827 -21.552   0.898  1.00147.44     0.187 C 
HETATM   26  C11 MIQ B 502      12.217 -20.315   0.096  1.00144.08     0.149 C 
ENDBRANCH   5  21
TORSDOF 2
ENDMDL
MODEL 4
REMARK VINA RESULT:      -7.1      4.256      6.576
REMARK  2 active torsions:
REMARK  status: ('A' for Active; 'I' for Inactive)
REMARK    1  A    between atoms: C5_5  and  N6_21 
REMARK    2  A    between atoms: C18_14  and  N17_19 
ROOT
HETATM    1  O1  MIQ B 502      13.638 -15.629  -2.720  1.00142.91    -0.171 OA
HETATM    2  C2  MIQ B 502      12.975 -14.422  -2.952  1.00141.17     0.195 A 
HETATM    3  C3  MIQ B 502      13.452 -13.006  -2.500  1.00141.71     0.035 A 
HETATM    4  C4  MIQ B 502      14.640 -12.520  -1.758  1.00142.86     0.046 A 
HETATM    5  C5  MIQ B 502      14.803 -11.136  -1.493  1.00139.53     0.031 A 
HETATM    6  C12 MIQ B 502      13.797 -10.189  -1.952  1.00139.38     0.030 A 
HETATM    7  C13 MIQ B 502      12.659 -10.655  -2.664  1.00141.18     0.019 A 
HETATM    8  C14 MIQ B 502      12.495 -12.108  -2.942  1.00138.77     0.033 A 
HETATM    9  C15 MIQ B 502      11.416 -12.972  -3.674  1.00142.10     0.195 A 
HETATM   10  N17 MIQ B 502      11.834 -14.225  -3.591  1.00139.42    -0.288 N 
HETATM   11  O16 MIQ B 502      10.250 -12.511  -4.286  1.00148.93    -0.171 OA
ENDROOT
BRANCH  10  12
HETATM   12  C18 MIQ B 502      11.065 -15.319  -4.154  1.00139.82     0.187 C 
HETATM   13  C19 MIQ B 502      10.860 -16.363  -3.050  1.00140.06     0.247 C 
HETATM   14  O25 MIQ B 502      10.436 -16.020  -2.004  1.00143.95    -0.271 OA
HETATM   15  N20 MIQ B 502      11.167 -17.764  -3.258  1.00140.02    -0.296 N 
HETATM   16  H13 MIQ B 502      11.034 -18.435  -2.527  1.00142.77     0.171 HD
HETATM   17  C21 MIQ B 502      11.693 -18.156  -4.540  1.00142.22     0.224 C 
HETATM   18  C22 MIQ B 502      12.582 -17.152  -5.248  1.00139.52     0.106 C 
HETATM   19  O24 MIQ B 502      11.438 -19.208  -5.016  1.00146.13    -0.273 OA
HETATM   20  C23 MIQ B 502      11.766 -15.880  -5.390  1.00139.15     0.045 C 
ENDBRANCH  10  12
BRANCH   5  21
HETATM   21  N6  MIQ B 502      15.963 -10.676  -0.752  1.00140.95    -0.377 N 
HETATM   22  C7  MIQ B 502      15.763  -9.744   0.344  1.00142.12     0.149 C 
HETATM   23  C8  MIQ B 502      16.993  -8.880   0.588  1.00144.10     0.187 C 
HETATM   24  O9  MIQ B 502      18.175  -9.621   0.643  1.00148.65    -0.388 OA
HETATM   25  C10 MIQ B 502      18.184 -10.968   0.272  1.00147.44     0.187 C 
HETATM   26  C11 MIQ B 502      17.200 -11.437  -0.794  1.00144.08     0.149 C 
ENDBRANCH   5  21
TORSDOF 2
ENDMDL
MODEL 5
REMARK VINA RESULT:      -7.1      2.915      4.934
REMARK  2 active torsions:
REMARK  status: ('A' for Active; 'I' for Inactive)
REMARK    1  A    between atoms: C5_5  and  N6_21 
REMARK    2  A    between atoms: C18_14  and  N17_19 
ROOT
HETATM    1  O1  MIQ B 502      14.570 -14.453  -8.859  1.00142.91    -0.171 OA
HETATM    2  C2  MIQ B 502      13.545 -13.690  -8.296  1.00141.17     0.195 A 
HETATM    3  C3  MIQ B 502      12.643 -14.103  -7.089  1.00141.71     0.035 A 
HETATM    4  C4  MIQ B 502      12.582 -15.309  -6.229  1.00142.86     0.046 A 
HETATM    5  C5  MIQ B 502      11.629 -15.395  -5.182  1.00139.53     0.031 A 
HETATM    6  C12 MIQ B 502      10.708 -14.292  -4.952  1.00139.38     0.030 A 
HETATM    7  C13 MIQ B 502      10.767 -13.135  -5.775  1.00141.18     0.019 A 
HETATM    8  C14 MIQ B 502      11.771 -13.050  -6.871  1.00138.77     0.033 A 
HETATM    9  C15 MIQ B 502      12.133 -11.976  -7.949  1.00142.10     0.195 A 
HETATM   10  N17 MIQ B 502      13.132 -12.485  -8.650  1.00139.42    -0.288 N 
HETATM   11  O16 MIQ B 502      11.520 -10.735  -8.131  1.00148.93    -0.171 OA
ENDROOT
BRANCH  10  12
HETATM   12  C18 MIQ B 502      13.723 -11.762  -9.761  1.00139.82     0.187 C 
HETATM   13  C19 MIQ B 502      14.197 -10.402  -9.234  1.00140.06     0.247 C 
HETATM   14  O25 MIQ B 502      14.877 -10.362  -8.271  1.00143.95    -0.271 OA
HETATM   15  N20 MIQ B 502      13.838  -9.162  -9.890  1.00140.02    -0.296 N 
HETATM   16  H13 MIQ B 502      14.148  -8.280  -9.533  1.00142.77     0.171 HD
HETATM   17  C21 MIQ B 502      12.998  -9.235 -11.058  1.00142.22     0.224 C 
HETATM   18  C22 MIQ B 502      11.965 -10.345 -11.086  1.00139.52     0.106 C 
HETATM   19  O24 MIQ B 502      13.115  -8.471 -11.952  1.00146.13    -0.273 OA
HETATM   20  C23 MIQ B 502      12.725 -11.647 -10.912  1.00139.15     0.045 C 
ENDBRANCH  10  12
BRANCH   5  21
HETATM   21  N6  MIQ B 502      11.570 -16.588  -4.357  1.00140.95    -0.377 N 
HETATM   22  C7  MIQ B 502      11.861 -17.872  -4.971  1.00142.12     0.149 C 
HETATM   23  C8  MIQ B 502      11.168 -19.018  -4.246  1.00144.10     0.187 C 
HETATM   24  O9  MIQ B 502      11.337 -18.967  -2.861  1.00148.65    -0.388 OA
HETATM   25  C10 MIQ B 502      11.890 -17.835  -2.257  1.00147.44     0.187 C 
HETATM   26  C11 MIQ B 502      11.665 -16.476  -2.912  1.00144.08     0.149 C 
ENDBRANCH   5  21
TORSDOF 2
ENDMDL
MODEL 6
REMARK VINA RESULT:      -7.0      2.609      4.270
REMARK  2 active torsions:
REMARK  status: ('A' for Active; 'I' for Inactive)
REMARK    1  A    between atoms: C5_5  and  N6_21 
REMARK    2  A    between atoms: C18_14  and  N17_19 
ROOT
HETATM    1  O1  MIQ B 502      11.742 -17.813  -3.955  1.00142.91    -0.171 OA
HETATM    2  C2  MIQ B 502      11.908 -17.327  -2.656  1.00141.17     0.195 A 
HETATM    3  C3  MIQ B 502      11.892 -18.176  -1.344  1.00141.71     0.035 A 
HETATM    4  C4  MIQ B 502      11.718 -19.621  -1.068  1.00142.86     0.046 A 
HETATM    5  C5  MIQ B 502      11.754 -20.106   0.264  1.00139.53     0.031 A 
HETATM    6  C12 MIQ B 502      11.964 -19.177   1.365  1.00139.38     0.030 A 
HETATM    7  C13 MIQ B 502      12.133 -17.792   1.101  1.00141.18     0.019 A 
HETATM    8  C14 MIQ B 502      12.096 -17.289  -0.300  1.00138.77     0.033 A 
HETATM    9  C15 MIQ B 502      12.241 -15.882  -0.967  1.00142.10     0.195 A 
HETATM   10  N17 MIQ B 502      12.115 -16.080  -2.269  1.00139.42    -0.288 N 
HETATM   11  O16 MIQ B 502      12.456 -14.666  -0.315  1.00148.93    -0.171 OA
ENDROOT
BRANCH  10  12
HETATM   12  C18 MIQ B 502      12.180 -14.980  -3.212  1.00139.82     0.187 C 
HETATM   13  C19 MIQ B 502      10.903 -15.014  -4.060  1.00140.06     0.247 C 
HETATM   14  O25 MIQ B 502       9.855 -15.071  -3.521  1.00143.95    -0.271 OA
HETATM   15  N20 MIQ B 502      10.945 -14.974  -5.507  1.00140.02    -0.296 N 
HETATM   16  H13 MIQ B 502      10.104 -15.003  -6.049  1.00142.77     0.171 HD
HETATM   17  C21 MIQ B 502      12.236 -14.915  -6.143  1.00142.22     0.224 C 
HETATM   18  C22 MIQ B 502      13.371 -15.643  -5.448  1.00139.52     0.106 C 
HETATM   19  O24 MIQ B 502      12.402 -14.324  -7.153  1.00146.13    -0.273 OA
HETATM   20  C23 MIQ B 502      13.457 -15.069  -4.046  1.00139.15     0.045 C 
ENDBRANCH  10  12
BRANCH   5  21
HETATM   21  N6  MIQ B 502      11.566 -21.522   0.521  1.00140.95    -0.377 N 
HETATM   22  C7  MIQ B 502      11.115 -22.372  -0.568  1.00142.12     0.149 C 
HETATM   23  C8  MIQ B 502      10.367 -23.598  -0.060  1.00144.10     0.187 C 
HETATM   24  O9  MIQ B 502      11.039 -24.256   0.972  1.00148.65    -0.388 OA
HETATM   25  C10 MIQ B 502      12.150 -23.667   1.581  1.00147.44     0.187 C 
HETATM   26  C11 MIQ B 502      12.219 -22.146   1.659  1.00144.08     0.149 C 
ENDBRANCH   5  21
TORSDOF 2
ENDMDL
MODEL 7
REMARK VINA RESULT:      -7.0      2.377      8.952
REMARK  2 active torsions:
REMARK  status: ('A' for Active; 'I' for Inactive)
REMARK    1  A    between atoms: C5_5  and  N6_21 
REMARK    2  A    between atoms: C18_14  and  N17_19 
ROOT
HETATM    1  O1  MIQ B 502       9.584 -13.460  -5.551  1.00142.91    -0.171 OA
HETATM    2  C2  MIQ B 502      10.843 -13.988  -5.846  1.00141.17     0.195 A 
HETATM    3  C3  MIQ B 502      11.751 -13.589  -7.052  1.00141.71     0.035 A 
HETATM    4  C4  MIQ B 502      11.602 -12.620  -8.164  1.00142.86     0.046 A 
HETATM    5  C5  MIQ B 502      12.627 -12.476  -9.132  1.00139.53     0.031 A 
HETATM    6  C12 MIQ B 502      13.833 -13.285  -9.033  1.00139.38     0.030 A 
HETATM    7  C13 MIQ B 502      13.978 -14.214  -7.967  1.00141.18     0.019 A 
HETATM    8  C14 MIQ B 502      12.899 -14.358  -6.952  1.00138.77     0.033 A 
HETATM    9  C15 MIQ B 502      12.702 -15.240  -5.676  1.00142.10     0.195 A 
HETATM   10  N17 MIQ B 502      11.519 -14.911  -5.183  1.00139.42    -0.288 N 
HETATM   11  O16 MIQ B 502      13.595 -16.184  -5.166  1.00148.93    -0.171 OA
ENDROOT
BRANCH  10  12
HETATM   12  C18 MIQ B 502      10.990 -15.549  -3.992  1.00139.82     0.187 C 
HETATM   13  C19 MIQ B 502      11.996 -15.326  -2.856  1.00140.06     0.247 C 
HETATM   14  O25 MIQ B 502      12.383 -14.233  -2.636  1.00143.95    -0.271 OA
HETATM   15  N20 MIQ B 502      12.482 -16.419  -2.040  1.00140.02    -0.296 N 
HETATM   16  H13 MIQ B 502      13.144 -16.261  -1.306  1.00142.77     0.171 HD
HETATM   17  C21 MIQ B 502      12.003 -17.745  -2.335  1.00142.22     0.224 C 
HETATM   18  C22 MIQ B 502      11.714 -18.057  -3.791  1.00139.52     0.106 C 
HETATM   19  O24 MIQ B 502      11.839 -18.547  -1.482  1.00146.13    -0.273 OA
HETATM   20  C23 MIQ B 502      10.705 -17.025  -4.261  1.00139.15     0.045 C 
ENDBRANCH  10  12
BRANCH   5  21
HETATM   21  N6  MIQ B 502      12.461 -11.534 -10.224  1.00140.95    -0.377 N 
HETATM   22  C7  MIQ B 502      11.598 -10.382 -10.022  1.00142.12     0.149 C 
HETATM   23  C8  MIQ B 502      11.011  -9.875 -11.333  1.00144.10     0.187 C 
HETATM   24  O9  MIQ B 502      11.969  -9.734 -12.339  1.00148.65    -0.388 OA
HETATM   25  C10 MIQ B 502      13.258 -10.244 -12.165  1.00147.44     0.187 C 
HETATM   26  C11 MIQ B 502      13.441 -11.483 -11.294  1.00144.08     0.149 C 
ENDBRANCH   5  21
TORSDOF 2
ENDMDL
MODEL 8
REMARK VINA RESULT:      -7.0      1.529      2.836
REMARK  2 active torsions:
REMARK  status: ('A' for Active; 'I' for Inactive)
REMARK    1  A    between atoms: C5_5  and  N6_21 
REMARK    2  A    between atoms: C18_14  and  N17_19 
ROOT
HETATM    1  O1  MIQ B 502      12.168 -17.608  -4.862  1.00142.91    -0.171 OA
HETATM    2  C2  MIQ B 502      12.258 -16.404  -4.159  1.00141.17     0.195 A 
HETATM    3  C3  MIQ B 502      12.378 -16.247  -2.610  1.00141.71     0.035 A 
HETATM    4  C4  MIQ B 502      12.435 -17.214  -1.489  1.00142.86     0.046 A 
HETATM    5  C5  MIQ B 502      12.549 -16.757  -0.152  1.00139.53     0.031 A 
HETATM    6  C12 MIQ B 502      12.612 -15.328   0.120  1.00139.38     0.030 A 
HETATM    7  C13 MIQ B 502      12.559 -14.400  -0.955  1.00141.18     0.019 A 
HETATM    8  C14 MIQ B 502      12.441 -14.886  -2.357  1.00138.77     0.033 A 
HETATM    9  C15 MIQ B 502      12.361 -14.195  -3.757  1.00142.10     0.195 A 
HETATM   10  N17 MIQ B 502      12.266 -15.173  -4.642  1.00139.42    -0.288 N 
HETATM   11  O16 MIQ B 502      12.382 -12.823  -4.014  1.00148.93    -0.171 OA
ENDROOT
BRANCH  10  12
HETATM   12  C18 MIQ B 502      12.154 -14.901  -6.063  1.00139.82     0.187 C 
HETATM   13  C19 MIQ B 502      13.332 -14.002  -6.461  1.00140.06     0.247 C 
HETATM   14  O25 MIQ B 502      14.427 -14.320  -6.158  1.00143.95    -0.271 OA
HETATM   15  N20 MIQ B 502      13.139 -12.774  -7.205  1.00140.02    -0.296 N 
HETATM   16  H13 MIQ B 502      13.915 -12.193  -7.452  1.00142.77     0.171 HD
HETATM   17  C21 MIQ B 502      11.792 -12.402  -7.554  1.00142.22     0.224 C 
HETATM   18  C22 MIQ B 502      10.703 -12.780  -6.568  1.00139.52     0.106 C 
HETATM   19  O24 MIQ B 502      11.549 -11.836  -8.562  1.00146.13    -0.273 OA
HETATM   20  C23 MIQ B 502      10.793 -14.284  -6.381  1.00139.15     0.045 C 
ENDBRANCH  10  12
BRANCH   5  21
HETATM   21  N6  MIQ B 502      12.588 -17.715   0.937  1.00140.95    -0.377 N 
HETATM   22  C7  MIQ B 502      13.263 -17.340   2.168  1.00142.12     0.149 C 
HETATM   23  C8  MIQ B 502      13.787 -18.556   2.922  1.00144.10     0.187 C 
HETATM   24  O9  MIQ B 502      12.836 -19.570   3.048  1.00148.65    -0.388 OA
HETATM   25  C10 MIQ B 502      11.636 -19.507   2.334  1.00147.44     0.187 C 
HETATM   26  C11 MIQ B 502      11.630 -18.805   0.980  1.00144.08     0.149 C 
ENDBRANCH   5  21
TORSDOF 2
ENDMDL
MODEL 9
REMARK VINA RESULT:      -6.8      4.814      8.741
REMARK  2 active torsions:
REMARK  status: ('A' for Active; 'I' for Inactive)
REMARK    1  A    between atoms: C5_5  and  N6_21 
REMARK    2  A    between atoms: C18_14  and  N17_19 
ROOT
HETATM    1  O1  MIQ B 502       7.986  -9.675 -10.806  1.00142.91    -0.171 OA
HETATM    2  C2  MIQ B 502       9.381  -9.691 -10.879  1.00141.17     0.195 A 
HETATM    3  C3  MIQ B 502      10.353 -10.282  -9.809  1.00141.71     0.035 A 
HETATM    4  C4  MIQ B 502      10.147 -10.953  -8.504  1.00142.86     0.046 A 
HETATM    5  C5  MIQ B 502      11.257 -11.392  -7.740  1.00139.53     0.031 A 
HETATM    6  C12 MIQ B 502      12.608 -11.182  -8.242  1.00139.38     0.030 A 
HETATM    7  C13 MIQ B 502      12.806 -10.539  -9.493  1.00141.18     0.019 A 
HETATM    8  C14 MIQ B 502      11.636 -10.083 -10.292  1.00138.77     0.033 A 
HETATM    9  C15 MIQ B 502      11.459  -9.365 -11.670  1.00142.10     0.195 A 
HETATM   10  N17 MIQ B 502      10.155  -9.226 -11.844  1.00139.42    -0.288 N 
HETATM   11  O16 MIQ B 502      12.475  -8.953 -12.534  1.00148.93    -0.171 OA
ENDROOT
BRANCH  10  12
HETATM   12  C18 MIQ B 502       9.613  -8.579 -13.024  1.00139.82     0.187 C 
HETATM   13  C19 MIQ B 502      10.241  -9.246 -14.254  1.00140.06     0.247 C 
HETATM   14  O25 MIQ B 502      10.217 -10.422 -14.346  1.00143.95    -0.271 OA
HETATM   15  N20 MIQ B 502      10.860  -8.472 -15.310  1.00140.02    -0.296 N 
HETATM   16  H13 MIQ B 502      11.273  -8.920 -16.105  1.00142.77     0.171 HD
HETATM   17  C21 MIQ B 502      10.887  -7.039 -15.170  1.00142.22     0.224 C 
HETATM   18  C22 MIQ B 502      11.019  -6.495 -13.760  1.00139.52     0.106 C 
HETATM   19  O24 MIQ B 502      10.805  -6.324 -16.107  1.00146.13    -0.273 OA
HETATM   20  C23 MIQ B 502       9.862  -7.072 -12.965  1.00139.15     0.045 C 
ENDBRANCH  10  12
BRANCH   5  21
HETATM   21  N6  MIQ B 502      11.041 -12.035  -6.457  1.00140.95    -0.377 N 
HETATM   22  C7  MIQ B 502       9.816 -12.790  -6.256  1.00142.12     0.149 C 
HETATM   23  C8  MIQ B 502       9.415 -12.845  -4.787  1.00144.10     0.187 C 
HETATM   24  O9  MIQ B 502      10.475 -13.193  -3.948  1.00148.65    -0.388 OA
HETATM   25  C10 MIQ B 502      11.782 -13.239  -4.440  1.00147.44     0.187 C 
HETATM   26  C11 MIQ B 502      12.167 -12.300  -5.578  1.00144.08     0.149 C 
ENDBRANCH   5  21
TORSDOF 2
ENDMDL
