MODEL 1
REMARK VINA RESULT:      -5.4      0.000      0.000
REMARK  2 active torsions:
REMARK  status: ('A' for Active; 'I' for Inactive)
REMARK    1  A    between atoms: C5_5  and  N6_21 
REMARK    2  A    between atoms: C18_14  and  N17_19 
ROOT
HETATM    1  O1  MIQ B 502      -8.856  48.230 -26.507  1.00142.91    -0.171 OA
HETATM    2  C2  MIQ B 502      -7.662  48.732 -25.986  1.00141.17     0.195 A 
HETATM    3  C3  MIQ B 502      -7.260  48.776 -24.477  1.00141.71     0.035 A 
HETATM    4  C4  MIQ B 502      -7.934  48.344 -23.230  1.00142.86     0.046 A 
HETATM    5  C5  MIQ B 502      -7.299  48.518 -21.975  1.00139.53     0.031 A 
HETATM    6  C12 MIQ B 502      -5.977  49.124 -21.912  1.00139.38     0.030 A 
HETATM    7  C13 MIQ B 502      -5.330  49.538 -23.107  1.00141.18     0.019 A 
HETATM    8  C14 MIQ B 502      -6.000  49.350 -24.423  1.00138.77     0.033 A 
HETATM    9  C15 MIQ B 502      -5.618  49.664 -25.906  1.00142.10     0.195 A 
HETATM   10  N17 MIQ B 502      -6.641  49.260 -26.640  1.00139.42    -0.288 N 
HETATM   11  O16 MIQ B 502      -4.437  50.255 -26.357  1.00148.93    -0.171 OA
ENDROOT
BRANCH  10  12
HETATM   12  C18 MIQ B 502      -6.644  49.410 -28.083  1.00139.82     0.187 C 
HETATM   13  C19 MIQ B 502      -7.941  50.126 -28.477  1.00140.06     0.247 C 
HETATM   14  O25 MIQ B 502      -8.234  51.129 -27.929  1.00143.95    -0.271 OA
HETATM   15  N20 MIQ B 502      -8.817  49.608 -29.508  1.00140.02    -0.296 N 
HETATM   16  H13 MIQ B 502      -9.665  50.082 -29.751  1.00142.77     0.171 HD
HETATM   17  C21 MIQ B 502      -8.444  48.377 -30.155  1.00142.22     0.224 C 
HETATM   18  C22 MIQ B 502      -7.714  47.355 -29.304  1.00139.52     0.106 C 
HETATM   19  O24 MIQ B 502      -8.690  48.178 -31.293  1.00146.13    -0.273 OA
HETATM   20  C23 MIQ B 502      -6.479  48.050 -28.760  1.00139.15     0.045 C 
ENDBRANCH  10  12
BRANCH   5  21
HETATM   21  N6  MIQ B 502      -7.977  48.103 -20.760  1.00140.95    -0.377 N 
HETATM   22  C7  MIQ B 502      -9.338  47.604 -20.860  1.00142.12     0.149 C 
HETATM   23  C8  MIQ B 502     -10.119  47.820 -19.571  1.00144.10     0.187 C 
HETATM   24  O9  MIQ B 502      -9.416  47.414 -18.435  1.00148.65    -0.388 OA
HETATM   25  C10 MIQ B 502      -8.063  47.078 -18.522  1.00147.44     0.187 C 
HETATM   26  C11 MIQ B 502      -7.206  47.773 -19.575  1.00144.08     0.149 C 
ENDBRANCH   5  21
TORSDOF 2
ENDMDL
MODEL 2
REMARK VINA RESULT:      -5.4     20.509     22.773
REMARK  2 active torsions:
REMARK  status: ('A' for Active; 'I' for Inactive)
REMARK    1  A    between atoms: C5_5  and  N6_21 
REMARK    2  A    between atoms: C18_14  and  N17_19 
ROOT
HETATM    1  O1  MIQ B 502     -18.673  30.890 -26.549  1.00142.91    -0.171 OA
HETATM    2  C2  MIQ B 502     -20.002  30.875 -26.979  1.00141.17     0.195 A 
HETATM    3  C3  MIQ B 502     -20.673  31.909 -27.938  1.00141.71     0.035 A 
HETATM    4  C4  MIQ B 502     -20.179  33.118 -28.640  1.00142.86     0.046 A 
HETATM    5  C5  MIQ B 502     -21.050  33.872 -29.467  1.00139.53     0.031 A 
HETATM    6  C12 MIQ B 502     -22.435  33.455 -29.627  1.00139.38     0.030 A 
HETATM    7  C13 MIQ B 502     -22.909  32.295 -28.956  1.00141.18     0.019 A 
HETATM    8  C14 MIQ B 502     -21.990  31.506 -28.091  1.00138.77     0.033 A 
HETATM    9  C15 MIQ B 502     -22.137  30.214 -27.223  1.00142.10     0.195 A 
HETATM   10  N17 MIQ B 502     -20.949  30.003 -26.679  1.00139.42    -0.288 N 
HETATM   11  O16 MIQ B 502     -23.290  29.446 -27.056  1.00148.93    -0.171 OA
ENDROOT
BRANCH  10  12
HETATM   12  C18 MIQ B 502     -20.714  28.883 -25.786  1.00139.82     0.187 C 
HETATM   13  C19 MIQ B 502     -20.152  29.443 -24.474  1.00140.06     0.247 C 
HETATM   14  O25 MIQ B 502     -20.719  30.325 -23.934  1.00143.95    -0.271 OA
HETATM   15  N20 MIQ B 502     -18.944  28.914 -23.873  1.00140.02    -0.296 N 
HETATM   16  H13 MIQ B 502     -18.584  29.292 -23.019  1.00142.77     0.171 HD
HETATM   17  C21 MIQ B 502     -18.264  27.844 -24.556  1.00142.22     0.224 C 
HETATM   18  C22 MIQ B 502     -18.321  27.858 -26.072  1.00139.52     0.106 C 
HETATM   19  O24 MIQ B 502     -17.695  26.995 -23.963  1.00146.13    -0.273 OA
HETATM   20  C23 MIQ B 502     -19.792  27.860 -26.448  1.00139.15     0.045 C 
ENDBRANCH  10  12
BRANCH   5  21
HETATM   21  N6  MIQ B 502     -20.557  35.062 -30.135  1.00140.95    -0.377 N 
HETATM   22  C7  MIQ B 502     -20.999  36.361 -29.657  1.00142.12     0.149 C 
HETATM   23  C8  MIQ B 502     -20.963  37.414 -30.757  1.00144.10     0.187 C 
HETATM   24  O9  MIQ B 502     -19.762  37.417 -31.468  1.00148.65    -0.388 OA
HETATM   25  C10 MIQ B 502     -18.834  36.387 -31.295  1.00147.44     0.187 C 
HETATM   26  C11 MIQ B 502     -19.347  34.996 -30.936  1.00144.08     0.149 C 
ENDBRANCH   5  21
TORSDOF 2
ENDMDL
MODEL 3
REMARK VINA RESULT:      -5.3     19.526     21.108
REMARK  2 active torsions:
REMARK  status: ('A' for Active; 'I' for Inactive)
REMARK    1  A    between atoms: C5_5  and  N6_21 
REMARK    2  A    between atoms: C18_14  and  N17_19 
ROOT
HETATM    1  O1  MIQ B 502     -19.846  35.040 -28.965  1.00142.91    -0.171 OA
HETATM    2  C2  MIQ B 502     -20.321  33.864 -29.549  1.00141.17     0.195 A 
HETATM    3  C3  MIQ B 502     -20.531  32.495 -28.826  1.00141.71     0.035 A 
HETATM    4  C4  MIQ B 502     -20.323  32.037 -27.431  1.00142.86     0.046 A 
HETATM    5  C5  MIQ B 502     -20.613  30.698 -27.066  1.00139.53     0.031 A 
HETATM    6  C12 MIQ B 502     -21.119  29.770 -28.067  1.00139.38     0.030 A 
HETATM    7  C13 MIQ B 502     -21.320  30.209 -29.403  1.00141.18     0.019 A 
HETATM    8  C14 MIQ B 502     -21.016  31.616 -29.780  1.00138.77     0.033 A 
HETATM    9  C15 MIQ B 502     -21.108  32.444 -31.104  1.00142.10     0.195 A 
HETATM   10  N17 MIQ B 502     -20.691  33.663 -30.802  1.00139.42    -0.288 N 
HETATM   11  O16 MIQ B 502     -21.540  31.984 -32.349  1.00148.93    -0.171 OA
ENDROOT
BRANCH  10  12
HETATM   12  C18 MIQ B 502     -20.625  34.710 -31.804  1.00139.82     0.187 C 
HETATM   13  C19 MIQ B 502     -19.198  35.272 -31.800  1.00140.06     0.247 C 
HETATM   14  O25 MIQ B 502     -18.286  34.528 -31.881  1.00143.95    -0.271 OA
HETATM   15  N20 MIQ B 502     -18.937  36.694 -31.707  1.00140.02    -0.296 N 
HETATM   16  H13 MIQ B 502     -18.000  37.047 -31.699  1.00142.77     0.171 HD
HETATM   17  C21 MIQ B 502     -20.066  37.581 -31.599  1.00142.22     0.224 C 
HETATM   18  C22 MIQ B 502     -21.273  37.059 -30.844  1.00139.52     0.106 C 
HETATM   19  O24 MIQ B 502     -20.052  38.660 -32.081  1.00146.13    -0.273 OA
HETATM   20  C23 MIQ B 502     -21.689  35.772 -31.534  1.00139.15     0.045 C 
ENDBRANCH  10  12
BRANCH   5  21
HETATM   21  N6  MIQ B 502     -20.390  30.259 -25.701  1.00140.95    -0.377 N 
HETATM   22  C7  MIQ B 502     -21.544  29.947 -24.875  1.00142.12     0.149 C 
HETATM   23  C8  MIQ B 502     -21.249  30.137 -23.392  1.00144.10     0.187 C 
HETATM   24  O9  MIQ B 502     -20.052  29.539 -22.995  1.00148.65    -0.388 OA
HETATM   25  C10 MIQ B 502     -19.158  29.044 -23.948  1.00147.44     0.187 C 
HETATM   26  C11 MIQ B 502     -19.098  29.722 -25.313  1.00144.08     0.149 C 
ENDBRANCH   5  21
TORSDOF 2
ENDMDL
MODEL 4
REMARK VINA RESULT:      -5.2      9.413     10.669
REMARK  2 active torsions:
REMARK  status: ('A' for Active; 'I' for Inactive)
REMARK    1  A    between atoms: C5_5  and  N6_21 
REMARK    2  A    between atoms: C18_14  and  N17_19 
ROOT
HETATM    1  O1  MIQ B 502      -8.519  40.515 -29.191  1.00142.91    -0.171 OA
HETATM    2  C2  MIQ B 502      -8.503  39.205 -28.706  1.00141.17     0.195 A 
HETATM    3  C3  MIQ B 502      -7.961  38.743 -27.316  1.00141.71     0.035 A 
HETATM    4  C4  MIQ B 502      -7.353  39.460 -26.170  1.00142.86     0.046 A 
HETATM    5  C5  MIQ B 502      -6.951  38.749 -25.011  1.00139.53     0.031 A 
HETATM    6  C12 MIQ B 502      -7.138  37.306 -24.948  1.00139.38     0.030 A 
HETATM    7  C13 MIQ B 502      -7.723  36.619 -26.045  1.00141.18     0.019 A 
HETATM    8  C14 MIQ B 502      -8.145  37.371 -27.258  1.00138.77     0.033 A 
HETATM    9  C15 MIQ B 502      -8.805  36.979 -28.621  1.00142.10     0.195 A 
HETATM   10  N17 MIQ B 502      -8.936  38.107 -29.301  1.00139.42    -0.288 N 
HETATM   11  O16 MIQ B 502      -9.176  35.698 -29.031  1.00148.93    -0.171 OA
ENDROOT
BRANCH  10  12
HETATM   12  C18 MIQ B 502      -9.505  38.124 -30.635  1.00139.82     0.187 C 
HETATM   13  C19 MIQ B 502      -8.520  38.857 -31.554  1.00140.06     0.247 C 
HETATM   14  O25 MIQ B 502      -7.387  38.529 -31.563  1.00143.95    -0.271 OA
HETATM   15  N20 MIQ B 502      -8.943  39.940 -32.418  1.00140.02    -0.296 N 
HETATM   16  H13 MIQ B 502      -8.289  40.415 -33.008  1.00142.77     0.171 HD
HETATM   17  C21 MIQ B 502     -10.329  40.330 -32.382  1.00142.22     0.224 C 
HETATM   18  C22 MIQ B 502     -11.037  40.208 -31.046  1.00139.52     0.106 C 
HETATM   19  O24 MIQ B 502     -10.887  40.719 -33.348  1.00146.13    -0.273 OA
HETATM   20  C23 MIQ B 502     -10.894  38.760 -30.613  1.00139.15     0.045 C 
ENDBRANCH  10  12
BRANCH   5  21
HETATM   21  N6  MIQ B 502      -6.343  39.461 -23.903  1.00140.95    -0.377 N 
HETATM   22  C7  MIQ B 502      -6.785  39.154 -22.553  1.00142.12     0.149 C 
HETATM   23  C8  MIQ B 502      -6.589  40.333 -21.608  1.00144.10     0.187 C 
HETATM   24  O9  MIQ B 502      -5.317  40.901 -21.705  1.00148.65    -0.388 OA
HETATM   25  C10 MIQ B 502      -4.454  40.533 -22.740  1.00147.44     0.187 C 
HETATM   26  C11 MIQ B 502      -5.056  40.111 -24.076  1.00144.08     0.149 C 
ENDBRANCH   5  21
TORSDOF 2
ENDMDL
MODEL 5
REMARK VINA RESULT:      -5.2     19.604     21.182
REMARK  2 active torsions:
REMARK  status: ('A' for Active; 'I' for Inactive)
REMARK    1  A    between atoms: C5_5  and  N6_21 
REMARK    2  A    between atoms: C18_14  and  N17_19 
ROOT
HETATM    1  O1  MIQ B 502     -19.412  34.660 -30.029  1.00142.91    -0.171 OA
HETATM    2  C2  MIQ B 502     -20.675  34.095 -29.837  1.00141.17     0.195 A 
HETATM    3  C3  MIQ B 502     -21.030  32.949 -28.837  1.00141.71     0.035 A 
HETATM    4  C4  MIQ B 502     -20.236  32.166 -27.861  1.00142.86     0.046 A 
HETATM    5  C5  MIQ B 502     -20.856  31.164 -27.072  1.00139.53     0.031 A 
HETATM    6  C12 MIQ B 502     -22.281  30.906 -27.221  1.00139.38     0.030 A 
HETATM    7  C13 MIQ B 502     -23.043  31.657 -28.156  1.00141.18     0.019 A 
HETATM    8  C14 MIQ B 502     -22.387  32.709 -28.980  1.00138.77     0.033 A 
HETATM    9  C15 MIQ B 502     -22.877  33.712 -30.075  1.00142.10     0.195 A 
HETATM   10  N17 MIQ B 502     -21.810  34.403 -30.441  1.00139.42    -0.288 N 
HETATM   11  O16 MIQ B 502     -24.177  33.844 -30.566  1.00148.93    -0.171 OA
ENDROOT
BRANCH  10  12
HETATM   12  C18 MIQ B 502     -21.886  35.429 -31.465  1.00139.82     0.187 C 
HETATM   13  C19 MIQ B 502     -20.811  35.122 -32.515  1.00140.06     0.247 C 
HETATM   14  O25 MIQ B 502     -20.752  34.039 -32.979  1.00143.95    -0.271 OA
HETATM   15  N20 MIQ B 502     -19.867  36.127 -32.958  1.00140.02    -0.296 N 
HETATM   16  H13 MIQ B 502     -19.166  35.913 -33.639  1.00142.77     0.171 HD
HETATM   17  C21 MIQ B 502     -19.953  37.439 -32.368  1.00142.22     0.224 C 
HETATM   18  C22 MIQ B 502     -20.389  37.507 -30.918  1.00139.52     0.106 C 
HETATM   19  O24 MIQ B 502     -19.700  38.413 -32.988  1.00146.13    -0.273 OA
HETATM   20  C23 MIQ B 502     -21.739  36.815 -30.841  1.00139.15     0.045 C 
ENDBRANCH  10  12
BRANCH   5  21
HETATM   21  N6  MIQ B 502     -20.064  30.395 -26.130  1.00140.95    -0.377 N 
HETATM   22  C7  MIQ B 502     -18.615  30.478 -26.211  1.00142.12     0.149 C 
HETATM   23  C8  MIQ B 502     -17.943  29.222 -25.673  1.00144.10     0.187 C 
HETATM   24  O9  MIQ B 502     -18.450  28.821 -24.435  1.00148.65    -0.388 OA
HETATM   25  C10 MIQ B 502     -19.605  29.414 -23.918  1.00147.44     0.187 C 
HETATM   26  C11 MIQ B 502     -20.661  29.925 -24.892  1.00144.08     0.149 C 
ENDBRANCH   5  21
TORSDOF 2
ENDMDL
MODEL 6
REMARK VINA RESULT:      -5.2      1.511      2.611
REMARK  2 active torsions:
REMARK  status: ('A' for Active; 'I' for Inactive)
REMARK    1  A    between atoms: C5_5  and  N6_21 
REMARK    2  A    between atoms: C18_14  and  N17_19 
ROOT
HETATM    1  O1  MIQ B 502      -5.001  50.110 -24.738  1.00142.91    -0.171 OA
HETATM    2  C2  MIQ B 502      -6.213  49.430 -24.605  1.00141.17     0.195 A 
HETATM    3  C3  MIQ B 502      -6.808  48.856 -23.279  1.00141.71     0.035 A 
HETATM    4  C4  MIQ B 502      -6.339  48.845 -21.873  1.00142.86     0.046 A 
HETATM    5  C5  MIQ B 502      -7.121  48.232 -20.862  1.00139.53     0.031 A 
HETATM    6  C12 MIQ B 502      -8.391  47.609 -21.208  1.00139.38     0.030 A 
HETATM    7  C13 MIQ B 502      -8.841  47.620 -22.556  1.00141.18     0.019 A 
HETATM    8  C14 MIQ B 502      -8.017  48.268 -23.613  1.00138.77     0.033 A 
HETATM    9  C15 MIQ B 502      -8.174  48.479 -25.154  1.00142.10     0.195 A 
HETATM   10  N17 MIQ B 502      -7.096  49.138 -25.545  1.00139.42    -0.288 N 
HETATM   11  O16 MIQ B 502      -9.238  48.053 -25.951  1.00148.93    -0.171 OA
ENDROOT
BRANCH  10  12
HETATM   12  C18 MIQ B 502      -6.890  49.497 -26.935  1.00139.82     0.187 C 
HETATM   13  C19 MIQ B 502      -8.154  50.215 -27.425  1.00140.06     0.247 C 
HETATM   14  O25 MIQ B 502      -8.585  51.115 -26.796  1.00143.95    -0.271 OA
HETATM   15  N20 MIQ B 502      -8.832  49.822 -28.643  1.00140.02    -0.296 N 
HETATM   16  H13 MIQ B 502      -9.660  50.294 -28.948  1.00142.77     0.171 HD
HETATM   17  C21 MIQ B 502      -8.293  48.713 -29.387  1.00142.22     0.224 C 
HETATM   18  C22 MIQ B 502      -7.640  47.605 -28.583  1.00139.52     0.106 C 
HETATM   19  O24 MIQ B 502      -8.353  48.673 -30.567  1.00146.13    -0.273 OA
HETATM   20  C23 MIQ B 502      -6.545  48.258 -27.759  1.00139.15     0.045 C 
ENDBRANCH  10  12
BRANCH   5  21
HETATM   21  N6  MIQ B 502      -6.643  48.215 -19.491  1.00140.95    -0.377 N 
HETATM   22  C7  MIQ B 502      -7.391  47.457 -18.503  1.00142.12     0.149 C 
HETATM   23  C8  MIQ B 502      -7.204  48.014 -17.098  1.00144.10     0.187 C 
HETATM   24  O9  MIQ B 502      -5.865  48.249 -16.780  1.00148.65    -0.388 OA
HETATM   25  C10 MIQ B 502      -4.881  48.184 -17.770  1.00147.44     0.187 C 
HETATM   26  C11 MIQ B 502      -5.260  48.552 -19.201  1.00144.08     0.149 C 
ENDBRANCH   5  21
TORSDOF 2
ENDMDL
MODEL 7
REMARK VINA RESULT:      -5.2     11.936     17.800
REMARK  2 active torsions:
REMARK  status: ('A' for Active; 'I' for Inactive)
REMARK    1  A    between atoms: C5_5  and  N6_21 
REMARK    2  A    between atoms: C18_14  and  N17_19 
ROOT
HETATM    1  O1  MIQ B 502     -15.421  40.501 -12.905  1.00142.91    -0.171 OA
HETATM    2  C2  MIQ B 502     -16.393  41.480 -12.685  1.00141.17     0.195 A 
HETATM    3  C3  MIQ B 502     -16.878  42.547 -13.718  1.00141.71     0.035 A 
HETATM    4  C4  MIQ B 502     -16.513  42.843 -15.124  1.00142.86     0.046 A 
HETATM    5  C5  MIQ B 502     -17.146  43.904 -15.820  1.00139.53     0.031 A 
HETATM    6  C12 MIQ B 502     -18.160  44.705 -15.149  1.00139.38     0.030 A 
HETATM    7  C13 MIQ B 502     -18.511  44.420 -13.801  1.00141.18     0.019 A 
HETATM    8  C14 MIQ B 502     -17.844  43.304 -13.076  1.00138.77     0.033 A 
HETATM    9  C15 MIQ B 502     -17.961  42.704 -11.637  1.00142.10     0.195 A 
HETATM   10  N17 MIQ B 502     -17.095  41.705 -11.587  1.00139.42    -0.288 N 
HETATM   11  O16 MIQ B 502     -18.806  43.139 -10.616  1.00148.93    -0.171 OA
ENDROOT
BRANCH  10  12
HETATM   12  C18 MIQ B 502     -16.916  40.917 -10.382  1.00139.82     0.187 C 
HETATM   13  C19 MIQ B 502     -15.411  40.833 -10.097  1.00140.06     0.247 C 
HETATM   14  O25 MIQ B 502     -14.774  41.825 -10.073  1.00143.95    -0.271 OA
HETATM   15  N20 MIQ B 502     -14.750  39.568  -9.849  1.00140.02    -0.296 N 
HETATM   16  H13 MIQ B 502     -13.766  39.527  -9.671  1.00142.77     0.171 HD
HETATM   17  C21 MIQ B 502     -15.548  38.370  -9.894  1.00142.22     0.224 C 
HETATM   18  C22 MIQ B 502     -16.700  38.355 -10.880  1.00139.52     0.106 C 
HETATM   19  O24 MIQ B 502     -15.318  37.448  -9.192  1.00146.13    -0.273 OA
HETATM   20  C23 MIQ B 502     -17.575  39.548 -10.539  1.00139.15     0.045 C 
ENDBRANCH  10  12
BRANCH   5  21
HETATM   21  N6  MIQ B 502     -16.769  44.193 -17.191  1.00140.95    -0.377 N 
HETATM   22  C7  MIQ B 502     -17.100  43.224 -18.221  1.00142.12     0.149 C 
HETATM   23  C8  MIQ B 502     -16.144  43.303 -19.405  1.00144.10     0.187 C 
HETATM   24  O9  MIQ B 502     -15.945  44.609 -19.856  1.00148.65    -0.388 OA
HETATM   25  C10 MIQ B 502     -16.413  45.694 -19.111  1.00147.44     0.187 C 
HETATM   26  C11 MIQ B 502     -16.487  45.560 -17.594  1.00144.08     0.149 C 
ENDBRANCH   5  21
TORSDOF 2
ENDMDL
MODEL 8
REMARK VINA RESULT:      -5.2     19.009     21.925
REMARK  2 active torsions:
REMARK  status: ('A' for Active; 'I' for Inactive)
REMARK    1  A    between atoms: C5_5  and  N6_21 
REMARK    2  A    between atoms: C18_14  and  N17_19 
ROOT
HETATM    1  O1  MIQ B 502     -14.772  31.103 -18.847  1.00142.91    -0.171 OA
HETATM    2  C2  MIQ B 502     -13.547  30.499 -18.554  1.00141.17     0.195 A 
HETATM    3  C3  MIQ B 502     -13.251  28.966 -18.559  1.00141.71     0.035 A 
HETATM    4  C4  MIQ B 502     -14.076  27.769 -18.848  1.00142.86     0.046 A 
HETATM    5  C5  MIQ B 502     -13.510  26.472 -18.768  1.00139.53     0.031 A 
HETATM    6  C12 MIQ B 502     -12.110  26.315 -18.402  1.00139.38     0.030 A 
HETATM    7  C13 MIQ B 502     -11.318  27.462 -18.127  1.00141.18     0.019 A 
HETATM    8  C14 MIQ B 502     -11.917  28.822 -18.213  1.00138.77     0.033 A 
HETATM    9  C15 MIQ B 502     -11.382  30.275 -17.994  1.00142.10     0.195 A 
HETATM   10  N17 MIQ B 502     -12.406  31.080 -18.224  1.00139.42    -0.288 N 
HETATM   11  O16 MIQ B 502     -10.086  30.642 -17.626  1.00148.93    -0.171 OA
ENDROOT
BRANCH  10  12
HETATM   12  C18 MIQ B 502     -12.281  32.520 -18.097  1.00139.82     0.187 C 
HETATM   13  C19 MIQ B 502     -11.091  32.963 -18.957  1.00140.06     0.247 C 
HETATM   14  O25 MIQ B 502     -11.031  32.613 -20.082  1.00143.95    -0.271 OA
HETATM   15  N20 MIQ B 502     -10.039  33.806 -18.428  1.00140.02    -0.296 N 
HETATM   16  H13 MIQ B 502      -9.264  34.083 -18.998  1.00142.77     0.171 HD
HETATM   17  C21 MIQ B 502     -10.129  34.212 -17.049  1.00142.22     0.224 C 
HETATM   18  C22 MIQ B 502     -10.757  33.222 -16.087  1.00139.52     0.106 C 
HETATM   19  O24 MIQ B 502      -9.736  35.267 -16.689  1.00146.13    -0.273 OA
HETATM   20  C23 MIQ B 502     -12.141  32.914 -16.628  1.00139.15     0.045 C 
ENDBRANCH  10  12
BRANCH   5  21
HETATM   21  N6  MIQ B 502     -14.335  25.308 -19.039  1.00140.95    -0.377 N 
HETATM   22  C7  MIQ B 502     -15.361  24.944 -18.077  1.00142.12     0.149 C 
HETATM   23  C8  MIQ B 502     -15.679  23.455 -18.120  1.00144.10     0.187 C 
HETATM   24  O9  MIQ B 502     -15.882  22.980 -19.417  1.00148.65    -0.388 OA
HETATM   25  C10 MIQ B 502     -15.578  23.782 -20.520  1.00147.44     0.187 C 
HETATM   26  C11 MIQ B 502     -14.447  24.797 -20.394  1.00144.08     0.149 C 
ENDBRANCH   5  21
TORSDOF 2
ENDMDL
MODEL 9
REMARK VINA RESULT:      -5.1      2.376      7.954
REMARK  2 active torsions:
REMARK  status: ('A' for Active; 'I' for Inactive)
REMARK    1  A    between atoms: C5_5  and  N6_21 
REMARK    2  A    between atoms: C18_14  and  N17_19 
ROOT
HETATM    1  O1  MIQ B 502      -8.126  47.543 -22.900  1.00142.91    -0.171 OA
HETATM    2  C2  MIQ B 502      -8.548  48.705 -23.550  1.00141.17     0.195 A 
HETATM    3  C3  MIQ B 502      -8.432  48.999 -25.080  1.00141.71     0.035 A 
HETATM    4  C4  MIQ B 502      -7.899  48.229 -26.228  1.00142.86     0.046 A 
HETATM    5  C5  MIQ B 502      -7.934  48.776 -27.536  1.00139.53     0.031 A 
HETATM    6  C12 MIQ B 502      -8.500  50.100 -27.751  1.00139.38     0.030 A 
HETATM    7  C13 MIQ B 502      -9.012  50.838 -26.650  1.00141.18     0.019 A 
HETATM    8  C14 MIQ B 502      -8.974  50.259 -25.280  1.00138.77     0.033 A 
HETATM    9  C15 MIQ B 502      -9.429  50.748 -23.866  1.00142.10     0.195 A 
HETATM   10  N17 MIQ B 502      -9.124  49.773 -23.026  1.00139.42    -0.288 N 
HETATM   11  O16 MIQ B 502     -10.032  51.969 -23.559  1.00148.93    -0.171 OA
ENDROOT
BRANCH  10  12
HETATM   12  C18 MIQ B 502      -9.392  49.886 -21.605  1.00139.82     0.187 C 
HETATM   13  C19 MIQ B 502      -8.089  49.578 -20.857  1.00140.06     0.247 C 
HETATM   14  O25 MIQ B 502      -7.101  50.143 -21.165  1.00143.95    -0.271 OA
HETATM   15  N20 MIQ B 502      -8.038  48.614 -19.777  1.00140.02    -0.296 N 
HETATM   16  H13 MIQ B 502      -7.180  48.417 -19.301  1.00142.77     0.171 HD
HETATM   17  C21 MIQ B 502      -9.256  47.929 -19.426  1.00142.22     0.224 C 
HETATM   18  C22 MIQ B 502     -10.221  47.634 -20.557  1.00139.52     0.106 C 
HETATM   19  O24 MIQ B 502      -9.490  47.619 -18.310  1.00146.13    -0.273 OA
HETATM   20  C23 MIQ B 502     -10.546  48.967 -21.206  1.00139.15     0.045 C 
ENDBRANCH  10  12
BRANCH   5  21
HETATM   21  N6  MIQ B 502      -7.395  48.017 -28.650  1.00140.95    -0.377 N 
HETATM   22  C7  MIQ B 502      -8.071  48.091 -29.933  1.00142.12     0.149 C 
HETATM   23  C8  MIQ B 502      -7.840  46.839 -30.771  1.00144.10     0.187 C 
HETATM   24  O9  MIQ B 502      -6.497  46.461 -30.824  1.00148.65    -0.388 OA
HETATM   25  C10 MIQ B 502      -5.557  47.069 -29.988  1.00147.44     0.187 C 
HETATM   26  C11 MIQ B 502      -6.013  47.571 -28.622  1.00144.08     0.149 C 
ENDBRANCH   5  21
TORSDOF 2
ENDMDL
