MODEL 1
REMARK VINA RESULT:      -6.8      0.000      0.000
REMARK  2 active torsions:
REMARK  status: ('A' for Active; 'I' for Inactive)
REMARK    1  A    between atoms: C5_5  and  N6_21 
REMARK    2  A    between atoms: C18_14  and  N17_19 
ROOT
HETATM    1  O1  MIQ B 502      14.724  -7.955  -1.264  1.00142.91    -0.171 OA
HETATM    2  C2  MIQ B 502      15.164  -9.278  -1.346  1.00141.17     0.195 A 
HETATM    3  C3  MIQ B 502      14.263 -10.553  -1.315  1.00141.71     0.035 A 
HETATM    4  C4  MIQ B 502      12.800 -10.765  -1.206  1.00142.86     0.046 A 
HETATM    5  C5  MIQ B 502      12.264 -12.077  -1.207  1.00139.53     0.031 A 
HETATM    6  C12 MIQ B 502      13.156 -13.222  -1.318  1.00139.38     0.030 A 
HETATM    7  C13 MIQ B 502      14.559 -13.020  -1.424  1.00141.18     0.019 A 
HETATM    8  C14 MIQ B 502      15.116 -11.639  -1.424  1.00138.77     0.033 A 
HETATM    9  C15 MIQ B 502      16.554 -11.035  -1.523  1.00142.10     0.195 A 
HETATM   10  N17 MIQ B 502      16.403  -9.722  -1.467  1.00139.42    -0.288 N 
HETATM   11  O16 MIQ B 502      17.752 -11.742  -1.643  1.00148.93    -0.171 OA
ENDROOT
BRANCH  10  12
HETATM   12  C18 MIQ B 502      17.543  -8.826  -1.516  1.00139.82     0.187 C 
HETATM   13  C19 MIQ B 502      17.489  -7.931  -0.272  1.00140.06     0.247 C 
HETATM   14  O25 MIQ B 502      17.366  -8.430   0.790  1.00143.95    -0.271 OA
HETATM   15  N20 MIQ B 502      17.591  -6.489  -0.362  1.00140.02    -0.296 N 
HETATM   16  H13 MIQ B 502      17.547  -5.916   0.457  1.00142.77     0.171 HD
HETATM   17  C21 MIQ B 502      17.730  -5.904  -1.671  1.00142.22     0.224 C 
HETATM   18  C22 MIQ B 502      17.023  -6.610  -2.812  1.00139.52     0.106 C 
HETATM   19  O24 MIQ B 502      18.368  -4.924  -1.845  1.00146.13    -0.273 OA
HETATM   20  C23 MIQ B 502      17.543  -8.036  -2.824  1.00139.15     0.045 C 
ENDBRANCH  10  12
BRANCH   5  21
HETATM   21  N6  MIQ B 502      10.830 -12.271  -1.084  1.00140.95    -0.377 N 
HETATM   22  C7  MIQ B 502       9.970 -11.100  -1.074  1.00142.12     0.149 C 
HETATM   23  C8  MIQ B 502       8.669 -11.357  -0.325  1.00144.10     0.187 C 
HETATM   24  O9  MIQ B 502       8.050 -12.550  -0.704  1.00148.65    -0.388 OA
HETATM   25  C10 MIQ B 502       8.722 -13.471  -1.511  1.00147.44     0.187 C 
HETATM   26  C11 MIQ B 502      10.241 -13.558  -1.409  1.00144.08     0.149 C 
ENDBRANCH   5  21
TORSDOF 2
ENDMDL
MODEL 2
REMARK VINA RESULT:      -6.3     16.878     19.868
REMARK  2 active torsions:
REMARK  status: ('A' for Active; 'I' for Inactive)
REMARK    1  A    between atoms: C5_5  and  N6_21 
REMARK    2  A    between atoms: C18_14  and  N17_19 
ROOT
HETATM    1  O1  MIQ B 502      20.387   3.023 -16.450  1.00142.91    -0.171 OA
HETATM    2  C2  MIQ B 502      19.313   2.728 -15.608  1.00141.17     0.195 A 
HETATM    3  C3  MIQ B 502      17.798   2.838 -15.972  1.00141.71     0.035 A 
HETATM    4  C4  MIQ B 502      17.072   3.243 -17.199  1.00142.86     0.046 A 
HETATM    5  C5  MIQ B 502      15.654   3.239 -17.226  1.00139.53     0.031 A 
HETATM    6  C12 MIQ B 502      14.909   2.833 -16.043  1.00139.38     0.030 A 
HETATM    7  C13 MIQ B 502      15.605   2.443 -14.867  1.00141.18     0.019 A 
HETATM    8  C14 MIQ B 502      17.094   2.447 -14.845  1.00138.77     0.033 A 
HETATM    9  C15 MIQ B 502      18.177   2.093 -13.775  1.00142.10     0.195 A 
HETATM   10  N17 MIQ B 502      19.347   2.299 -14.358  1.00139.42    -0.288 N 
HETATM   11  O16 MIQ B 502      17.951   1.651 -12.470  1.00148.93    -0.171 OA
ENDROOT
BRANCH  10  12
HETATM   12  C18 MIQ B 502      20.595   2.085 -13.649  1.00139.82     0.187 C 
HETATM   13  C19 MIQ B 502      20.574   0.659 -13.085  1.00140.06     0.247 C 
HETATM   14  O25 MIQ B 502      20.316  -0.240 -13.804  1.00143.95    -0.271 OA
HETATM   15  N20 MIQ B 502      20.868   0.383 -11.694  1.00140.02    -0.296 N 
HETATM   16  H13 MIQ B 502      20.845  -0.552 -11.337  1.00142.77     0.171 HD
HETATM   17  C21 MIQ B 502      21.170   1.498 -10.834  1.00142.22     0.224 C 
HETATM   18  C22 MIQ B 502      20.456   2.802 -11.134  1.00139.52     0.106 C 
HETATM   19  O24 MIQ B 502      21.941   1.401  -9.944  1.00146.13    -0.273 OA
HETATM   20  C23 MIQ B 502      20.785   3.153 -12.573  1.00139.15     0.045 C 
ENDBRANCH  10  12
BRANCH   5  21
HETATM   21  N6  MIQ B 502      14.956   3.653 -18.430  1.00140.95    -0.377 N 
HETATM   22  C7  MIQ B 502      13.518   3.457 -18.500  1.00142.12     0.149 C 
HETATM   23  C8  MIQ B 502      13.034   3.311 -19.937  1.00144.10     0.187 C 
HETATM   24  O9  MIQ B 502      13.544   4.295 -20.786  1.00148.65    -0.388 OA
HETATM   25  C10 MIQ B 502      14.565   5.144 -20.351  1.00147.44     0.187 C 
HETATM   26  C11 MIQ B 502      15.566   4.617 -19.328  1.00144.08     0.149 C 
ENDBRANCH   5  21
TORSDOF 2
ENDMDL
MODEL 3
REMARK VINA RESULT:      -6.2     16.544     18.712
REMARK  2 active torsions:
REMARK  status: ('A' for Active; 'I' for Inactive)
REMARK    1  A    between atoms: C5_5  and  N6_21 
REMARK    2  A    between atoms: C18_14  and  N17_19 
ROOT
HETATM    1  O1  MIQ B 502      21.512   2.047 -14.065  1.00142.91    -0.171 OA
HETATM    2  C2  MIQ B 502      20.378   1.925 -13.259  1.00141.17     0.195 A 
HETATM    3  C3  MIQ B 502      18.898   2.137 -13.712  1.00141.71     0.035 A 
HETATM    4  C4  MIQ B 502      18.269   2.496 -15.005  1.00142.86     0.046 A 
HETATM    5  C5  MIQ B 502      16.860   2.616 -15.108  1.00139.53     0.031 A 
HETATM    6  C12 MIQ B 502      16.028   2.385 -13.937  1.00139.38     0.030 A 
HETATM    7  C13 MIQ B 502      16.630   2.040 -12.697  1.00141.18     0.019 A 
HETATM    8  C14 MIQ B 502      18.110   1.913 -12.595  1.00138.77     0.033 A 
HETATM    9  C15 MIQ B 502      19.106   1.559 -11.443  1.00142.10     0.195 A 
HETATM   10  N17 MIQ B 502      20.315   1.607 -11.978  1.00139.42    -0.288 N 
HETATM   11  O16 MIQ B 502      18.780   1.256 -10.120  1.00148.93    -0.171 OA
ENDROOT
BRANCH  10  12
HETATM   12  C18 MIQ B 502      21.503   1.346 -11.188  1.00139.82     0.187 C 
HETATM   13  C19 MIQ B 502      22.422   2.568 -11.307  1.00140.06     0.247 C 
HETATM   14  O25 MIQ B 502      21.982   3.642 -11.098  1.00143.95    -0.271 OA
HETATM   15  N20 MIQ B 502      23.820   2.440 -11.664  1.00140.02    -0.296 N 
HETATM   16  H13 MIQ B 502      24.408   3.246 -11.746  1.00142.77     0.171 HD
HETATM   17  C21 MIQ B 502      24.332   1.119 -11.925  1.00142.22     0.224 C 
HETATM   18  C22 MIQ B 502      23.373   0.130 -12.560  1.00139.52     0.106 C 
HETATM   19  O24 MIQ B 502      25.442   0.821 -11.651  1.00146.13    -0.273 OA
HETATM   20  C23 MIQ B 502      22.168   0.047 -11.641  1.00139.15     0.045 C 
ENDBRANCH  10  12
BRANCH   5  21
HETATM   21  N6  MIQ B 502      16.259   2.982 -16.378  1.00140.95    -0.377 N 
HETATM   22  C7  MIQ B 502      17.004   2.726 -17.599  1.00142.12     0.149 C 
HETATM   23  C8  MIQ B 502      16.609   3.683 -18.716  1.00144.10     0.187 C 
HETATM   24  O9  MIQ B 502      15.226   3.795 -18.873  1.00148.65    -0.388 OA
HETATM   25  C10 MIQ B 502      14.360   3.248 -17.923  1.00147.44     0.187 C 
HETATM   26  C11 MIQ B 502      14.822   3.172 -16.472  1.00144.08     0.149 C 
ENDBRANCH   5  21
TORSDOF 2
ENDMDL
MODEL 4
REMARK VINA RESULT:      -6.1      2.939      3.837
REMARK  2 active torsions:
REMARK  status: ('A' for Active; 'I' for Inactive)
REMARK    1  A    between atoms: C5_5  and  N6_21 
REMARK    2  A    between atoms: C18_14  and  N17_19 
ROOT
HETATM    1  O1  MIQ B 502      13.777  -9.316  -1.560  1.00142.91    -0.171 OA
HETATM    2  C2  MIQ B 502      15.095  -9.778  -1.549  1.00141.17     0.195 A 
HETATM    3  C3  MIQ B 502      15.547 -11.273  -1.548  1.00141.71     0.035 A 
HETATM    4  C4  MIQ B 502      14.812 -12.560  -1.560  1.00142.86     0.046 A 
HETATM    5  C5  MIQ B 502      15.519 -13.790  -1.557  1.00139.53     0.031 A 
HETATM    6  C12 MIQ B 502      16.975 -13.786  -1.543  1.00139.38     0.030 A 
HETATM    7  C13 MIQ B 502      17.680 -12.552  -1.532  1.00141.18     0.019 A 
HETATM    8  C14 MIQ B 502      16.933 -11.265  -1.538  1.00138.77     0.033 A 
HETATM    9  C15 MIQ B 502      17.343  -9.756  -1.533  1.00142.10     0.195 A 
HETATM   10  N17 MIQ B 502      16.211  -9.070  -1.543  1.00139.42    -0.288 N 
HETATM   11  O16 MIQ B 502      18.640  -9.242  -1.518  1.00148.93    -0.171 OA
ENDROOT
BRANCH  10  12
HETATM   12  C18 MIQ B 502      16.205  -7.619  -1.526  1.00139.82     0.187 C 
HETATM   13  C19 MIQ B 502      17.089  -7.134  -2.682  1.00140.06     0.247 C 
HETATM   14  O25 MIQ B 502      16.907  -7.563  -3.766  1.00143.95    -0.271 OA
HETATM   15  N20 MIQ B 502      18.140  -6.158  -2.481  1.00140.02    -0.296 N 
HETATM   16  H13 MIQ B 502      18.715  -5.855  -3.243  1.00142.77     0.171 HD
HETATM   17  C21 MIQ B 502      18.351  -5.658  -1.147  1.00142.22     0.224 C 
HETATM   18  C22 MIQ B 502      18.093  -6.625  -0.008  1.00139.52     0.106 C 
HETATM   19  O24 MIQ B 502      18.701  -4.546  -0.953  1.00146.13    -0.273 OA
HETATM   20  C23 MIQ B 502      16.660  -7.101  -0.163  1.00139.15     0.045 C 
ENDBRANCH  10  12
BRANCH   5  21
HETATM   21  N6  MIQ B 502      14.787 -15.043  -1.554  1.00140.95    -0.377 N 
HETATM   22  C7  MIQ B 502      15.310 -16.151  -0.775  1.00142.12     0.149 C 
HETATM   23  C8  MIQ B 502      14.872 -17.498  -1.336  1.00144.10     0.187 C 
HETATM   24  O9  MIQ B 502      13.504 -17.554  -1.609  1.00148.65    -0.388 OA
HETATM   25  C10 MIQ B 502      12.727 -16.393  -1.573  1.00147.44     0.187 C 
HETATM   26  C11 MIQ B 502      13.384 -15.064  -1.930  1.00144.08     0.149 C 
ENDBRANCH   5  21
TORSDOF 2
ENDMDL
MODEL 5
REMARK VINA RESULT:      -6.1     12.030     14.513
REMARK  2 active torsions:
REMARK  status: ('A' for Active; 'I' for Inactive)
REMARK    1  A    between atoms: C5_5  and  N6_21 
REMARK    2  A    between atoms: C18_14  and  N17_19 
ROOT
HETATM    1  O1  MIQ B 502      20.294 -22.721  -7.056  1.00142.91    -0.171 OA
HETATM    2  C2  MIQ B 502      19.679 -21.803  -7.910  1.00141.17     0.195 A 
HETATM    3  C3  MIQ B 502      18.642 -20.710  -7.498  1.00141.71     0.035 A 
HETATM    4  C4  MIQ B 502      18.031 -20.322  -6.204  1.00142.86     0.046 A 
HETATM    5  C5  MIQ B 502      17.096 -19.258  -6.144  1.00139.53     0.031 A 
HETATM    6  C12 MIQ B 502      16.734 -18.545  -7.360  1.00139.38     0.030 A 
HETATM    7  C13 MIQ B 502      17.320 -18.916  -8.600  1.00141.18     0.019 A 
HETATM    8  C14 MIQ B 502      18.303 -20.032  -8.657  1.00138.77     0.033 A 
HETATM    9  C15 MIQ B 502      19.135 -20.707  -9.796  1.00142.10     0.195 A 
HETATM   10  N17 MIQ B 502      19.842 -21.662  -9.215  1.00139.42    -0.288 N 
HETATM   11  O16 MIQ B 502      19.128 -20.367 -11.150  1.00148.93    -0.171 OA
ENDROOT
BRANCH  10  12
HETATM   12  C18 MIQ B 502      20.731 -22.518  -9.979  1.00139.82     0.187 C 
HETATM   13  C19 MIQ B 502      20.359 -23.973  -9.669  1.00140.06     0.247 C 
HETATM   14  O25 MIQ B 502      19.233 -24.312  -9.763  1.00143.95    -0.271 OA
HETATM   15  N20 MIQ B 502      21.353 -24.947  -9.270  1.00140.02    -0.296 N 
HETATM   16  H13 MIQ B 502      21.097 -25.893  -9.064  1.00142.77     0.171 HD
HETATM   17  C21 MIQ B 502      22.720 -24.507  -9.153  1.00142.22     0.224 C 
HETATM   18  C22 MIQ B 502      22.938 -23.081  -8.687  1.00139.52     0.106 C 
HETATM   19  O24 MIQ B 502      23.624 -25.223  -9.412  1.00146.13    -0.273 OA
HETATM   20  C23 MIQ B 502      22.189 -22.189  -9.661  1.00139.15     0.045 C 
ENDBRANCH  10  12
BRANCH   5  21
HETATM   21  N6  MIQ B 502      16.495 -18.898  -4.873  1.00140.95    -0.377 N 
HETATM   22  C7  MIQ B 502      15.236 -19.519  -4.499  1.00142.12     0.149 C 
HETATM   23  C8  MIQ B 502      14.428 -18.642  -3.551  1.00144.10     0.187 C 
HETATM   24  O9  MIQ B 502      15.188 -18.147  -2.489  1.00148.65    -0.388 OA
HETATM   25  C10 MIQ B 502      16.578 -18.284  -2.489  1.00147.44     0.187 C 
HETATM   26  C11 MIQ B 502      17.310 -18.305  -3.827  1.00144.08     0.149 C 
ENDBRANCH   5  21
TORSDOF 2
ENDMDL
MODEL 6
REMARK VINA RESULT:      -6.0     23.881     24.904
REMARK  2 active torsions:
REMARK  status: ('A' for Active; 'I' for Inactive)
REMARK    1  A    between atoms: C5_5  and  N6_21 
REMARK    2  A    between atoms: C18_14  and  N17_19 
ROOT
HETATM    1  O1  MIQ B 502       6.361  -4.952 -22.295  1.00142.91    -0.171 OA
HETATM    2  C2  MIQ B 502       5.089  -4.427 -22.535  1.00141.17     0.195 A 
HETATM    3  C3  MIQ B 502       3.787  -5.249 -22.798  1.00141.71     0.035 A 
HETATM    4  C4  MIQ B 502       3.496  -6.701 -22.869  1.00142.86     0.046 A 
HETATM    5  C5  MIQ B 502       2.178  -7.155 -23.129  1.00139.53     0.031 A 
HETATM    6  C12 MIQ B 502       1.107  -6.189 -23.326  1.00139.38     0.030 A 
HETATM    7  C13 MIQ B 502       1.386  -4.798 -23.257  1.00141.18     0.019 A 
HETATM    8  C14 MIQ B 502       2.771  -4.327 -22.981  1.00138.77     0.033 A 
HETATM    9  C15 MIQ B 502       3.445  -2.924 -22.831  1.00142.10     0.195 A 
HETATM   10  N17 MIQ B 502       4.723  -3.158 -22.585  1.00139.42    -0.288 N 
HETATM   11  O16 MIQ B 502       2.820  -1.680 -22.939  1.00148.93    -0.171 OA
ENDROOT
BRANCH  10  12
HETATM   12  C18 MIQ B 502       5.670  -2.074 -22.402  1.00139.82     0.187 C 
HETATM   13  C19 MIQ B 502       5.176  -1.213 -21.234  1.00140.06     0.247 C 
HETATM   14  O25 MIQ B 502       4.900  -1.733 -20.212  1.00143.95    -0.271 OA
HETATM   15  N20 MIQ B 502       5.043   0.225 -21.347  1.00140.02    -0.296 N 
HETATM   16  H13 MIQ B 502       4.713   0.775 -20.578  1.00142.77     0.171 HD
HETATM   17  C21 MIQ B 502       5.376   0.836 -22.608  1.00142.22     0.224 C 
HETATM   18  C22 MIQ B 502       5.086   0.025 -23.856  1.00139.52     0.106 C 
HETATM   19  O24 MIQ B 502       5.857   1.914 -22.664  1.00146.13    -0.273 OA
HETATM   20  C23 MIQ B 502       5.835  -1.287 -23.702  1.00139.15     0.045 C 
ENDBRANCH  10  12
BRANCH   5  21
HETATM   21  N6  MIQ B 502       1.909  -8.579 -23.211  1.00140.95    -0.377 N 
HETATM   22  C7  MIQ B 502       0.578  -9.055 -22.877  1.00142.12     0.149 C 
HETATM   23  C8  MIQ B 502       0.597 -10.496 -22.383  1.00144.10     0.187 C 
HETATM   24  O9  MIQ B 502       1.345 -11.342 -23.204  1.00148.65    -0.388 OA
HETATM   25  C10 MIQ B 502       2.153 -10.815 -24.215  1.00147.44     0.187 C 
HETATM   26  C11 MIQ B 502       2.768  -9.434 -24.011  1.00144.08     0.149 C 
ENDBRANCH   5  21
TORSDOF 2
ENDMDL
MODEL 7
REMARK VINA RESULT:      -5.9      3.348      5.798
REMARK  2 active torsions:
REMARK  status: ('A' for Active; 'I' for Inactive)
REMARK    1  A    between atoms: C5_5  and  N6_21 
REMARK    2  A    between atoms: C18_14  and  N17_19 
ROOT
HETATM    1  O1  MIQ B 502      18.784  -9.022  -1.552  1.00142.91    -0.171 OA
HETATM    2  C2  MIQ B 502      17.502  -9.574  -1.512  1.00141.17     0.195 A 
HETATM    3  C3  MIQ B 502      17.154 -11.096  -1.471  1.00141.71     0.035 A 
HETATM    4  C4  MIQ B 502      17.976 -12.329  -1.458  1.00142.86     0.046 A 
HETATM    5  C5  MIQ B 502      17.357 -13.604  -1.415  1.00139.53     0.031 A 
HETATM    6  C12 MIQ B 502      15.904 -13.700  -1.383  1.00139.38     0.030 A 
HETATM    7  C13 MIQ B 502      15.115 -12.518  -1.395  1.00141.18     0.019 A 
HETATM    8  C14 MIQ B 502      15.772 -11.183  -1.437  1.00138.77     0.033 A 
HETATM    9  C15 MIQ B 502      15.258  -9.706  -1.458  1.00142.10     0.195 A 
HETATM   10  N17 MIQ B 502      16.339  -8.944  -1.496  1.00139.42    -0.288 N 
HETATM   11  O16 MIQ B 502      13.928  -9.283  -1.441  1.00148.93    -0.171 OA
ENDROOT
BRANCH  10  12
HETATM   12  C18 MIQ B 502      16.244  -7.497  -1.541  1.00139.82     0.187 C 
HETATM   13  C19 MIQ B 502      17.114  -7.007  -2.705  1.00140.06     0.247 C 
HETATM   14  O25 MIQ B 502      16.973  -7.490  -3.772  1.00143.95    -0.271 OA
HETATM   15  N20 MIQ B 502      18.101  -5.961  -2.534  1.00140.02    -0.296 N 
HETATM   16  H13 MIQ B 502      18.667  -5.654  -3.301  1.00142.77     0.171 HD
HETATM   17  C21 MIQ B 502      18.261  -5.394  -1.220  1.00142.22     0.224 C 
HETATM   18  C22 MIQ B 502      18.047  -6.327  -0.044  1.00139.52     0.106 C 
HETATM   19  O24 MIQ B 502      18.541  -4.255  -1.068  1.00146.13    -0.273 OA
HETATM   20  C23 MIQ B 502      16.648  -6.896  -0.195  1.00139.15     0.045 C 
ENDBRANCH  10  12
BRANCH   5  21
HETATM   21  N6  MIQ B 502      18.174 -14.803  -1.417  1.00140.95    -0.377 N 
HETATM   22  C7  MIQ B 502      17.736 -15.941  -2.208  1.00142.12     0.149 C 
HETATM   23  C8  MIQ B 502      18.260 -17.257  -1.649  1.00144.10     0.187 C 
HETATM   24  O9  MIQ B 502      19.626 -17.220  -1.363  1.00148.65    -0.388 OA
HETATM   25  C10 MIQ B 502      20.322 -16.009  -1.387  1.00147.44     0.187 C 
HETATM   26  C11 MIQ B 502      19.571 -14.730  -1.029  1.00144.08     0.149 C 
ENDBRANCH   5  21
TORSDOF 2
ENDMDL
MODEL 8
REMARK VINA RESULT:      -5.9     16.275     19.098
REMARK  2 active torsions:
REMARK  status: ('A' for Active; 'I' for Inactive)
REMARK    1  A    between atoms: C5_5  and  N6_21 
REMARK    2  A    between atoms: C18_14  and  N17_19 
ROOT
HETATM    1  O1  MIQ B 502      20.528  -0.230 -16.032  1.00142.91    -0.171 OA
HETATM    2  C2  MIQ B 502      19.675   0.170 -15.001  1.00141.17     0.195 A 
HETATM    3  C3  MIQ B 502      18.422   1.091 -15.145  1.00141.71     0.035 A 
HETATM    4  C4  MIQ B 502      17.787   1.774 -16.297  1.00142.86     0.046 A 
HETATM    5  C5  MIQ B 502      16.624   2.563 -16.110  1.00139.53     0.031 A 
HETATM    6  C12 MIQ B 502      16.052   2.703 -14.778  1.00139.38     0.030 A 
HETATM    7  C13 MIQ B 502      16.661   2.048 -13.674  1.00141.18     0.019 A 
HETATM    8  C14 MIQ B 502      17.880   1.219 -13.877  1.00138.77     0.033 A 
HETATM    9  C15 MIQ B 502      18.801   0.371 -12.940  1.00142.10     0.195 A 
HETATM   10  N17 MIQ B 502      19.740  -0.143 -13.718  1.00139.42    -0.288 N 
HETATM   11  O16 MIQ B 502      18.658   0.196 -11.562  1.00148.93    -0.171 OA
ENDROOT
BRANCH  10  12
HETATM   12  C18 MIQ B 502      20.792  -0.984 -13.180  1.00139.82     0.187 C 
HETATM   13  C19 MIQ B 502      22.133  -0.436 -13.685  1.00140.06     0.247 C 
HETATM   14  O25 MIQ B 502      22.374   0.711 -13.549  1.00143.95    -0.271 OA
HETATM   15  N20 MIQ B 502      23.117  -1.289 -14.319  1.00140.02    -0.296 N 
HETATM   16  H13 MIQ B 502      23.986  -0.918 -14.650  1.00142.77     0.171 HD
HETATM   17  C21 MIQ B 502      22.796  -2.683 -14.482  1.00142.22     0.224 C 
HETATM   18  C22 MIQ B 502      21.339  -3.022 -14.731  1.00139.52     0.106 C 
HETATM   19  O24 MIQ B 502      23.628  -3.521 -14.419  1.00146.13    -0.273 OA
HETATM   20  C23 MIQ B 502      20.556  -2.443 -13.567  1.00139.15     0.045 C 
ENDBRANCH  10  12
BRANCH   5  21
HETATM   21  N6  MIQ B 502      16.020   3.238 -17.244  1.00140.95    -0.377 N 
HETATM   22  C7  MIQ B 502      16.821   3.438 -18.440  1.00142.12     0.149 C 
HETATM   23  C8  MIQ B 502      16.354   4.646 -19.242  1.00144.10     0.187 C 
HETATM   24  O9  MIQ B 502      14.972   4.666 -19.439  1.00148.65    -0.388 OA
HETATM   25  C10 MIQ B 502      14.145   3.776 -18.748  1.00147.44     0.187 C 
HETATM   26  C11 MIQ B 502      14.574   3.308 -17.361  1.00144.08     0.149 C 
ENDBRANCH   5  21
TORSDOF 2
ENDMDL
MODEL 9
REMARK VINA RESULT:      -5.8     16.585     17.834
REMARK  2 active torsions:
REMARK  status: ('A' for Active; 'I' for Inactive)
REMARK    1  A    between atoms: C5_5  and  N6_21 
REMARK    2  A    between atoms: C18_14  and  N17_19 
ROOT
HETATM    1  O1  MIQ B 502      22.651   1.174 -11.536  1.00142.91    -0.171 OA
HETATM    2  C2  MIQ B 502      21.451   0.821 -12.157  1.00141.17     0.195 A 
HETATM    3  C3  MIQ B 502      21.257  -0.314 -13.213  1.00141.71     0.035 A 
HETATM    4  C4  MIQ B 502      22.179  -1.291 -13.839  1.00142.86     0.046 A 
HETATM    5  C5  MIQ B 502      21.695  -2.225 -14.790  1.00139.53     0.031 A 
HETATM    6  C12 MIQ B 502      20.285  -2.223 -15.152  1.00139.38     0.030 A 
HETATM    7  C13 MIQ B 502      19.401  -1.286 -14.551  1.00141.18     0.019 A 
HETATM    8  C14 MIQ B 502      19.914  -0.310 -13.552  1.00138.77     0.033 A 
HETATM    9  C15 MIQ B 502      19.270   0.833 -12.701  1.00142.10     0.195 A 
HETATM   10  N17 MIQ B 502      20.253   1.353 -11.985  1.00139.42    -0.288 N 
HETATM   11  O16 MIQ B 502      17.930   1.222 -12.702  1.00148.93    -0.171 OA
ENDROOT
BRANCH  10  12
HETATM   12  C18 MIQ B 502      20.025   2.463 -11.079  1.00139.82     0.187 C 
HETATM   13  C19 MIQ B 502      21.029   3.567 -11.428  1.00140.06     0.247 C 
HETATM   14  O25 MIQ B 502      21.124   3.926 -12.548  1.00143.95    -0.271 OA
HETATM   15  N20 MIQ B 502      21.863   4.189 -10.420  1.00140.02    -0.296 N 
HETATM   16  H13 MIQ B 502      22.520   4.904 -10.662  1.00142.77     0.171 HD
HETATM   17  C21 MIQ B 502      21.737   3.727  -9.062  1.00142.22     0.224 C 
HETATM   18  C22 MIQ B 502      21.415   2.257  -8.869  1.00139.52     0.106 C 
HETATM   19  O24 MIQ B 502      21.872   4.460  -8.145  1.00146.13    -0.273 OA
HETATM   20  C23 MIQ B 502      20.127   1.994  -9.628  1.00139.15     0.045 C 
ENDBRANCH  10  12
BRANCH   5  21
HETATM   21  N6  MIQ B 502      22.612  -3.166 -15.407  1.00140.95    -0.377 N 
HETATM   22  C7  MIQ B 502      23.841  -3.499 -14.707  1.00142.12     0.149 C 
HETATM   23  C8  MIQ B 502      24.943  -3.929 -15.666  1.00144.10     0.187 C 
HETATM   24  O9  MIQ B 502      24.513  -4.874 -16.599  1.00148.65    -0.388 OA
HETATM   25  C10 MIQ B 502      23.154  -5.171 -16.732  1.00147.44     0.187 C 
HETATM   26  C11 MIQ B 502      22.136  -4.074 -16.436  1.00144.08     0.149 C 
ENDBRANCH   5  21
TORSDOF 2
ENDMDL
