MODEL 1
REMARK VINA RESULT:      -6.9      0.000      0.000
REMARK  2 active torsions:
REMARK  status: ('A' for Active; 'I' for Inactive)
REMARK    1  A    between atoms: C5_5  and  N6_21 
REMARK    2  A    between atoms: C18_14  and  N17_19 
ROOT
HETATM    1  O1  MIQ B 502       2.167 -20.747   0.941  1.00142.91    -0.171 OA
HETATM    2  C2  MIQ B 502       2.535 -19.455   1.324  1.00141.17     0.195 A 
HETATM    3  C3  MIQ B 502       2.166 -18.752   2.669  1.00141.71     0.035 A 
HETATM    4  C4  MIQ B 502       1.391 -19.174   3.861  1.00142.86     0.046 A 
HETATM    5  C5  MIQ B 502       1.226 -18.290   4.957  1.00139.53     0.031 A 
HETATM    6  C12 MIQ B 502       1.822 -16.963   4.912  1.00139.38     0.030 A 
HETATM    7  C13 MIQ B 502       2.566 -16.559   3.771  1.00141.18     0.019 A 
HETATM    8  C14 MIQ B 502       2.738 -17.491   2.623  1.00138.77     0.033 A 
HETATM    9  C15 MIQ B 502       3.466 -17.411   1.242  1.00142.10     0.195 A 
HETATM   10  N17 MIQ B 502       3.258 -18.577   0.652  1.00139.42    -0.288 N 
HETATM   11  O16 MIQ B 502       4.186 -16.327   0.738  1.00148.93    -0.171 OA
ENDROOT
BRANCH  10  12
HETATM   12  C18 MIQ B 502       3.782 -18.859  -0.672  1.00139.82     0.187 C 
HETATM   13  C19 MIQ B 502       5.267 -18.478  -0.679  1.00140.06     0.247 C 
HETATM   14  O25 MIQ B 502       5.972 -18.893   0.171  1.00143.95    -0.271 OA
HETATM   15  N20 MIQ B 502       5.832 -17.626  -1.705  1.00140.02    -0.296 N 
HETATM   16  H13 MIQ B 502       6.802 -17.379  -1.694  1.00142.77     0.171 HD
HETATM   17  C21 MIQ B 502       4.949 -17.123  -2.726  1.00142.22     0.224 C 
HETATM   18  C22 MIQ B 502       3.521 -16.831  -2.308  1.00139.52     0.106 C 
HETATM   19  O24 MIQ B 502       5.321 -16.953  -3.835  1.00146.13    -0.273 OA
HETATM   20  C23 MIQ B 502       2.967 -18.123  -1.734  1.00139.15     0.045 C 
ENDBRANCH  10  12
BRANCH   5  21
HETATM   21  N6  MIQ B 502       0.452 -18.711   6.111  1.00140.95    -0.377 N 
HETATM   22  C7  MIQ B 502       0.133 -20.120   6.258  1.00142.12     0.149 C 
HETATM   23  C8  MIQ B 502      -1.141 -20.335   7.064  1.00144.10     0.187 C 
HETATM   24  O9  MIQ B 502      -1.169 -19.591   8.245  1.00148.65    -0.388 OA
HETATM   25  C10 MIQ B 502      -0.210 -18.602   8.481  1.00147.44     0.187 C 
HETATM   26  C11 MIQ B 502       0.383 -17.861   7.287  1.00144.08     0.149 C 
ENDBRANCH   5  21
TORSDOF 2
ENDMDL
MODEL 2
REMARK VINA RESULT:      -6.8      1.230      1.672
REMARK  2 active torsions:
REMARK  status: ('A' for Active; 'I' for Inactive)
REMARK    1  A    between atoms: C5_5  and  N6_21 
REMARK    2  A    between atoms: C18_14  and  N17_19 
ROOT
HETATM    1  O1  MIQ B 502       3.564 -20.815   0.768  1.00142.91    -0.171 OA
HETATM    2  C2  MIQ B 502       3.697 -19.428   0.856  1.00141.17     0.195 A 
HETATM    3  C3  MIQ B 502       3.194 -18.526   2.028  1.00141.71     0.035 A 
HETATM    4  C4  MIQ B 502       2.488 -18.808   3.301  1.00142.86     0.046 A 
HETATM    5  C5  MIQ B 502       2.158 -17.751   4.186  1.00139.53     0.031 A 
HETATM    6  C12 MIQ B 502       2.514 -16.382   3.842  1.00139.38     0.030 A 
HETATM    7  C13 MIQ B 502       3.192 -16.111   2.623  1.00141.18     0.019 A 
HETATM    8  C14 MIQ B 502       3.538 -17.225   1.698  1.00138.77     0.033 A 
HETATM    9  C15 MIQ B 502       4.260 -17.320   0.314  1.00142.10     0.195 A 
HETATM   10  N17 MIQ B 502       4.266 -18.603  -0.007  1.00139.42    -0.288 N 
HETATM   11  O16 MIQ B 502       4.787 -16.262  -0.428  1.00148.93    -0.171 OA
ENDROOT
BRANCH  10  12
HETATM   12  C18 MIQ B 502       4.847 -19.070  -1.252  1.00139.82     0.187 C 
HETATM   13  C19 MIQ B 502       6.282 -18.534  -1.327  1.00140.06     0.247 C 
HETATM   14  O25 MIQ B 502       7.008 -18.701  -0.412  1.00143.95    -0.271 OA
HETATM   15  N20 MIQ B 502       6.775 -17.833  -2.495  1.00140.02    -0.296 N 
HETATM   16  H13 MIQ B 502       7.712 -17.482  -2.529  1.00142.77     0.171 HD
HETATM   17  C21 MIQ B 502       5.867 -17.633  -3.594  1.00142.22     0.224 C 
HETATM   18  C22 MIQ B 502       4.406 -17.428  -3.243  1.00139.52     0.106 C 
HETATM   19  O24 MIQ B 502       6.244 -17.634  -4.715  1.00146.13    -0.273 OA
HETATM   20  C23 MIQ B 502       3.983 -18.642  -2.436  1.00139.15     0.045 C 
ENDBRANCH  10  12
BRANCH   5  21
HETATM   21  N6  MIQ B 502       1.453 -18.040   5.422  1.00140.95    -0.377 N 
HETATM   22  C7  MIQ B 502       0.805 -16.946   6.124  1.00142.12     0.149 C 
HETATM   23  C8  MIQ B 502       0.690 -17.217   7.618  1.00144.10     0.187 C 
HETATM   24  O9  MIQ B 502       0.188 -18.489   7.902  1.00148.65    -0.388 OA
HETATM   25  C10 MIQ B 502       0.053 -19.439   6.887  1.00147.44     0.187 C 
HETATM   26  C11 MIQ B 502       1.026 -19.397   5.714  1.00144.08     0.149 C 
ENDBRANCH   5  21
TORSDOF 2
ENDMDL
MODEL 3
REMARK VINA RESULT:      -6.7      1.384      2.499
REMARK  2 active torsions:
REMARK  status: ('A' for Active; 'I' for Inactive)
REMARK    1  A    between atoms: C5_5  and  N6_21 
REMARK    2  A    between atoms: C18_14  and  N17_19 
ROOT
HETATM    1  O1  MIQ B 502       3.752 -15.361   2.103  1.00142.91    -0.171 OA
HETATM    2  C2  MIQ B 502       3.522 -16.720   1.876  1.00141.17     0.195 A 
HETATM    3  C3  MIQ B 502       2.744 -17.693   2.817  1.00141.71     0.035 A 
HETATM    4  C4  MIQ B 502       2.061 -17.521   4.122  1.00142.86     0.046 A 
HETATM    5  C5  MIQ B 502       1.424 -18.622   4.748  1.00139.53     0.031 A 
HETATM    6  C12 MIQ B 502       1.441 -19.928   4.105  1.00139.38     0.030 A 
HETATM    7  C13 MIQ B 502       2.094 -20.093   2.854  1.00141.18     0.019 A 
HETATM    8  C14 MIQ B 502       2.759 -18.933   2.200  1.00138.77     0.033 A 
HETATM    9  C15 MIQ B 502       3.551 -18.728   0.867  1.00142.10     0.195 A 
HETATM   10  N17 MIQ B 502       3.898 -17.452   0.842  1.00139.42    -0.288 N 
HETATM   11  O16 MIQ B 502       3.834 -19.699  -0.095  1.00148.93    -0.171 OA
ENDROOT
BRANCH  10  12
HETATM   12  C18 MIQ B 502       4.669 -16.899  -0.256  1.00139.82     0.187 C 
HETATM   13  C19 MIQ B 502       3.952 -17.264  -1.562  1.00140.06     0.247 C 
HETATM   14  O25 MIQ B 502       2.801 -17.031  -1.671  1.00143.95    -0.271 OA
HETATM   15  N20 MIQ B 502       4.651 -17.882  -2.670  1.00140.02    -0.296 N 
HETATM   16  H13 MIQ B 502       4.170 -18.122  -3.514  1.00142.77     0.171 HD
HETATM   17  C21 MIQ B 502       6.054 -18.166  -2.508  1.00142.22     0.224 C 
HETATM   18  C22 MIQ B 502       6.516 -18.545  -1.115  1.00139.52     0.106 C 
HETATM   19  O24 MIQ B 502       6.806 -18.101  -3.418  1.00146.13    -0.273 OA
HETATM   20  C23 MIQ B 502       6.111 -17.403  -0.201  1.00139.15     0.045 C 
ENDBRANCH  10  12
BRANCH   5  21
HETATM   21  N6  MIQ B 502       0.771 -18.443   6.032  1.00140.95    -0.377 N 
HETATM   22  C7  MIQ B 502       0.510 -19.616   6.848  1.00142.12     0.149 C 
HETATM   23  C8  MIQ B 502      -0.679 -19.408   7.778  1.00144.10     0.187 C 
HETATM   24  O9  MIQ B 502      -0.620 -18.198   8.473  1.00148.65    -0.388 OA
HETATM   25  C10 MIQ B 502       0.326 -17.230   8.129  1.00147.44     0.187 C 
HETATM   26  C11 MIQ B 502       0.785 -17.141   6.677  1.00144.08     0.149 C 
ENDBRANCH   5  21
TORSDOF 2
ENDMDL
MODEL 4
REMARK VINA RESULT:      -6.6     18.205     19.105
REMARK  2 active torsions:
REMARK  status: ('A' for Active; 'I' for Inactive)
REMARK    1  A    between atoms: C5_5  and  N6_21 
REMARK    2  A    between atoms: C18_14  and  N17_19 
ROOT
HETATM    1  O1  MIQ B 502     -10.197  -6.199  -1.278  1.00142.91    -0.171 OA
HETATM    2  C2  MIQ B 502     -11.446  -6.742  -0.970  1.00141.17     0.195 A 
HETATM    3  C3  MIQ B 502     -11.715  -7.972  -0.046  1.00141.71     0.035 A 
HETATM    4  C4  MIQ B 502     -10.832  -8.875   0.732  1.00142.86     0.046 A 
HETATM    5  C5  MIQ B 502     -11.385  -9.932   1.498  1.00139.53     0.031 A 
HETATM    6  C12 MIQ B 502     -12.827 -10.130   1.522  1.00139.38     0.030 A 
HETATM    7  C13 MIQ B 502     -13.673  -9.264   0.778  1.00141.18     0.019 A 
HETATM    8  C14 MIQ B 502     -13.088  -8.155  -0.024  1.00138.77     0.033 A 
HETATM    9  C15 MIQ B 502     -13.675  -7.031  -0.939  1.00142.10     0.195 A 
HETATM   10  N17 MIQ B 502     -12.637  -6.339  -1.379  1.00139.42    -0.288 N 
HETATM   11  O16 MIQ B 502     -15.022  -6.810  -1.231  1.00148.93    -0.171 OA
ENDROOT
BRANCH  10  12
HETATM   12  C18 MIQ B 502     -12.804  -5.213  -2.279  1.00139.82     0.187 C 
HETATM   13  C19 MIQ B 502     -13.826  -4.259  -1.649  1.00140.06     0.247 C 
HETATM   14  O25 MIQ B 502     -13.678  -3.911  -0.532  1.00143.95    -0.271 OA
HETATM   15  N20 MIQ B 502     -14.969  -3.767  -2.391  1.00140.02    -0.296 N 
HETATM   16  H13 MIQ B 502     -15.633  -3.149  -1.966  1.00142.77     0.171 HD
HETATM   17  C21 MIQ B 502     -15.135  -4.214  -3.750  1.00142.22     0.224 C 
HETATM   18  C22 MIQ B 502     -14.676  -5.625  -4.064  1.00139.52     0.106 C 
HETATM   19  O24 MIQ B 502     -15.601  -3.512  -4.579  1.00146.13    -0.273 OA
HETATM   20  C23 MIQ B 502     -13.212  -5.700  -3.669  1.00139.15     0.045 C 
ENDBRANCH  10  12
BRANCH   5  21
HETATM   21  N6  MIQ B 502     -10.508 -10.817   2.243  1.00140.95    -0.377 N 
HETATM   22  C7  MIQ B 502     -10.432 -10.667   3.686  1.00142.12     0.149 C 
HETATM   23  C8  MIQ B 502      -9.096 -11.146   4.238  1.00144.10     0.187 C 
HETATM   24  O9  MIQ B 502      -8.722 -12.398   3.747  1.00148.65    -0.388 OA
HETATM   25  C10 MIQ B 502      -9.425 -12.983   2.691  1.00147.44     0.187 C 
HETATM   26  C11 MIQ B 502     -10.076 -12.073   1.655  1.00144.08     0.149 C 
ENDBRANCH   5  21
TORSDOF 2
ENDMDL
MODEL 5
REMARK VINA RESULT:      -6.6     18.236     19.687
REMARK  2 active torsions:
REMARK  status: ('A' for Active; 'I' for Inactive)
REMARK    1  A    between atoms: C5_5  and  N6_21 
REMARK    2  A    between atoms: C18_14  and  N17_19 
ROOT
HETATM    1  O1  MIQ B 502     -14.342  -8.597   1.580  1.00142.91    -0.171 OA
HETATM    2  C2  MIQ B 502     -13.144  -8.338   0.911  1.00141.17     0.195 A 
HETATM    3  C3  MIQ B 502     -12.900  -7.208  -0.140  1.00141.71     0.035 A 
HETATM    4  C4  MIQ B 502     -13.761  -6.147  -0.713  1.00142.86     0.046 A 
HETATM    5  C5  MIQ B 502     -13.241  -5.243  -1.674  1.00139.53     0.031 A 
HETATM    6  C12 MIQ B 502     -11.853  -5.359  -2.098  1.00139.38     0.030 A 
HETATM    7  C13 MIQ B 502     -11.027  -6.376  -1.548  1.00141.18     0.019 A 
HETATM    8  C14 MIQ B 502     -11.578  -7.320  -0.538  1.00138.77     0.033 A 
HETATM    9  C15 MIQ B 502     -10.998  -8.526   0.271  1.00142.10     0.195 A 
HETATM   10  N17 MIQ B 502     -11.990  -8.973   1.023  1.00139.42    -0.288 N 
HETATM   11  O16 MIQ B 502      -9.697  -9.028   0.205  1.00148.93    -0.171 OA
ENDROOT
BRANCH  10  12
HETATM   12  C18 MIQ B 502     -11.818 -10.111   1.906  1.00139.82     0.187 C 
HETATM   13  C19 MIQ B 502     -10.539  -9.882   2.721  1.00140.06     0.247 C 
HETATM   14  O25 MIQ B 502     -10.394  -8.859   3.290  1.00143.95    -0.271 OA
HETATM   15  N20 MIQ B 502      -9.505 -10.891   2.819  1.00140.02    -0.296 N 
HETATM   16  H13 MIQ B 502      -8.671 -10.727   3.349  1.00142.77     0.171 HD
HETATM   17  C21 MIQ B 502      -9.700 -12.129   2.108  1.00142.22     0.224 C 
HETATM   18  C22 MIQ B 502     -10.451 -12.047   0.792  1.00139.52     0.106 C 
HETATM   19  O24 MIQ B 502      -9.299 -13.156   2.533  1.00146.13    -0.273 OA
HETATM   20  C23 MIQ B 502     -11.793 -11.409   1.101  1.00139.15     0.045 C 
ENDBRANCH  10  12
BRANCH   5  21
HETATM   21  N6  MIQ B 502     -14.100  -4.218  -2.238  1.00140.95    -0.377 N 
HETATM   22  C7  MIQ B 502     -14.901  -4.547  -3.404  1.00142.12     0.149 C 
HETATM   23  C8  MIQ B 502     -15.216  -3.316  -4.244  1.00144.10     0.187 C 
HETATM   24  O9  MIQ B 502     -15.684  -2.244  -3.482  1.00148.65    -0.388 OA
HETATM   25  C10 MIQ B 502     -15.620  -2.285  -2.087  1.00147.44     0.187 C 
HETATM   26  C11 MIQ B 502     -14.491  -3.074  -1.432  1.00144.08     0.149 C 
ENDBRANCH   5  21
TORSDOF 2
ENDMDL
MODEL 6
REMARK VINA RESULT:      -6.5     17.904     19.437
REMARK  2 active torsions:
REMARK  status: ('A' for Active; 'I' for Inactive)
REMARK    1  A    between atoms: C5_5  and  N6_21 
REMARK    2  A    between atoms: C18_14  and  N17_19 
ROOT
HETATM    1  O1  MIQ B 502      -9.744  -8.081  -1.070  1.00142.91    -0.171 OA
HETATM    2  C2  MIQ B 502     -10.876  -8.324  -0.290  1.00141.17     0.195 A 
HETATM    3  C3  MIQ B 502     -12.232  -7.552  -0.367  1.00141.71     0.035 A 
HETATM    4  C4  MIQ B 502     -12.719  -6.430  -1.203  1.00142.86     0.046 A 
HETATM    5  C5  MIQ B 502     -14.037  -5.933  -1.039  1.00139.53     0.031 A 
HETATM    6  C12 MIQ B 502     -14.915  -6.530  -0.043  1.00139.38     0.030 A 
HETATM    7  C13 MIQ B 502     -14.449  -7.607   0.758  1.00141.18     0.019 A 
HETATM    8  C14 MIQ B 502     -13.065  -8.126   0.579  1.00138.77     0.033 A 
HETATM    9  C15 MIQ B 502     -12.222  -9.261   1.247  1.00142.10     0.195 A 
HETATM   10  N17 MIQ B 502     -11.041  -9.238   0.651  1.00139.42    -0.288 N 
HETATM   11  O16 MIQ B 502     -12.636 -10.119   2.268  1.00148.93    -0.171 OA
ENDROOT
BRANCH  10  12
HETATM   12  C18 MIQ B 502      -9.983 -10.155   1.031  1.00139.82     0.187 C 
HETATM   13  C19 MIQ B 502     -10.552 -11.577   0.968  1.00140.06     0.247 C 
HETATM   14  O25 MIQ B 502     -11.111 -11.931  -0.009  1.00143.95    -0.271 OA
HETATM   15  N20 MIQ B 502     -10.417 -12.504   2.073  1.00140.02    -0.296 N 
HETATM   16  H13 MIQ B 502     -10.798 -13.428   2.022  1.00142.77     0.171 HD
HETATM   17  C21 MIQ B 502      -9.739 -12.046   3.258  1.00142.22     0.224 C 
HETATM   18  C22 MIQ B 502      -9.903 -10.581   3.614  1.00139.52     0.106 C 
HETATM   19  O24 MIQ B 502      -9.083 -12.776   3.916  1.00146.13    -0.273 OA
HETATM   20  C23 MIQ B 502      -9.431  -9.789   2.408  1.00139.15     0.045 C 
ENDBRANCH  10  12
BRANCH   5  21
HETATM   21  N6  MIQ B 502     -14.496  -4.823  -1.854  1.00140.95    -0.377 N 
HETATM   22  C7  MIQ B 502     -14.311  -3.471  -1.355  1.00142.12     0.149 C 
HETATM   23  C8  MIQ B 502     -15.346  -2.509  -1.924  1.00144.10     0.187 C 
HETATM   24  O9  MIQ B 502     -15.489  -2.620  -3.308  1.00148.65    -0.388 OA
HETATM   25  C10 MIQ B 502     -14.892  -3.678  -3.999  1.00147.44     0.187 C 
HETATM   26  C11 MIQ B 502     -14.713  -5.010  -3.278  1.00144.08     0.149 C 
ENDBRANCH   5  21
TORSDOF 2
ENDMDL
MODEL 7
REMARK VINA RESULT:      -6.4     18.062     19.353
REMARK  2 active torsions:
REMARK  status: ('A' for Active; 'I' for Inactive)
REMARK    1  A    between atoms: C5_5  and  N6_21 
REMARK    2  A    between atoms: C18_14  and  N17_19 
ROOT
HETATM    1  O1  MIQ B 502     -12.595  -9.429   2.100  1.00142.91    -0.171 OA
HETATM    2  C2  MIQ B 502     -12.000  -8.695   1.072  1.00141.17     0.195 A 
HETATM    3  C3  MIQ B 502     -12.526  -7.351   0.475  1.00141.71     0.035 A 
HETATM    4  C4  MIQ B 502     -13.701  -6.496   0.768  1.00142.86     0.046 A 
HETATM    5  C5  MIQ B 502     -13.917  -5.300   0.037  1.00139.53     0.031 A 
HETATM    6  C12 MIQ B 502     -12.979  -4.911  -1.006  1.00139.38     0.030 A 
HETATM    7  C13 MIQ B 502     -11.852  -5.730  -1.286  1.00141.18     0.019 A 
HETATM    8  C14 MIQ B 502     -11.629  -6.983  -0.515  1.00138.77     0.033 A 
HETATM    9  C15 MIQ B 502     -10.539  -8.104  -0.531  1.00142.10     0.195 A 
HETATM   10  N17 MIQ B 502     -10.892  -8.969   0.405  1.00139.42    -0.288 N 
HETATM   11  O16 MIQ B 502      -9.425  -8.174  -1.368  1.00148.93    -0.171 OA
ENDROOT
BRANCH  10  12
HETATM   12  C18 MIQ B 502     -10.110 -10.164   0.666  1.00139.82     0.187 C 
HETATM   13  C19 MIQ B 502     -11.046 -11.372   0.539  1.00140.06     0.247 C 
HETATM   14  O25 MIQ B 502     -11.714 -11.485  -0.427  1.00143.95    -0.271 OA
HETATM   15  N20 MIQ B 502     -11.130 -12.385   1.571  1.00140.02    -0.296 N 
HETATM   16  H13 MIQ B 502     -11.750 -13.165   1.479  1.00142.77     0.171 HD
HETATM   17  C21 MIQ B 502     -10.313 -12.220   2.746  1.00142.22     0.224 C 
HETATM   18  C22 MIQ B 502     -10.061 -10.797   3.206  1.00139.52     0.106 C 
HETATM   19  O24 MIQ B 502      -9.858 -13.149   3.317  1.00146.13    -0.273 OA
HETATM   20  C23 MIQ B 502      -9.433 -10.069   2.032  1.00139.15     0.045 C 
ENDBRANCH  10  12
BRANCH   5  21
HETATM   21  N6  MIQ B 502     -15.080  -4.480   0.325  1.00140.95    -0.377 N 
HETATM   22  C7  MIQ B 502     -15.180  -3.851   1.630  1.00142.12     0.149 C 
HETATM   23  C8  MIQ B 502     -16.628  -3.597   2.030  1.00144.10     0.187 C 
HETATM   24  O9  MIQ B 502     -17.373  -2.991   1.016  1.00148.65    -0.388 OA
HETATM   25  C10 MIQ B 502     -16.850  -2.876  -0.275  1.00147.44     0.187 C 
HETATM   26  C11 MIQ B 502     -15.876  -3.942  -0.764  1.00144.08     0.149 C 
ENDBRANCH   5  21
TORSDOF 2
ENDMDL
MODEL 8
REMARK VINA RESULT:      -6.3     16.316     18.895
REMARK  2 active torsions:
REMARK  status: ('A' for Active; 'I' for Inactive)
REMARK    1  A    between atoms: C5_5  and  N6_21 
REMARK    2  A    between atoms: C18_14  and  N17_19 
ROOT
HETATM    1  O1  MIQ B 502      -9.977  -8.618   3.841  1.00142.91    -0.171 OA
HETATM    2  C2  MIQ B 502     -11.251  -9.020   3.432  1.00141.17     0.195 A 
HETATM    3  C3  MIQ B 502     -11.961  -8.618   2.100  1.00141.71     0.035 A 
HETATM    4  C4  MIQ B 502     -11.565  -7.771   0.949  1.00142.86     0.046 A 
HETATM    5  C5  MIQ B 502     -12.448  -7.590  -0.145  1.00139.53     0.031 A 
HETATM    6  C12 MIQ B 502     -13.750  -8.241  -0.137  1.00139.38     0.030 A 
HETATM    7  C13 MIQ B 502     -14.130  -9.054   0.965  1.00141.18     0.019 A 
HETATM    8  C14 MIQ B 502     -13.198  -9.242   2.110  1.00138.77     0.033 A 
HETATM    9  C15 MIQ B 502     -13.255 -10.037   3.455  1.00142.10     0.195 A 
HETATM   10  N17 MIQ B 502     -12.102  -9.810   4.063  1.00139.42    -0.288 N 
HETATM   11  O16 MIQ B 502     -14.312 -10.822   3.917  1.00148.93    -0.171 OA
ENDROOT
BRANCH  10  12
HETATM   12  C18 MIQ B 502     -11.806 -10.383   5.363  1.00139.82     0.187 C 
HETATM   13  C19 MIQ B 502     -11.367  -9.241   6.288  1.00140.06     0.247 C 
HETATM   14  O25 MIQ B 502     -12.043  -8.278   6.375  1.00143.95    -0.271 OA
HETATM   15  N20 MIQ B 502     -10.146  -9.314   7.065  1.00140.02    -0.296 N 
HETATM   16  H13 MIQ B 502      -9.867  -8.559   7.660  1.00142.77     0.171 HD
HETATM   17  C21 MIQ B 502      -9.333 -10.495   6.933  1.00142.22     0.224 C 
HETATM   18  C22 MIQ B 502      -9.315 -11.162   5.571  1.00139.52     0.106 C 
HETATM   19  O24 MIQ B 502      -8.715 -10.925   7.845  1.00146.13    -0.273 OA
HETATM   20  C23 MIQ B 502     -10.758 -11.486   5.231  1.00139.15     0.045 C 
ENDBRANCH  10  12
BRANCH   5  21
HETATM   21  N6  MIQ B 502     -12.053  -6.746  -1.258  1.00140.95    -0.377 N 
HETATM   22  C7  MIQ B 502     -13.063  -5.919  -1.894  1.00142.12     0.149 C 
HETATM   23  C8  MIQ B 502     -12.720  -5.619  -3.348  1.00144.10     0.187 C 
HETATM   24  O9  MIQ B 502     -11.402  -5.189  -3.517  1.00148.65    -0.388 OA
HETATM   25  C10 MIQ B 502     -10.489  -5.275  -2.464  1.00147.44     0.187 C 
HETATM   26  C11 MIQ B 502     -10.656  -6.396  -1.443  1.00144.08     0.149 C 
ENDBRANCH   5  21
TORSDOF 2
ENDMDL
MODEL 9
REMARK VINA RESULT:      -6.3     16.185     18.974
REMARK  2 active torsions:
REMARK  status: ('A' for Active; 'I' for Inactive)
REMARK    1  A    between atoms: C5_5  and  N6_21 
REMARK    2  A    between atoms: C18_14  and  N17_19 
ROOT
HETATM    1  O1  MIQ B 502     -13.489  -7.085   4.094  1.00142.91    -0.171 OA
HETATM    2  C2  MIQ B 502     -12.549  -8.031   3.677  1.00141.17     0.195 A 
HETATM    3  C3  MIQ B 502     -11.855  -8.087   2.280  1.00141.71     0.035 A 
HETATM    4  C4  MIQ B 502     -11.946  -7.247   1.062  1.00142.86     0.046 A 
HETATM    5  C5  MIQ B 502     -11.168  -7.557  -0.082  1.00139.53     0.031 A 
HETATM    6  C12 MIQ B 502     -10.275  -8.706  -0.059  1.00139.38     0.030 A 
HETATM    7  C13 MIQ B 502     -10.186  -9.511   1.108  1.00141.18     0.019 A 
HETATM    8  C14 MIQ B 502     -11.003  -9.180   2.307  1.00138.77     0.033 A 
HETATM    9  C15 MIQ B 502     -11.170  -9.805   3.731  1.00142.10     0.195 A 
HETATM   10  N17 MIQ B 502     -12.056  -9.051   4.360  1.00139.42    -0.288 N 
HETATM   11  O16 MIQ B 502     -10.517 -10.933   4.230  1.00148.93    -0.171 OA
ENDROOT
BRANCH  10  12
HETATM   12  C18 MIQ B 502     -12.475  -9.346   5.717  1.00139.82     0.187 C 
HETATM   13  C19 MIQ B 502     -11.216  -9.408   6.592  1.00140.06     0.247 C 
HETATM   14  O25 MIQ B 502     -10.444  -8.517   6.553  1.00143.95    -0.271 OA
HETATM   15  N20 MIQ B 502     -10.951 -10.528   7.470  1.00140.02    -0.296 N 
HETATM   16  H13 MIQ B 502     -10.123 -10.560   8.031  1.00142.77     0.171 HD
HETATM   17  C21 MIQ B 502     -11.904 -11.608   7.492  1.00142.22     0.224 C 
HETATM   18  C22 MIQ B 502     -12.613 -11.918   6.188  1.00139.52     0.106 C 
HETATM   19  O24 MIQ B 502     -12.124 -12.217   8.481  1.00146.13    -0.273 OA
HETATM   20  C23 MIQ B 502     -13.295 -10.634   5.753  1.00139.15     0.045 C 
ENDBRANCH  10  12
BRANCH   5  21
HETATM   21  N6  MIQ B 502     -11.278  -6.734  -1.273  1.00140.95    -0.377 N 
HETATM   22  C7  MIQ B 502     -12.456  -5.898  -1.433  1.00142.12     0.149 C 
HETATM   23  C8  MIQ B 502     -12.762  -5.623  -2.900  1.00144.10     0.187 C 
HETATM   24  O9  MIQ B 502     -11.639  -5.216  -3.623  1.00148.65    -0.388 OA
HETATM   25  C10 MIQ B 502     -10.364  -5.304  -3.058  1.00147.44     0.187 C 
HETATM   26  C11 MIQ B 502     -10.090  -6.408  -2.043  1.00144.08     0.149 C 
ENDBRANCH   5  21
TORSDOF 2
ENDMDL
