MODEL 1
REMARK VINA RESULT:      -7.3      0.000      0.000
REMARK  2 active torsions:
REMARK  status: ('A' for Active; 'I' for Inactive)
REMARK    1  A    between atoms: C5_5  and  N6_21 
REMARK    2  A    between atoms: C18_14  and  N17_19 
ROOT
HETATM    1  O1  MIQ B 502      -0.796  14.537  16.094  1.00142.91    -0.171 OA
HETATM    2  C2  MIQ B 502       0.393  14.218  15.435  1.00141.17     0.195 A 
HETATM    3  C3  MIQ B 502       0.979  14.949  14.185  1.00141.71     0.035 A 
HETATM    4  C4  MIQ B 502       0.523  16.100  13.371  1.00142.86     0.046 A 
HETATM    5  C5  MIQ B 502       1.291  16.547  12.266  1.00139.53     0.031 A 
HETATM    6  C12 MIQ B 502       2.536  15.869  11.931  1.00139.38     0.030 A 
HETATM    7  C13 MIQ B 502       2.974  14.766  12.712  1.00141.18     0.019 A 
HETATM    8  C14 MIQ B 502       2.164  14.303  13.872  1.00138.77     0.033 A 
HETATM    9  C15 MIQ B 502       2.315  13.166  14.934  1.00142.10     0.195 A 
HETATM   10  N17 MIQ B 502       1.256  13.259  15.722  1.00139.42    -0.288 N 
HETATM   11  O16 MIQ B 502       3.356  12.241  15.026  1.00148.93    -0.171 OA
ENDROOT
BRANCH  10  12
HETATM   12  C18 MIQ B 502       1.051  12.341  16.827  1.00139.82     0.187 C 
HETATM   13  C19 MIQ B 502      -0.316  11.674  16.633  1.00140.06     0.247 C 
HETATM   14  O25 MIQ B 502      -0.572  11.177  15.594  1.00143.95    -0.271 OA
HETATM   15  N20 MIQ B 502      -1.303  11.631  17.693  1.00140.02    -0.296 N 
HETATM   16  H13 MIQ B 502      -2.194  11.198  17.551  1.00142.77     0.171 HD
HETATM   17  C21 MIQ B 502      -0.971  12.253  18.948  1.00142.22     0.224 C 
HETATM   18  C22 MIQ B 502      -0.091  13.487  18.886  1.00139.52     0.106 C 
HETATM   19  O24 MIQ B 502      -1.361  11.819  19.976  1.00146.13    -0.273 OA
HETATM   20  C23 MIQ B 502       1.177  13.076  18.160  1.00139.15     0.045 C 
ENDBRANCH  10  12
BRANCH   5  21
HETATM   21  N6  MIQ B 502       0.825  17.666  11.469  1.00140.95    -0.377 N 
HETATM   22  C7  MIQ B 502      -0.323  18.423  11.938  1.00142.12     0.149 C 
HETATM   23  C8  MIQ B 502      -1.075  19.085  10.791  1.00144.10     0.187 C 
HETATM   24  O9  MIQ B 502      -0.233  19.764   9.909  1.00148.65    -0.388 OA
HETATM   25  C10 MIQ B 502       1.153  19.613   9.995  1.00147.44     0.187 C 
HETATM   26  C11 MIQ B 502       1.712  18.286  10.500  1.00144.08     0.149 C 
ENDBRANCH   5  21
TORSDOF 2
ENDMDL
MODEL 2
REMARK VINA RESULT:      -7.1      1.975      2.946
REMARK  2 active torsions:
REMARK  status: ('A' for Active; 'I' for Inactive)
REMARK    1  A    between atoms: C5_5  and  N6_21 
REMARK    2  A    between atoms: C18_14  and  N17_19 
ROOT
HETATM    1  O1  MIQ B 502      -3.122  15.231  15.590  1.00142.91    -0.171 OA
HETATM    2  C2  MIQ B 502      -2.038  14.351  15.545  1.00141.17     0.195 A 
HETATM    3  C3  MIQ B 502      -0.771  14.496  14.643  1.00141.71     0.035 A 
HETATM    4  C4  MIQ B 502      -0.339  15.504  13.646  1.00142.86     0.046 A 
HETATM    5  C5  MIQ B 502       0.900  15.360  12.972  1.00139.53     0.031 A 
HETATM    6  C12 MIQ B 502       1.752  14.216  13.262  1.00139.38     0.030 A 
HETATM    7  C13 MIQ B 502       1.339  13.250  14.219  1.00141.18     0.019 A 
HETATM    8  C14 MIQ B 502       0.038  13.407  14.925  1.00138.77     0.033 A 
HETATM    9  C15 MIQ B 502      -0.731  12.583  16.008  1.00142.10     0.195 A 
HETATM   10  N17 MIQ B 502      -1.854  13.242  16.239  1.00139.42    -0.288 N 
HETATM   11  O16 MIQ B 502      -0.313  11.391  16.605  1.00148.93    -0.171 OA
ENDROOT
BRANCH  10  12
HETATM   12  C18 MIQ B 502      -2.836  12.755  17.190  1.00139.82     0.187 C 
HETATM   13  C19 MIQ B 502      -2.109  12.471  18.510  1.00140.06     0.247 C 
HETATM   14  O25 MIQ B 502      -1.419  13.306  18.978  1.00143.95    -0.271 OA
HETATM   15  N20 MIQ B 502      -2.249  11.207  19.204  1.00140.02    -0.296 N 
HETATM   16  H13 MIQ B 502      -1.764  11.032  20.061  1.00142.77     0.171 HD
HETATM   17  C21 MIQ B 502      -3.089  10.200  18.607  1.00142.22     0.224 C 
HETATM   18  C22 MIQ B 502      -3.124  10.154  17.092  1.00139.52     0.106 C 
HETATM   19  O24 MIQ B 502      -3.721   9.452  19.268  1.00146.13    -0.273 OA
HETATM   20  C23 MIQ B 502      -3.560  11.532  16.628  1.00139.15     0.045 C 
ENDBRANCH  10  12
BRANCH   5  21
HETATM   21  N6  MIQ B 502       1.304  16.347  11.987  1.00140.95    -0.377 N 
HETATM   22  C7  MIQ B 502       0.596  17.616  11.945  1.00142.12     0.149 C 
HETATM   23  C8  MIQ B 502       0.643  18.247  10.559  1.00144.10     0.187 C 
HETATM   24  O9  MIQ B 502       1.928  18.261  10.012  1.00148.65    -0.388 OA
HETATM   25  C10 MIQ B 502       2.964  17.547  10.619  1.00147.44     0.187 C 
HETATM   26  C11 MIQ B 502       2.621  16.271  11.381  1.00144.08     0.149 C 
ENDBRANCH   5  21
TORSDOF 2
ENDMDL
MODEL 3
REMARK VINA RESULT:      -7.0      3.552      8.381
REMARK  2 active torsions:
REMARK  status: ('A' for Active; 'I' for Inactive)
REMARK    1  A    between atoms: C5_5  and  N6_21 
REMARK    2  A    between atoms: C18_14  and  N17_19 
ROOT
HETATM    1  O1  MIQ B 502       0.896  11.584  15.256  1.00142.91    -0.171 OA
HETATM    2  C2  MIQ B 502       0.122  12.537  15.922  1.00141.17     0.195 A 
HETATM    3  C3  MIQ B 502      -1.180  12.260  16.739  1.00141.71     0.035 A 
HETATM    4  C4  MIQ B 502      -1.944  11.030  17.051  1.00142.86     0.046 A 
HETATM    5  C5  MIQ B 502      -3.120  11.097  17.841  1.00139.53     0.031 A 
HETATM    6  C12 MIQ B 502      -3.577  12.384  18.348  1.00139.38     0.030 A 
HETATM    7  C13 MIQ B 502      -2.843  13.563  18.050  1.00141.18     0.019 A 
HETATM    8  C14 MIQ B 502      -1.609  13.486  17.222  1.00138.77     0.033 A 
HETATM    9  C15 MIQ B 502      -0.567  14.529  16.702  1.00142.10     0.195 A 
HETATM   10  N17 MIQ B 502       0.322  13.841  16.005  1.00139.42    -0.288 N 
HETATM   11  O16 MIQ B 502      -0.579  15.907  16.929  1.00148.93    -0.171 OA
ENDROOT
BRANCH  10  12
HETATM   12  C18 MIQ B 502       1.442  14.494  15.352  1.00139.82     0.187 C 
HETATM   13  C19 MIQ B 502       1.489  14.001  13.900  1.00140.06     0.247 C 
HETATM   14  O25 MIQ B 502       0.509  14.046  13.245  1.00143.95    -0.271 OA
HETATM   15  N20 MIQ B 502       2.706  13.485  13.308  1.00140.02    -0.296 N 
HETATM   16  H13 MIQ B 502       2.722  13.160  12.361  1.00142.77     0.171 HD
HETATM   17  C21 MIQ B 502       3.886  13.430  14.131  1.00142.22     0.224 C 
HETATM   18  C22 MIQ B 502       3.675  13.150  15.607  1.00139.52     0.106 C 
HETATM   19  O24 MIQ B 502       4.964  13.600  13.678  1.00146.13    -0.273 OA
HETATM   20  C23 MIQ B 502       2.735  14.226  16.120  1.00139.15     0.045 C 
ENDBRANCH  10  12
BRANCH   5  21
HETATM   21  N6  MIQ B 502      -3.867   9.886  18.127  1.00140.95    -0.377 N 
HETATM   22  C7  MIQ B 502      -5.272  10.003  18.479  1.00142.12     0.149 C 
HETATM   23  C8  MIQ B 502      -5.740   8.840  19.343  1.00144.10     0.187 C 
HETATM   24  O9  MIQ B 502      -5.353   7.597  18.837  1.00148.65    -0.388 OA
HETATM   25  C10 MIQ B 502      -4.439   7.515  17.784  1.00147.44     0.187 C 
HETATM   26  C11 MIQ B 502      -3.378   8.603  17.653  1.00144.08     0.149 C 
ENDBRANCH   5  21
TORSDOF 2
ENDMDL
MODEL 4
REMARK VINA RESULT:      -7.0      3.514      8.630
REMARK  2 active torsions:
REMARK  status: ('A' for Active; 'I' for Inactive)
REMARK    1  A    between atoms: C5_5  and  N6_21 
REMARK    2  A    between atoms: C18_14  and  N17_19 
ROOT
HETATM    1  O1  MIQ B 502       0.510  11.439  15.275  1.00142.91    -0.171 OA
HETATM    2  C2  MIQ B 502      -0.288  12.341  15.983  1.00141.17     0.195 A 
HETATM    3  C3  MIQ B 502      -1.579  11.993  16.790  1.00141.71     0.035 A 
HETATM    4  C4  MIQ B 502      -2.310  10.730  17.049  1.00142.86     0.046 A 
HETATM    5  C5  MIQ B 502      -3.484  10.731  17.844  1.00139.53     0.031 A 
HETATM    6  C12 MIQ B 502      -3.974  11.981  18.408  1.00139.38     0.030 A 
HETATM    7  C13 MIQ B 502      -3.273  13.192  18.160  1.00141.18     0.019 A 
HETATM    8  C14 MIQ B 502      -2.039  13.184  17.327  1.00138.77     0.033 A 
HETATM    9  C15 MIQ B 502      -1.027  14.277  16.852  1.00142.10     0.195 A 
HETATM   10  N17 MIQ B 502      -0.122  13.645  16.123  1.00139.42    -0.288 N 
HETATM   11  O16 MIQ B 502      -1.076  15.643  17.138  1.00148.93    -0.171 OA
ENDROOT
BRANCH  10  12
HETATM   12  C18 MIQ B 502       0.977  14.355  15.497  1.00139.82     0.187 C 
HETATM   13  C19 MIQ B 502       1.002  13.966  14.014  1.00140.06     0.247 C 
HETATM   14  O25 MIQ B 502       0.009  14.045  13.381  1.00143.95    -0.271 OA
HETATM   15  N20 MIQ B 502       2.213  13.508  13.364  1.00140.02    -0.296 N 
HETATM   16  H13 MIQ B 502       2.214  13.250  12.397  1.00142.77     0.171 HD
HETATM   17  C21 MIQ B 502       3.409  13.409  14.160  1.00142.22     0.224 C 
HETATM   18  C22 MIQ B 502       3.229  13.024  15.616  1.00139.52     0.106 C 
HETATM   19  O24 MIQ B 502       4.476  13.624  13.700  1.00146.13    -0.273 OA
HETATM   20  C23 MIQ B 502       2.288  14.050  16.220  1.00139.15     0.045 C 
ENDBRANCH  10  12
BRANCH   5  21
HETATM   21  N6  MIQ B 502      -4.198   9.489  18.077  1.00140.95    -0.377 N 
HETATM   22  C7  MIQ B 502      -3.469   8.237  17.962  1.00142.12     0.149 C 
HETATM   23  C8  MIQ B 502      -4.386   7.078  17.591  1.00144.10     0.187 C 
HETATM   24  O9  MIQ B 502      -5.541   7.027  18.373  1.00148.65    -0.388 OA
HETATM   25  C10 MIQ B 502      -5.870   8.088  19.221  1.00147.44     0.187 C 
HETATM   26  C11 MIQ B 502      -5.443   9.497  18.825  1.00144.08     0.149 C 
ENDBRANCH   5  21
TORSDOF 2
ENDMDL
MODEL 5
REMARK VINA RESULT:      -7.0      2.810      8.203
REMARK  2 active torsions:
REMARK  status: ('A' for Active; 'I' for Inactive)
REMARK    1  A    between atoms: C5_5  and  N6_21 
REMARK    2  A    between atoms: C18_14  and  N17_19 
ROOT
HETATM    1  O1  MIQ B 502      -1.925  18.283  12.746  1.00142.91    -0.171 OA
HETATM    2  C2  MIQ B 502      -0.745  18.283  11.999  1.00141.17     0.195 A 
HETATM    3  C3  MIQ B 502       0.390  17.211  12.067  1.00141.71     0.035 A 
HETATM    4  C4  MIQ B 502       0.573  15.971  12.858  1.00142.86     0.046 A 
HETATM    5  C5  MIQ B 502       1.741  15.184  12.695  1.00139.53     0.031 A 
HETATM    6  C12 MIQ B 502       2.765  15.597  11.746  1.00139.38     0.030 A 
HETATM    7  C13 MIQ B 502       2.588  16.786  10.987  1.00141.18     0.019 A 
HETATM    8  C14 MIQ B 502       1.359  17.607  11.160  1.00138.77     0.033 A 
HETATM    9  C15 MIQ B 502       0.823  18.931  10.524  1.00142.10     0.195 A 
HETATM   10  N17 MIQ B 502      -0.348  19.162  11.094  1.00139.42    -0.288 N 
HETATM   11  O16 MIQ B 502       1.457  19.709   9.554  1.00148.93    -0.171 OA
ENDROOT
BRANCH  10  12
HETATM   12  C18 MIQ B 502      -1.138  20.331  10.755  1.00139.82     0.187 C 
HETATM   13  C19 MIQ B 502      -1.507  21.042  12.063  1.00140.06     0.247 C 
HETATM   14  O25 MIQ B 502      -0.657  21.295  12.840  1.00143.95    -0.271 OA
HETATM   15  N20 MIQ B 502      -2.872  21.417  12.370  1.00140.02    -0.296 N 
HETATM   16  H13 MIQ B 502      -3.101  21.874  13.230  1.00142.77     0.171 HD
HETATM   17  C21 MIQ B 502      -3.894  21.087  11.410  1.00142.22     0.224 C 
HETATM   18  C22 MIQ B 502      -3.700  19.806  10.622  1.00139.52     0.106 C 
HETATM   19  O24 MIQ B 502      -4.834  21.784  11.244  1.00146.13    -0.273 OA
HETATM   20  C23 MIQ B 502      -2.357  19.927   9.926  1.00139.15     0.045 C 
ENDBRANCH  10  12
BRANCH   5  21
HETATM   21  N6  MIQ B 502       1.915  13.980  13.487  1.00140.95    -0.377 N 
HETATM   22  C7  MIQ B 502       3.039  13.908  14.405  1.00142.12     0.149 C 
HETATM   23  C8  MIQ B 502       3.476  12.471  14.657  1.00144.10     0.187 C 
HETATM   24  O9  MIQ B 502       2.408  11.622  14.954  1.00148.65    -0.388 OA
HETATM   25  C10 MIQ B 502       1.091  12.057  14.787  1.00147.44     0.187 C 
HETATM   26  C11 MIQ B 502       0.793  13.082  13.697  1.00144.08     0.149 C 
ENDBRANCH   5  21
TORSDOF 2
ENDMDL
MODEL 6
REMARK VINA RESULT:      -6.8      3.723      8.445
REMARK  2 active torsions:
REMARK  status: ('A' for Active; 'I' for Inactive)
REMARK    1  A    between atoms: C5_5  and  N6_21 
REMARK    2  A    between atoms: C18_14  and  N17_19 
ROOT
HETATM    1  O1  MIQ B 502       2.005  12.466  17.344  1.00142.91    -0.171 OA
HETATM    2  C2  MIQ B 502       0.766  12.927  16.894  1.00141.17     0.195 A 
HETATM    3  C3  MIQ B 502      -0.568  12.929  17.707  1.00141.71     0.035 A 
HETATM    4  C4  MIQ B 502      -0.926  12.494  19.078  1.00142.86     0.046 A 
HETATM    5  C5  MIQ B 502      -2.257  12.628  19.548  1.00139.53     0.031 A 
HETATM    6  C12 MIQ B 502      -3.277  13.196  18.677  1.00139.38     0.030 A 
HETATM    7  C13 MIQ B 502      -2.934  13.614  17.363  1.00141.18     0.019 A 
HETATM    8  C14 MIQ B 502      -1.534  13.474  16.877  1.00138.77     0.033 A 
HETATM    9  C15 MIQ B 502      -0.796  13.812  15.541  1.00142.10     0.195 A 
HETATM   10  N17 MIQ B 502       0.465  13.451  15.718  1.00139.42    -0.288 N 
HETATM   11  O16 MIQ B 502      -1.358  14.377  14.395  1.00148.93    -0.171 OA
ENDROOT
BRANCH  10  12
HETATM   12  C18 MIQ B 502       1.452  13.606  14.666  1.00139.82     0.187 C 
HETATM   13  C19 MIQ B 502       2.086  12.232  14.415  1.00140.06     0.247 C 
HETATM   14  O25 MIQ B 502       1.387  11.300  14.229  1.00143.95    -0.271 OA
HETATM   15  N20 MIQ B 502       3.522  12.046  14.392  1.00140.02    -0.296 N 
HETATM   16  H13 MIQ B 502       3.924  11.143  14.233  1.00142.77     0.171 HD
HETATM   17  C21 MIQ B 502       4.355  13.196  14.633  1.00142.22     0.224 C 
HETATM   18  C22 MIQ B 502       3.818  14.237  15.595  1.00139.52     0.106 C 
HETATM   19  O24 MIQ B 502       5.403  13.323  14.100  1.00146.13    -0.273 OA
HETATM   20  C23 MIQ B 502       2.472  14.677  15.048  1.00139.15     0.045 C 
ENDBRANCH  10  12
BRANCH   5  21
HETATM   21  N6  MIQ B 502      -2.597  12.184  20.887  1.00140.95    -0.377 N 
HETATM   22  C7  MIQ B 502      -1.966  12.842  22.018  1.00142.12     0.149 C 
HETATM   23  C8  MIQ B 502      -1.884  11.928  23.234  1.00144.10     0.187 C 
HETATM   24  O9  MIQ B 502      -3.092  11.288  23.515  1.00148.65    -0.388 OA
HETATM   25  C10 MIQ B 502      -4.149  11.340  22.603  1.00147.44     0.187 C 
HETATM   26  C11 MIQ B 502      -3.826  11.444  21.117  1.00144.08     0.149 C 
ENDBRANCH   5  21
TORSDOF 2
ENDMDL
MODEL 7
REMARK VINA RESULT:      -6.8      3.773      8.302
REMARK  2 active torsions:
REMARK  status: ('A' for Active; 'I' for Inactive)
REMARK    1  A    between atoms: C5_5  and  N6_21 
REMARK    2  A    between atoms: C18_14  and  N17_19 
ROOT
HETATM    1  O1  MIQ B 502       1.690  12.129  17.231  1.00142.91    -0.171 OA
HETATM    2  C2  MIQ B 502       0.545  12.624  16.604  1.00141.17     0.195 A 
HETATM    3  C3  MIQ B 502      -0.917  12.530  17.146  1.00141.71     0.035 A 
HETATM    4  C4  MIQ B 502      -1.513  11.951  18.373  1.00142.86     0.046 A 
HETATM    5  C5  MIQ B 502      -2.912  12.024  18.593  1.00139.53     0.031 A 
HETATM    6  C12 MIQ B 502      -3.766  12.672  17.608  1.00139.38     0.030 A 
HETATM    7  C13 MIQ B 502      -3.194  13.228  16.432  1.00141.18     0.019 A 
HETATM    8  C14 MIQ B 502      -1.725  13.151  16.208  1.00138.77     0.033 A 
HETATM    9  C15 MIQ B 502      -0.759  13.634  15.077  1.00142.10     0.195 A 
HETATM   10  N17 MIQ B 502       0.455  13.267  15.452  1.00139.42    -0.288 N 
HETATM   11  O16 MIQ B 502      -1.112  14.312  13.909  1.00148.93    -0.171 OA
ENDROOT
BRANCH  10  12
HETATM   12  C18 MIQ B 502       1.618  13.539  14.627  1.00139.82     0.187 C 
HETATM   13  C19 MIQ B 502       2.388  12.224  14.456  1.00140.06     0.247 C 
HETATM   14  O25 MIQ B 502       1.810  11.260  14.098  1.00143.95    -0.271 OA
HETATM   15  N20 MIQ B 502       3.810  12.132  14.717  1.00140.02    -0.296 N 
HETATM   16  H13 MIQ B 502       4.300  11.266  14.608  1.00142.77     0.171 HD
HETATM   17  C21 MIQ B 502       4.492  13.319  15.164  1.00142.22     0.224 C 
HETATM   18  C22 MIQ B 502       3.699  14.272  16.037  1.00139.52     0.106 C 
HETATM   19  O24 MIQ B 502       5.612  13.540  14.858  1.00146.13    -0.273 OA
HETATM   20  C23 MIQ B 502       2.460  14.653  15.247  1.00139.15     0.045 C 
ENDBRANCH  10  12
BRANCH   5  21
HETATM   21  N6  MIQ B 502      -3.485  11.439  19.792  1.00140.95    -0.377 N 
HETATM   22  C7  MIQ B 502      -3.799  12.313  20.909  1.00142.12     0.149 C 
HETATM   23  C8  MIQ B 502      -3.762  11.571  22.239  1.00144.10     0.187 C 
HETATM   24  O9  MIQ B 502      -4.464  10.365  22.209  1.00148.65    -0.388 OA
HETATM   25  C10 MIQ B 502      -4.924   9.844  20.997  1.00147.44     0.187 C 
HETATM   26  C11 MIQ B 502      -4.131  10.140  19.728  1.00144.08     0.149 C 
ENDBRANCH   5  21
TORSDOF 2
ENDMDL
MODEL 8
REMARK VINA RESULT:      -6.7      3.474      7.911
REMARK  2 active torsions:
REMARK  status: ('A' for Active; 'I' for Inactive)
REMARK    1  A    between atoms: C5_5  and  N6_21 
REMARK    2  A    between atoms: C18_14  and  N17_19 
ROOT
HETATM    1  O1  MIQ B 502      -0.242  15.604  17.214  1.00142.91    -0.171 OA
HETATM    2  C2  MIQ B 502      -0.279  14.284  16.759  1.00141.17     0.195 A 
HETATM    3  C3  MIQ B 502      -1.354  13.212  17.125  1.00141.71     0.035 A 
HETATM    4  C4  MIQ B 502      -2.564  13.233  17.981  1.00142.86     0.046 A 
HETATM    5  C5  MIQ B 502      -3.364  12.071  18.120  1.00139.53     0.031 A 
HETATM    6  C12 MIQ B 502      -2.994  10.851  17.417  1.00139.38     0.030 A 
HETATM    7  C13 MIQ B 502      -1.835  10.830  16.595  1.00141.18     0.019 A 
HETATM    8  C14 MIQ B 502      -1.000  12.054  16.451  1.00138.77     0.033 A 
HETATM    9  C15 MIQ B 502       0.302  12.410  15.662  1.00142.10     0.195 A 
HETATM   10  N17 MIQ B 502       0.562  13.677  15.939  1.00139.42    -0.288 N 
HETATM   11  O16 MIQ B 502       1.038  11.558  14.836  1.00148.93    -0.171 OA
ENDROOT
BRANCH  10  12
HETATM   12  C18 MIQ B 502       1.722  14.351  15.385  1.00139.82     0.187 C 
HETATM   13  C19 MIQ B 502       1.719  14.119  13.869  1.00140.06     0.247 C 
HETATM   14  O25 MIQ B 502       0.739  14.351  13.254  1.00143.95    -0.271 OA
HETATM   15  N20 MIQ B 502       2.888  13.628  13.169  1.00140.02    -0.296 N 
HETATM   16  H13 MIQ B 502       2.870  13.474  12.180  1.00142.77     0.171 HD
HETATM   17  C21 MIQ B 502       4.067  13.342  13.944  1.00142.22     0.224 C 
HETATM   18  C22 MIQ B 502       3.849  12.823  15.352  1.00139.52     0.106 C 
HETATM   19  O24 MIQ B 502       5.151  13.510  13.504  1.00146.13    -0.273 OA
HETATM   20  C23 MIQ B 502       2.998  13.857  16.066  1.00139.15     0.045 C 
ENDBRANCH  10  12
BRANCH   5  21
HETATM   21  N6  MIQ B 502      -4.538  12.101  18.973  1.00140.95    -0.377 N 
HETATM   22  C7  MIQ B 502      -4.688  13.202  19.909  1.00142.12     0.149 C 
HETATM   23  C8  MIQ B 502      -5.529  12.811  21.117  1.00144.10     0.187 C 
HETATM   24  O9  MIQ B 502      -6.714  12.161  20.766  1.00148.65    -0.388 OA
HETATM   25  C10 MIQ B 502      -6.926  11.737  19.452  1.00147.44     0.187 C 
HETATM   26  C11 MIQ B 502      -5.719  11.338  18.610  1.00144.08     0.149 C 
ENDBRANCH   5  21
TORSDOF 2
ENDMDL
MODEL 9
REMARK VINA RESULT:      -6.6      2.610      8.446
REMARK  2 active torsions:
REMARK  status: ('A' for Active; 'I' for Inactive)
REMARK    1  A    between atoms: C5_5  and  N6_21 
REMARK    2  A    between atoms: C18_14  and  N17_19 
ROOT
HETATM    1  O1  MIQ B 502      -0.332  11.269  15.491  1.00142.91    -0.171 OA
HETATM    2  C2  MIQ B 502       0.095  12.460  16.082  1.00141.17     0.195 A 
HETATM    3  C3  MIQ B 502      -0.233  12.939  17.533  1.00141.71     0.035 A 
HETATM    4  C4  MIQ B 502      -1.017  12.354  18.646  1.00142.86     0.046 A 
HETATM    5  C5  MIQ B 502      -1.135  13.044  19.879  1.00139.53     0.031 A 
HETATM    6  C12 MIQ B 502      -0.481  14.333  20.051  1.00139.38     0.030 A 
HETATM    7  C13 MIQ B 502       0.271  14.894  18.984  1.00141.18     0.019 A 
HETATM    8  C14 MIQ B 502       0.394  14.164  17.693  1.00138.77     0.033 A 
HETATM    9  C15 MIQ B 502       1.115  14.447  16.334  1.00142.10     0.195 A 
HETATM   10  N17 MIQ B 502       0.851  13.409  15.558  1.00139.42    -0.288 N 
HETATM   11  O16 MIQ B 502       1.878  15.570  16.011  1.00148.93    -0.171 OA
ENDROOT
BRANCH  10  12
HETATM   12  C18 MIQ B 502       1.352  13.334  14.198  1.00139.82     0.187 C 
HETATM   13  C19 MIQ B 502       2.860  13.610  14.239  1.00140.06     0.247 C 
HETATM   14  O25 MIQ B 502       3.537  13.004  14.991  1.00143.95    -0.271 OA
HETATM   15  N20 MIQ B 502       3.480  14.593  13.374  1.00140.02    -0.296 N 
HETATM   16  H13 MIQ B 502       4.464  14.769  13.415  1.00142.77     0.171 HD
HETATM   17  C21 MIQ B 502       2.631  15.328  12.471  1.00142.22     0.224 C 
HETATM   18  C22 MIQ B 502       1.227  15.634  12.954  1.00139.52     0.106 C 
HETATM   19  O24 MIQ B 502       3.012  15.669  11.406  1.00146.13    -0.273 OA
HETATM   20  C23 MIQ B 502       0.587  14.301  13.296  1.00139.15     0.045 C 
ENDBRANCH  10  12
BRANCH   5  21
HETATM   21  N6  MIQ B 502      -1.918  12.466  20.956  1.00140.95    -0.377 N 
HETATM   22  C7  MIQ B 502      -1.754  13.000  22.298  1.00142.12     0.149 C 
HETATM   23  C8  MIQ B 502      -2.085  11.965  23.366  1.00144.10     0.187 C 
HETATM   24  O9  MIQ B 502      -3.293  11.307  23.129  1.00148.65    -0.388 OA
HETATM   25  C10 MIQ B 502      -3.955  11.459  21.908  1.00147.44     0.187 C 
HETATM   26  C11 MIQ B 502      -3.124  11.715  20.654  1.00144.08     0.149 C 
ENDBRANCH   5  21
TORSDOF 2
ENDMDL
