MODEL 1
REMARK VINA RESULT:      -6.4      0.000      0.000
REMARK  2 active torsions:
REMARK  status: ('A' for Active; 'I' for Inactive)
REMARK    1  A    between atoms: C5_5  and  N6_21 
REMARK    2  A    between atoms: C18_14  and  N17_19 
ROOT
HETATM    1  O1  MIQ B 502      17.781  -8.272  12.332  1.00142.91    -0.171 OA
HETATM    2  C2  MIQ B 502      17.363  -7.711  13.541  1.00141.17     0.195 A 
HETATM    3  C3  MIQ B 502      18.229  -6.832  14.499  1.00141.71     0.035 A 
HETATM    4  C4  MIQ B 502      19.630  -6.350  14.451  1.00142.86     0.046 A 
HETATM    5  C5  MIQ B 502      20.147  -5.545  15.498  1.00139.53     0.031 A 
HETATM    6  C12 MIQ B 502      19.295  -5.190  16.624  1.00139.38     0.030 A 
HETATM    7  C13 MIQ B 502      17.952  -5.651  16.669  1.00141.18     0.019 A 
HETATM    8  C14 MIQ B 502      17.414  -6.494  15.567  1.00138.77     0.033 A 
HETATM    9  C15 MIQ B 502      16.034  -7.166  15.270  1.00142.10     0.195 A 
HETATM   10  N17 MIQ B 502      16.175  -7.795  14.114  1.00139.42    -0.288 N 
HETATM   11  O16 MIQ B 502      14.889  -7.112  16.067  1.00148.93    -0.171 OA
ENDROOT
BRANCH  10  12
HETATM   12  C18 MIQ B 502      15.085  -8.552  13.527  1.00139.82     0.187 C 
HETATM   13  C19 MIQ B 502      15.604  -9.965  13.230  1.00140.06     0.247 C 
HETATM   14  O25 MIQ B 502      16.150 -10.569  14.084  1.00143.95    -0.271 OA
HETATM   15  N20 MIQ B 502      15.438 -10.582  11.930  1.00140.02    -0.296 N 
HETATM   16  H13 MIQ B 502      15.787 -11.502  11.747  1.00142.77     0.171 HD
HETATM   17  C21 MIQ B 502      14.778  -9.821  10.901  1.00142.22     0.224 C 
HETATM   18  C22 MIQ B 502      14.994  -8.320  10.920  1.00139.52     0.106 C 
HETATM   19  O24 MIQ B 502      14.097 -10.342  10.087  1.00146.13    -0.273 OA
HETATM   20  C23 MIQ B 502      14.548  -7.837  12.288  1.00139.15     0.045 C 
ENDBRANCH  10  12
BRANCH   5  21
HETATM   21  N6  MIQ B 502      21.525  -5.093  15.446  1.00140.95    -0.377 N 
HETATM   22  C7  MIQ B 502      22.351  -5.509  14.325  1.00142.12     0.149 C 
HETATM   23  C8  MIQ B 502      23.830  -5.537  14.688  1.00144.10     0.187 C 
HETATM   24  O9  MIQ B 502      24.251  -4.378  15.342  1.00148.65    -0.388 OA
HETATM   25  C10 MIQ B 502      23.318  -3.440  15.792  1.00147.44     0.187 C 
HETATM   26  C11 MIQ B 502      21.936  -3.930  16.213  1.00144.08     0.149 C 
ENDBRANCH   5  21
TORSDOF 2
ENDMDL
MODEL 2
REMARK VINA RESULT:      -5.9      2.489      7.821
REMARK  2 active torsions:
REMARK  status: ('A' for Active; 'I' for Inactive)
REMARK    1  A    between atoms: C5_5  and  N6_21 
REMARK    2  A    between atoms: C18_14  and  N17_19 
ROOT
HETATM    1  O1  MIQ B 502      19.413  -8.236  15.939  1.00142.91    -0.171 OA
HETATM    2  C2  MIQ B 502      18.210  -7.530  15.870  1.00141.17     0.195 A 
HETATM    3  C3  MIQ B 502      17.030  -7.812  14.886  1.00141.71     0.035 A 
HETATM    4  C4  MIQ B 502      16.813  -8.815  13.817  1.00142.86     0.046 A 
HETATM    5  C5  MIQ B 502      15.604  -8.823  13.076  1.00139.53     0.031 A 
HETATM    6  C12 MIQ B 502      14.571  -7.839  13.368  1.00139.38     0.030 A 
HETATM    7  C13 MIQ B 502      14.779  -6.878  14.394  1.00141.18     0.019 A 
HETATM    8  C14 MIQ B 502      16.048  -6.877  15.171  1.00138.77     0.033 A 
HETATM    9  C15 MIQ B 502      16.622  -6.009  16.338  1.00142.10     0.195 A 
HETATM   10  N17 MIQ B 502      17.820  -6.503  16.605  1.00139.42    -0.288 N 
HETATM   11  O16 MIQ B 502      15.994  -4.931  16.965  1.00148.93    -0.171 OA
ENDROOT
BRANCH  10  12
HETATM   12  C18 MIQ B 502      18.663  -5.928  17.637  1.00139.82     0.187 C 
HETATM   13  C19 MIQ B 502      20.020  -5.599  17.003  1.00140.06     0.247 C 
HETATM   14  O25 MIQ B 502      20.052  -4.968  16.006  1.00143.95    -0.271 OA
HETATM   15  N20 MIQ B 502      21.267  -6.035  17.597  1.00140.02    -0.296 N 
HETATM   16  H13 MIQ B 502      22.146  -5.820  17.170  1.00142.77     0.171 HD
HETATM   17  C21 MIQ B 502      21.201  -6.812  18.808  1.00142.22     0.224 C 
HETATM   18  C22 MIQ B 502      20.013  -7.743  18.957  1.00139.52     0.106 C 
HETATM   19  O24 MIQ B 502      22.031  -6.724  19.645  1.00146.13    -0.273 OA
HETATM   20  C23 MIQ B 502      18.771  -6.880  18.827  1.00139.15     0.045 C 
ENDBRANCH  10  12
BRANCH   5  21
HETATM   21  N6  MIQ B 502      15.411  -9.801  12.021  1.00140.95    -0.377 N 
HETATM   22  C7  MIQ B 502      15.384 -11.209  12.377  1.00142.12     0.149 C 
HETATM   23  C8  MIQ B 502      15.819 -12.097  11.218  1.00144.10     0.187 C 
HETATM   24  O9  MIQ B 502      15.186 -11.773  10.017  1.00148.65    -0.388 OA
HETATM   25  C10 MIQ B 502      14.429 -10.603   9.909  1.00147.44     0.187 C 
HETATM   26  C11 MIQ B 502      14.826  -9.397  10.755  1.00144.08     0.149 C 
ENDBRANCH   5  21
TORSDOF 2
ENDMDL
MODEL 3
REMARK VINA RESULT:      -5.9      1.370      1.387
REMARK  2 active torsions:
REMARK  status: ('A' for Active; 'I' for Inactive)
REMARK    1  A    between atoms: C5_5  and  N6_21 
REMARK    2  A    between atoms: C18_14  and  N17_19 
ROOT
HETATM    1  O1  MIQ B 502      17.579  -9.382  13.054  1.00142.91    -0.171 OA
HETATM    2  C2  MIQ B 502      17.042  -8.351  13.829  1.00141.17     0.195 A 
HETATM    3  C3  MIQ B 502      17.834  -7.420  14.802  1.00141.71     0.035 A 
HETATM    4  C4  MIQ B 502      19.263  -7.325  15.184  1.00142.86     0.046 A 
HETATM    5  C5  MIQ B 502      19.692  -6.349  16.118  1.00139.53     0.031 A 
HETATM    6  C12 MIQ B 502      18.723  -5.434  16.703  1.00139.38     0.030 A 
HETATM    7  C13 MIQ B 502      17.353  -5.523  16.336  1.00141.18     0.019 A 
HETATM    8  C14 MIQ B 502      16.909  -6.549  15.353  1.00138.77     0.033 A 
HETATM    9  C15 MIQ B 502      15.535  -6.942  14.719  1.00142.10     0.195 A 
HETATM   10  N17 MIQ B 502      15.785  -7.950  13.900  1.00139.42    -0.288 N 
HETATM   11  O16 MIQ B 502      14.297  -6.347  14.971  1.00148.93    -0.171 OA
ENDROOT
BRANCH  10  12
HETATM   12  C18 MIQ B 502      14.727  -8.590  13.141  1.00139.82     0.187 C 
HETATM   13  C19 MIQ B 502      14.797 -10.096  13.418  1.00140.06     0.247 C 
HETATM   14  O25 MIQ B 502      14.829 -10.476  14.534  1.00143.95    -0.271 OA
HETATM   15  N20 MIQ B 502      14.820 -11.070  12.345  1.00140.02    -0.296 N 
HETATM   16  H13 MIQ B 502      14.873 -12.050  12.539  1.00142.77     0.171 HD
HETATM   17  C21 MIQ B 502      14.790 -10.581  10.990  1.00142.22     0.224 C 
HETATM   18  C22 MIQ B 502      15.488  -9.261  10.727  1.00139.52     0.106 C 
HETATM   19  O24 MIQ B 502      14.244 -11.180  10.130  1.00146.13    -0.273 OA
HETATM   20  C23 MIQ B 502      14.853  -8.244  11.658  1.00139.15     0.045 C 
ENDBRANCH  10  12
BRANCH   5  21
HETATM   21  N6  MIQ B 502      21.092  -6.277  16.494  1.00140.95    -0.377 N 
HETATM   22  C7  MIQ B 502      22.013  -7.252  15.935  1.00142.12     0.149 C 
HETATM   23  C8  MIQ B 502      23.214  -7.485  16.842  1.00144.10     0.187 C 
HETATM   24  O9  MIQ B 502      23.799  -6.298  17.285  1.00148.65    -0.388 OA
HETATM   25  C10 MIQ B 502      23.161  -5.073  17.075  1.00147.44     0.187 C 
HETATM   26  C11 MIQ B 502      21.637  -5.042  17.032  1.00144.08     0.149 C 
ENDBRANCH   5  21
TORSDOF 2
ENDMDL
MODEL 4
REMARK VINA RESULT:      -5.8      2.302      8.061
REMARK  2 active torsions:
REMARK  status: ('A' for Active; 'I' for Inactive)
REMARK    1  A    between atoms: C5_5  and  N6_21 
REMARK    2  A    between atoms: C18_14  and  N17_19 
ROOT
HETATM    1  O1  MIQ B 502      21.459  -5.550  14.502  1.00142.91    -0.171 OA
HETATM    2  C2  MIQ B 502      20.696  -5.743  15.656  1.00141.17     0.195 A 
HETATM    3  C3  MIQ B 502      19.163  -6.040  15.708  1.00141.71     0.035 A 
HETATM    4  C4  MIQ B 502      18.120  -6.201  14.667  1.00142.86     0.046 A 
HETATM    5  C5  MIQ B 502      16.778  -6.475  15.034  1.00139.53     0.031 A 
HETATM    6  C12 MIQ B 502      16.424  -6.598  16.441  1.00139.38     0.030 A 
HETATM    7  C13 MIQ B 502      17.424  -6.444  17.439  1.00141.18     0.019 A 
HETATM    8  C14 MIQ B 502      18.831  -6.160  17.048  1.00138.77     0.033 A 
HETATM    9  C15 MIQ B 502      20.166  -5.937  17.831  1.00142.10     0.195 A 
HETATM   10  N17 MIQ B 502      21.096  -5.722  16.915  1.00139.42    -0.288 N 
HETATM   11  O16 MIQ B 502      20.335  -5.958  19.217  1.00148.93    -0.171 OA
ENDROOT
BRANCH  10  12
HETATM   12  C18 MIQ B 502      22.475  -5.458  17.283  1.00139.82     0.187 C 
HETATM   13  C19 MIQ B 502      22.888  -4.135  16.627  1.00140.06     0.247 C 
HETATM   14  O25 MIQ B 502      22.205  -3.184  16.768  1.00143.95    -0.271 OA
HETATM   15  N20 MIQ B 502      24.100  -4.018  15.842  1.00140.02    -0.296 N 
HETATM   16  H13 MIQ B 502      24.355  -3.150  15.413  1.00142.77     0.171 HD
HETATM   17  C21 MIQ B 502      24.912  -5.196  15.675  1.00142.22     0.224 C 
HETATM   18  C22 MIQ B 502      24.182  -6.523  15.607  1.00139.52     0.106 C 
HETATM   19  O24 MIQ B 502      26.090  -5.128  15.601  1.00146.13    -0.273 OA
HETATM   20  C23 MIQ B 502      23.366  -6.632  16.882  1.00139.15     0.045 C 
ENDBRANCH  10  12
BRANCH   5  21
HETATM   21  N6  MIQ B 502      15.764  -6.616  14.005  1.00140.95    -0.377 N 
HETATM   22  C7  MIQ B 502      15.566  -7.922  13.400  1.00142.12     0.149 C 
HETATM   23  C8  MIQ B 502      15.005  -7.815  11.987  1.00144.10     0.187 C 
HETATM   24  O9  MIQ B 502      13.917  -6.944  11.899  1.00148.65    -0.388 OA
HETATM   25  C10 MIQ B 502      13.583  -6.117  12.974  1.00147.44     0.187 C 
HETATM   26  C11 MIQ B 502      14.698  -5.636  13.898  1.00144.08     0.149 C 
ENDBRANCH   5  21
TORSDOF 2
ENDMDL
MODEL 5
REMARK VINA RESULT:      -5.8      3.037      4.014
REMARK  2 active torsions:
REMARK  status: ('A' for Active; 'I' for Inactive)
REMARK    1  A    between atoms: C5_5  and  N6_21 
REMARK    2  A    between atoms: C18_14  and  N17_19 
ROOT
HETATM    1  O1  MIQ B 502      18.704  -8.206  12.315  1.00142.91    -0.171 OA
HETATM    2  C2  MIQ B 502      17.599  -8.693  13.017  1.00141.17     0.195 A 
HETATM    3  C3  MIQ B 502      17.369  -8.591  14.559  1.00141.71     0.035 A 
HETATM    4  C4  MIQ B 502      18.156  -8.007  15.671  1.00142.86     0.046 A 
HETATM    5  C5  MIQ B 502      17.672  -8.071  17.002  1.00139.53     0.031 A 
HETATM    6  C12 MIQ B 502      16.395  -8.712  17.277  1.00139.38     0.030 A 
HETATM    7  C13 MIQ B 502      15.639  -9.271  16.211  1.00141.18     0.019 A 
HETATM    8  C14 MIQ B 502      16.151  -9.200  14.815  1.00138.77     0.033 A 
HETATM    9  C15 MIQ B 502      15.622  -9.681  13.425  1.00142.10     0.195 A 
HETATM   10  N17 MIQ B 502      16.538  -9.321  12.541  1.00139.42    -0.288 N 
HETATM   11  O16 MIQ B 502      14.426 -10.356  13.173  1.00148.93    -0.171 OA
ENDROOT
BRANCH  10  12
HETATM   12  C18 MIQ B 502      16.388  -9.621  11.129  1.00139.82     0.187 C 
HETATM   13  C19 MIQ B 502      15.029  -9.074  10.676  1.00140.06     0.247 C 
HETATM   14  O25 MIQ B 502      14.748  -7.955  10.920  1.00143.95    -0.271 OA
HETATM   15  N20 MIQ B 502      14.079  -9.893   9.951  1.00140.02    -0.296 N 
HETATM   16  H13 MIQ B 502      13.193  -9.526   9.666  1.00142.77     0.171 HD
HETATM   17  C21 MIQ B 502      14.440 -11.259   9.674  1.00142.22     0.224 C 
HETATM   18  C22 MIQ B 502      15.292 -11.963  10.713  1.00139.52     0.106 C 
HETATM   19  O24 MIQ B 502      14.093 -11.802   8.683  1.00146.13    -0.273 OA
HETATM   20  C23 MIQ B 502      16.544 -11.122  10.886  1.00139.15     0.045 C 
ENDBRANCH  10  12
BRANCH   5  21
HETATM   21  N6  MIQ B 502      18.461  -7.508  18.083  1.00140.95    -0.377 N 
HETATM   22  C7  MIQ B 502      19.065  -6.200  17.894  1.00142.12     0.149 C 
HETATM   23  C8  MIQ B 502      20.315  -6.023  18.746  1.00144.10     0.187 C 
HETATM   24  O9  MIQ B 502      20.126  -6.406  20.075  1.00148.65    -0.388 OA
HETATM   25  C10 MIQ B 502      18.968  -7.090  20.457  1.00147.44     0.187 C 
HETATM   26  C11 MIQ B 502      18.290  -8.000  19.439  1.00144.08     0.149 C 
ENDBRANCH   5  21
TORSDOF 2
ENDMDL
MODEL 6
REMARK VINA RESULT:      -5.6     16.087     18.498
REMARK  2 active torsions:
REMARK  status: ('A' for Active; 'I' for Inactive)
REMARK    1  A    between atoms: C5_5  and  N6_21 
REMARK    2  A    between atoms: C18_14  and  N17_19 
ROOT
HETATM    1  O1  MIQ B 502      23.684   8.730  22.632  1.00142.91    -0.171 OA
HETATM    2  C2  MIQ B 502      22.504   8.073  22.274  1.00141.17     0.195 A 
HETATM    3  C3  MIQ B 502      21.935   7.924  20.827  1.00141.71     0.035 A 
HETATM    4  C4  MIQ B 502      22.404   8.376  19.496  1.00142.86     0.046 A 
HETATM    5  C5  MIQ B 502      21.651   8.079  18.332  1.00139.53     0.031 A 
HETATM    6  C12 MIQ B 502      20.410   7.326  18.446  1.00139.38     0.030 A 
HETATM    7  C13 MIQ B 502      19.960   6.892  19.723  1.00141.18     0.019 A 
HETATM    8  C14 MIQ B 502      20.756   7.205  20.941  1.00138.77     0.033 A 
HETATM    9  C15 MIQ B 502      20.594   6.904  22.467  1.00142.10     0.195 A 
HETATM   10  N17 MIQ B 502      21.643   7.450  23.060  1.00139.42    -0.288 N 
HETATM   11  O16 MIQ B 502      19.550   6.205  23.074  1.00148.93    -0.171 OA
ENDROOT
BRANCH  10  12
HETATM   12  C18 MIQ B 502      21.820   7.383  24.498  1.00139.82     0.187 C 
HETATM   13  C19 MIQ B 502      21.941   8.819  25.023  1.00140.06     0.247 C 
HETATM   14  O25 MIQ B 502      21.126   9.614  24.717  1.00143.95    -0.271 OA
HETATM   15  N20 MIQ B 502      23.027   9.226  25.891  1.00140.02    -0.296 N 
HETATM   16  H13 MIQ B 502      23.099  10.168  26.221  1.00142.77     0.171 HD
HETATM   17  C21 MIQ B 502      24.016   8.239  26.242  1.00142.22     0.224 C 
HETATM   18  C22 MIQ B 502      24.338   7.193  25.192  1.00139.52     0.106 C 
HETATM   19  O24 MIQ B 502      24.544   8.243  27.299  1.00146.13    -0.273 OA
HETATM   20  C23 MIQ B 502      23.026   6.512  24.845  1.00139.15     0.045 C 
ENDBRANCH  10  12
BRANCH   5  21
HETATM   21  N6  MIQ B 502      22.114   8.541  17.036  1.00140.95    -0.377 N 
HETATM   22  C7  MIQ B 502      23.539   8.505  16.755  1.00142.12     0.149 C 
HETATM   23  C8  MIQ B 502      23.942   9.550  15.723  1.00144.10     0.187 C 
HETATM   24  O9  MIQ B 502      23.112   9.552  14.600  1.00148.65    -0.388 OA
HETATM   25  C10 MIQ B 502      21.925   8.816  14.596  1.00147.44     0.187 C 
HETATM   26  C11 MIQ B 502      21.191   8.608  15.917  1.00144.08     0.149 C 
ENDBRANCH   5  21
TORSDOF 2
ENDMDL
MODEL 7
REMARK VINA RESULT:      -5.6      3.789      5.556
REMARK  2 active torsions:
REMARK  status: ('A' for Active; 'I' for Inactive)
REMARK    1  A    between atoms: C5_5  and  N6_21 
REMARK    2  A    between atoms: C18_14  and  N17_19 
ROOT
HETATM    1  O1  MIQ B 502      15.662  -8.298  15.276  1.00142.91    -0.171 OA
HETATM    2  C2  MIQ B 502      16.940  -7.769  15.469  1.00141.17     0.195 A 
HETATM    3  C3  MIQ B 502      17.731  -7.735  16.815  1.00141.71     0.035 A 
HETATM    4  C4  MIQ B 502      17.427  -8.204  18.188  1.00142.86     0.046 A 
HETATM    5  C5  MIQ B 502      18.372  -8.030  19.230  1.00139.53     0.031 A 
HETATM    6  C12 MIQ B 502      19.647  -7.387  18.950  1.00139.38     0.030 A 
HETATM    7  C13 MIQ B 502      19.940  -6.938  17.634  1.00141.18     0.019 A 
HETATM    8  C14 MIQ B 502      18.945  -7.126  16.542  1.00138.77     0.033 A 
HETATM    9  C15 MIQ B 502      18.907  -6.780  15.018  1.00142.10     0.195 A 
HETATM   10  N17 MIQ B 502      17.735  -7.203  14.576  1.00139.42    -0.288 N 
HETATM   11  O16 MIQ B 502      19.910  -6.149  14.279  1.00148.93    -0.171 OA
ENDROOT
BRANCH  10  12
HETATM   12  C18 MIQ B 502      17.341  -7.033  13.190  1.00139.82     0.187 C 
HETATM   13  C19 MIQ B 502      15.978  -6.329  13.174  1.00140.06     0.247 C 
HETATM   14  O25 MIQ B 502      15.834  -5.338  13.798  1.00143.95    -0.271 OA
HETATM   15  N20 MIQ B 502      14.862  -6.845  12.408  1.00140.02    -0.296 N 
HETATM   16  H13 MIQ B 502      13.975  -6.380  12.412  1.00142.77     0.171 HD
HETATM   17  C21 MIQ B 502      15.059  -8.061  11.664  1.00142.22     0.224 C 
HETATM   18  C22 MIQ B 502      16.001  -9.085  12.268  1.00139.52     0.106 C 
HETATM   19  O24 MIQ B 502      14.516  -8.248  10.630  1.00146.13    -0.273 OA
HETATM   20  C23 MIQ B 502      17.330  -8.381  12.471  1.00139.15     0.045 C 
ENDBRANCH  10  12
BRANCH   5  21
HETATM   21  N6  MIQ B 502      18.055  -8.481  20.573  1.00140.95    -0.377 N 
HETATM   22  C7  MIQ B 502      18.488  -7.670  21.698  1.00142.12     0.149 C 
HETATM   23  C8  MIQ B 502      18.681  -8.504  22.959  1.00144.10     0.187 C 
HETATM   24  O9  MIQ B 502      17.607  -9.357  23.216  1.00148.65    -0.388 OA
HETATM   25  C10 MIQ B 502      16.608  -9.546  22.258  1.00147.44     0.187 C 
HETATM   26  C11 MIQ B 502      16.982  -9.437  20.783  1.00144.08     0.149 C 
ENDBRANCH   5  21
TORSDOF 2
ENDMDL
MODEL 8
REMARK VINA RESULT:      -5.5     16.809     17.826
REMARK  2 active torsions:
REMARK  status: ('A' for Active; 'I' for Inactive)
REMARK    1  A    between atoms: C5_5  and  N6_21 
REMARK    2  A    between atoms: C18_14  and  N17_19 
ROOT
HETATM    1  O1  MIQ B 502      19.927   9.370  17.937  1.00142.91    -0.171 OA
HETATM    2  C2  MIQ B 502      21.301   9.163  17.800  1.00141.17     0.195 A 
HETATM    3  C3  MIQ B 502      22.278   8.683  18.920  1.00141.71     0.035 A 
HETATM    4  C4  MIQ B 502      22.095   8.322  20.346  1.00142.86     0.046 A 
HETATM    5  C5  MIQ B 502      23.203   7.911  21.129  1.00139.53     0.031 A 
HETATM    6  C12 MIQ B 502      24.527   7.842  20.528  1.00139.38     0.030 A 
HETATM    7  C13 MIQ B 502      24.703   8.187  19.161  1.00141.18     0.019 A 
HETATM    8  C14 MIQ B 502      23.536   8.616  18.343  1.00138.77     0.033 A 
HETATM    9  C15 MIQ B 502      23.338   9.056  16.856  1.00142.10     0.195 A 
HETATM   10  N17 MIQ B 502      22.049   9.320  16.721  1.00139.42    -0.288 N 
HETATM   11  O16 MIQ B 502      24.326   9.152  15.874  1.00148.93    -0.171 OA
ENDROOT
BRANCH  10  12
HETATM   12  C18 MIQ B 502      21.497   9.778  15.460  1.00139.82     0.187 C 
HETATM   13  C19 MIQ B 502      20.819  11.131  15.709  1.00140.06     0.247 C 
HETATM   14  O25 MIQ B 502      21.418  11.983  16.262  1.00143.95    -0.271 OA
HETATM   15  N20 MIQ B 502      19.461  11.395  15.279  1.00140.02    -0.296 N 
HETATM   16  H13 MIQ B 502      19.027  12.280  15.454  1.00142.77     0.171 HD
HETATM   17  C21 MIQ B 502      18.746  10.336  14.615  1.00142.22     0.224 C 
HETATM   18  C22 MIQ B 502      19.055   8.920  15.062  1.00139.52     0.106 C 
HETATM   19  O24 MIQ B 502      17.961  10.561  13.761  1.00146.13    -0.273 OA
HETATM   20  C23 MIQ B 502      20.550   8.728  14.881  1.00139.15     0.045 C 
ENDBRANCH  10  12
BRANCH   5  21
HETATM   21  N6  MIQ B 502      23.012   7.574  22.528  1.00140.95    -0.377 N 
HETATM   22  C7  MIQ B 502      24.142   7.698  23.433  1.00142.12     0.149 C 
HETATM   23  C8  MIQ B 502      24.022   6.756  24.625  1.00144.10     0.187 C 
HETATM   24  O9  MIQ B 502      22.764   6.804  25.230  1.00148.65    -0.388 OA
HETATM   25  C10 MIQ B 502      21.709   7.483  24.616  1.00147.44     0.187 C 
HETATM   26  C11 MIQ B 502      21.674   7.554  23.093  1.00144.08     0.149 C 
ENDBRANCH   5  21
TORSDOF 2
ENDMDL
MODEL 9
REMARK VINA RESULT:      -5.5      2.584      2.939
REMARK  2 active torsions:
REMARK  status: ('A' for Active; 'I' for Inactive)
REMARK    1  A    between atoms: C5_5  and  N6_21 
REMARK    2  A    between atoms: C18_14  and  N17_19 
ROOT
HETATM    1  O1  MIQ B 502      18.035  -6.627  14.168  1.00142.91    -0.171 OA
HETATM    2  C2  MIQ B 502      17.776  -7.154  15.436  1.00141.17     0.195 A 
HETATM    3  C3  MIQ B 502      18.755  -7.150  16.653  1.00141.71     0.035 A 
HETATM    4  C4  MIQ B 502      20.132  -6.640  16.851  1.00142.86     0.046 A 
HETATM    5  C5  MIQ B 502      20.777  -6.786  18.106  1.00139.53     0.031 A 
HETATM    6  C12 MIQ B 502      20.081  -7.441  19.204  1.00139.38     0.030 A 
HETATM    7  C13 MIQ B 502      18.760  -7.929  19.015  1.00141.18     0.019 A 
HETATM    8  C14 MIQ B 502      18.087  -7.770  17.696  1.00138.77     0.033 A 
HETATM    9  C15 MIQ B 502      16.686  -8.161  17.124  1.00142.10     0.195 A 
HETATM   10  N17 MIQ B 502      16.677  -7.747  15.867  1.00139.42    -0.288 N 
HETATM   11  O16 MIQ B 502      15.658  -8.816  17.804  1.00148.93    -0.171 OA
ENDROOT
BRANCH  10  12
HETATM   12  C18 MIQ B 502      15.525  -7.957  15.009  1.00139.82     0.187 C 
HETATM   13  C19 MIQ B 502      16.010  -8.675  13.743  1.00140.06     0.247 C 
HETATM   14  O25 MIQ B 502      16.664  -9.651  13.849  1.00143.95    -0.271 OA
HETATM   15  N20 MIQ B 502      15.683  -8.191  12.418  1.00140.02    -0.296 N 
HETATM   16  H13 MIQ B 502      16.011  -8.665  11.600  1.00142.77     0.171 HD
HETATM   17  C21 MIQ B 502      14.892  -6.992  12.314  1.00142.22     0.224 C 
HETATM   18  C22 MIQ B 502      15.100  -5.944  13.390  1.00139.52     0.106 C 
HETATM   19  O24 MIQ B 502      14.116  -6.837  11.436  1.00146.13    -0.273 OA
HETATM   20  C23 MIQ B 502      14.830  -6.628  14.717  1.00139.15     0.045 C 
ENDBRANCH  10  12
BRANCH   5  21
HETATM   21  N6  MIQ B 502      22.132  -6.295  18.282  1.00140.95    -0.377 N 
HETATM   22  C7  MIQ B 502      23.036  -7.043  19.137  1.00142.12     0.149 C 
HETATM   23  C8  MIQ B 502      24.117  -6.154  19.738  1.00144.10     0.187 C 
HETATM   24  O9  MIQ B 502      24.733  -5.333  18.792  1.00148.65    -0.388 OA
HETATM   25  C10 MIQ B 502      24.206  -5.220  17.503  1.00147.44     0.187 C 
HETATM   26  C11 MIQ B 502      22.701  -5.373  17.314  1.00144.08     0.149 C 
ENDBRANCH   5  21
TORSDOF 2
ENDMDL
