MODEL 1
REMARK VINA RESULT:      -7.1      0.000      0.000
REMARK  2 active torsions:
REMARK  status: ('A' for Active; 'I' for Inactive)
REMARK    1  A    between atoms: C5_5  and  N6_21 
REMARK    2  A    between atoms: C18_14  and  N17_19 
ROOT
HETATM    1  O1  MIQ B 502       0.215  12.696 -15.640  1.00142.91    -0.171 OA
HETATM    2  C2  MIQ B 502       0.614  11.529 -16.296  1.00141.17     0.195 A 
HETATM    3  C3  MIQ B 502       1.860  10.655 -15.947  1.00141.71     0.035 A 
HETATM    4  C4  MIQ B 502       2.920  10.758 -14.916  1.00142.86     0.046 A 
HETATM    5  C5  MIQ B 502       3.948   9.784 -14.845  1.00139.53     0.031 A 
HETATM    6  C12 MIQ B 502       3.962   8.678 -15.791  1.00139.38     0.030 A 
HETATM    7  C13 MIQ B 502       2.945   8.579 -16.779  1.00141.18     0.019 A 
HETATM    8  C14 MIQ B 502       1.867   9.602 -16.847  1.00138.77     0.033 A 
HETATM    9  C15 MIQ B 502       0.617   9.823 -17.759  1.00142.10     0.195 A 
HETATM   10  N17 MIQ B 502       0.034  10.927 -17.320  1.00139.42    -0.288 N 
HETATM   11  O16 MIQ B 502       0.205   9.018 -18.823  1.00148.93    -0.171 OA
ENDROOT
BRANCH  10  12
HETATM   12  C18 MIQ B 502      -1.164  11.452 -17.948  1.00139.82     0.187 C 
HETATM   13  C19 MIQ B 502      -0.874  12.898 -18.371  1.00140.06     0.247 C 
HETATM   14  O25 MIQ B 502       0.093  13.129 -19.005  1.00143.95    -0.271 OA
HETATM   15  N20 MIQ B 502      -1.760  13.989 -18.019  1.00140.02    -0.296 N 
HETATM   16  H13 MIQ B 502      -1.556  14.929 -18.295  1.00142.77     0.171 HD
HETATM   17  C21 MIQ B 502      -2.929  13.682 -17.235  1.00142.22     0.224 C 
HETATM   18  C22 MIQ B 502      -2.797  12.559 -16.226  1.00139.52     0.106 C 
HETATM   19  O24 MIQ B 502      -3.941  14.275 -17.378  1.00146.13    -0.273 OA
HETATM   20  C23 MIQ B 502      -2.357  11.331 -17.002  1.00139.15     0.045 C 
ENDBRANCH  10  12
BRANCH   5  21
HETATM   21  N6  MIQ B 502       4.988   9.905 -13.840  1.00140.95    -0.377 N 
HETATM   22  C7  MIQ B 502       6.351   9.556 -14.204  1.00142.12     0.149 C 
HETATM   23  C8  MIQ B 502       7.165   9.109 -12.997  1.00144.10     0.187 C 
HETATM   24  O9  MIQ B 502       7.042   9.974 -11.907  1.00148.65    -0.388 OA
HETATM   25  C10 MIQ B 502       6.078  10.985 -11.913  1.00147.44     0.187 C 
HETATM   26  C11 MIQ B 502       4.780  10.752 -12.678  1.00144.08     0.149 C 
ENDBRANCH   5  21
TORSDOF 2
ENDMDL
MODEL 2
REMARK VINA RESULT:      -6.6     15.859     19.464
REMARK  2 active torsions:
REMARK  status: ('A' for Active; 'I' for Inactive)
REMARK    1  A    between atoms: C5_5  and  N6_21 
REMARK    2  A    between atoms: C18_14  and  N17_19 
ROOT
HETATM    1  O1  MIQ B 502      13.392  25.203 -11.082  1.00142.91    -0.171 OA
HETATM    2  C2  MIQ B 502      12.289  25.194 -10.226  1.00141.17     0.195 A 
HETATM    3  C3  MIQ B 502      10.808  24.909 -10.633  1.00141.71     0.035 A 
HETATM    4  C4  MIQ B 502      10.150  24.586 -11.921  1.00142.86     0.046 A 
HETATM    5  C5  MIQ B 502       8.749  24.373 -11.977  1.00139.53     0.031 A 
HETATM    6  C12 MIQ B 502       7.954  24.473 -10.761  1.00139.38     0.030 A 
HETATM    7  C13 MIQ B 502       8.585  24.782  -9.526  1.00141.18     0.019 A 
HETATM    8  C14 MIQ B 502      10.057  25.001  -9.473  1.00138.77     0.033 A 
HETATM    9  C15 MIQ B 502      11.077  25.345  -8.339  1.00142.10     0.195 A 
HETATM   10  N17 MIQ B 502      12.262  25.412  -8.922  1.00139.42    -0.288 N 
HETATM   11  O16 MIQ B 502      10.789  25.542  -6.988  1.00148.93    -0.171 OA
ENDROOT
BRANCH  10  12
HETATM   12  C18 MIQ B 502      13.460  25.731  -8.168  1.00139.82     0.187 C 
HETATM   13  C19 MIQ B 502      14.131  26.935  -8.842  1.00140.06     0.247 C 
HETATM   14  O25 MIQ B 502      13.488  27.896  -9.075  1.00143.95    -0.271 OA
HETATM   15  N20 MIQ B 502      15.535  26.927  -9.197  1.00140.02    -0.296 N 
HETATM   16  H13 MIQ B 502      15.959  27.717  -9.642  1.00142.77     0.171 HD
HETATM   17  C21 MIQ B 502      16.296  25.738  -8.912  1.00142.22     0.224 C 
HETATM   18  C22 MIQ B 502      15.560  24.416  -9.017  1.00139.52     0.106 C 
HETATM   19  O24 MIQ B 502      17.436  25.793  -8.606  1.00146.13    -0.273 OA
HETATM   20  C23 MIQ B 502      14.372  24.508  -8.077  1.00139.15     0.045 C 
ENDBRANCH  10  12
BRANCH   5  21
HETATM   21  N6  MIQ B 502       8.115  24.072 -13.248  1.00140.95    -0.377 N 
HETATM   22  C7  MIQ B 502       7.229  22.924 -13.327  1.00142.12     0.149 C 
HETATM   23  C8  MIQ B 502       7.162  22.353 -14.737  1.00144.10     0.187 C 
HETATM   24  O9  MIQ B 502       6.959  23.333 -15.711  1.00148.65    -0.388 OA
HETATM   25  C10 MIQ B 502       7.053  24.688 -15.383  1.00147.44     0.187 C 
HETATM   26  C11 MIQ B 502       8.003  25.103 -14.265  1.00144.08     0.149 C 
ENDBRANCH   5  21
TORSDOF 2
ENDMDL
MODEL 3
REMARK VINA RESULT:      -6.6     14.954     18.212
REMARK  2 active torsions:
REMARK  status: ('A' for Active; 'I' for Inactive)
REMARK    1  A    between atoms: C5_5  and  N6_21 
REMARK    2  A    between atoms: C18_14  and  N17_19 
ROOT
HETATM    1  O1  MIQ B 502       8.222  24.169  -8.143  1.00142.91    -0.171 OA
HETATM    2  C2  MIQ B 502       9.148  24.778  -8.994  1.00141.17     0.195 A 
HETATM    3  C3  MIQ B 502       9.060  24.851 -10.552  1.00141.71     0.035 A 
HETATM    4  C4  MIQ B 502       8.074  24.356 -11.541  1.00142.86     0.046 A 
HETATM    5  C5  MIQ B 502       8.272  24.583 -12.926  1.00139.53     0.031 A 
HETATM    6  C12 MIQ B 502       9.452  25.307 -13.378  1.00139.38     0.030 A 
HETATM    7  C13 MIQ B 502      10.397  25.783 -12.430  1.00141.18     0.019 A 
HETATM    8  C14 MIQ B 502      10.182  25.543 -10.977  1.00138.77     0.033 A 
HETATM    9  C15 MIQ B 502      10.971  25.903  -9.675  1.00142.10     0.195 A 
HETATM   10  N17 MIQ B 502      10.263  25.411  -8.672  1.00139.42    -0.288 N 
HETATM   11  O16 MIQ B 502      12.177  26.600  -9.595  1.00148.93    -0.171 OA
ENDROOT
BRANCH  10  12
HETATM   12  C18 MIQ B 502      10.705  25.544  -7.296  1.00139.82     0.187 C 
HETATM   13  C19 MIQ B 502      11.160  24.161  -6.815  1.00140.06     0.247 C 
HETATM   14  O25 MIQ B 502      11.928  23.548  -7.467  1.00143.95    -0.271 OA
HETATM   15  N20 MIQ B 502      10.676  23.586  -5.576  1.00140.02    -0.296 N 
HETATM   16  H13 MIQ B 502      10.975  22.679  -5.277  1.00142.77     0.171 HD
HETATM   17  C21 MIQ B 502       9.730  24.349  -4.803  1.00142.22     0.224 C 
HETATM   18  C22 MIQ B 502       8.756  25.214  -5.579  1.00139.52     0.106 C 
HETATM   19  O24 MIQ B 502       9.719  24.305  -3.622  1.00146.13    -0.273 OA
HETATM   20  C23 MIQ B 502       9.594  26.145  -6.436  1.00139.15     0.045 C 
ENDBRANCH  10  12
BRANCH   5  21
HETATM   21  N6  MIQ B 502       7.306  24.080 -13.885  1.00140.95    -0.377 N 
HETATM   22  C7  MIQ B 502       7.249  24.692 -15.201  1.00142.12     0.149 C 
HETATM   23  C8  MIQ B 502       5.869  24.558 -15.832  1.00144.10     0.187 C 
HETATM   24  O9  MIQ B 502       5.361  23.260 -15.756  1.00148.65    -0.388 OA
HETATM   25  C10 MIQ B 502       5.995  22.297 -14.966  1.00147.44     0.187 C 
HETATM   26  C11 MIQ B 502       6.739  22.753 -13.716  1.00144.08     0.149 C 
ENDBRANCH   5  21
TORSDOF 2
ENDMDL
MODEL 4
REMARK VINA RESULT:      -6.6     24.571     26.425
REMARK  2 active torsions:
REMARK  status: ('A' for Active; 'I' for Inactive)
REMARK    1  A    between atoms: C5_5  and  N6_21 
REMARK    2  A    between atoms: C18_14  and  N17_19 
ROOT
HETATM    1  O1  MIQ B 502      24.881   5.981  -4.010  1.00142.91    -0.171 OA
HETATM    2  C2  MIQ B 502      24.572   6.835  -5.071  1.00141.17     0.195 A 
HETATM    3  C3  MIQ B 502      24.637   8.395  -5.048  1.00141.71     0.035 A 
HETATM    4  C4  MIQ B 502      25.009   9.384  -4.009  1.00142.86     0.046 A 
HETATM    5  C5  MIQ B 502      24.969  10.772  -4.294  1.00139.53     0.031 A 
HETATM    6  C12 MIQ B 502      24.561  11.228  -5.615  1.00139.38     0.030 A 
HETATM    7  C13 MIQ B 502      24.206  10.280  -6.612  1.00141.18     0.019 A 
HETATM    8  C14 MIQ B 502      24.252   8.823  -6.308  1.00138.77     0.033 A 
HETATM    9  C15 MIQ B 502      23.947   7.521  -7.118  1.00142.10     0.195 A 
HETATM   10  N17 MIQ B 502      24.176   6.514  -6.291  1.00139.42    -0.288 N 
HETATM   11  O16 MIQ B 502      23.518   7.443  -8.444  1.00148.93    -0.171 OA
ENDROOT
BRANCH  10  12
HETATM   12  C18 MIQ B 502      23.980   5.137  -6.702  1.00139.82     0.187 C 
HETATM   13  C19 MIQ B 502      23.102   4.454  -5.646  1.00140.06     0.247 C 
HETATM   14  O25 MIQ B 502      22.089   4.965  -5.321  1.00143.95    -0.271 OA
HETATM   15  N20 MIQ B 502      23.478   3.194  -5.039  1.00140.02    -0.296 N 
HETATM   16  H13 MIQ B 502      22.899   2.762  -4.346  1.00142.77     0.171 HD
HETATM   17  C21 MIQ B 502      24.723   2.595  -5.445  1.00142.22     0.224 C 
HETATM   18  C22 MIQ B 502      25.852   3.543  -5.800  1.00139.52     0.106 C 
HETATM   19  O24 MIQ B 502      24.854   1.422  -5.503  1.00146.13    -0.273 OA
HETATM   20  C23 MIQ B 502      25.327   4.444  -6.903  1.00139.15     0.045 C 
ENDBRANCH  10  12
BRANCH   5  21
HETATM   21  N6  MIQ B 502      25.321  11.731  -3.262  1.00140.95    -0.377 N 
HETATM   22  C7  MIQ B 502      26.620  12.379  -3.330  1.00142.12     0.149 C 
HETATM   23  C8  MIQ B 502      27.113  12.811  -1.955  1.00144.10     0.187 C 
HETATM   24  O9  MIQ B 502      26.142  13.495  -1.220  1.00148.65    -0.388 OA
HETATM   25  C10 MIQ B 502      24.817  13.534  -1.661  1.00147.44     0.187 C 
HETATM   26  C11 MIQ B 502      24.280  12.352  -2.463  1.00144.08     0.149 C 
ENDBRANCH   5  21
TORSDOF 2
ENDMDL
MODEL 5
REMARK VINA RESULT:      -6.4     24.375     26.467
REMARK  2 active torsions:
REMARK  status: ('A' for Active; 'I' for Inactive)
REMARK    1  A    between atoms: C5_5  and  N6_21 
REMARK    2  A    between atoms: C18_14  and  N17_19 
ROOT
HETATM    1  O1  MIQ B 502      23.271   8.465  -7.833  1.00142.91    -0.171 OA
HETATM    2  C2  MIQ B 502      24.069   8.019  -6.777  1.00141.17     0.195 A 
HETATM    3  C3  MIQ B 502      25.072   8.884  -5.950  1.00141.71     0.035 A 
HETATM    4  C4  MIQ B 502      25.469  10.311  -5.999  1.00142.86     0.046 A 
HETATM    5  C5  MIQ B 502      26.432  10.819  -5.090  1.00139.53     0.031 A 
HETATM    6  C12 MIQ B 502      27.033   9.933  -4.104  1.00139.38     0.030 A 
HETATM    7  C13 MIQ B 502      26.653   8.565  -4.056  1.00141.18     0.019 A 
HETATM    8  C14 MIQ B 502      25.640   8.037  -5.011  1.00138.77     0.033 A 
HETATM    9  C15 MIQ B 502      24.984   6.639  -5.256  1.00142.10     0.195 A 
HETATM   10  N17 MIQ B 502      24.141   6.803  -6.262  1.00139.42    -0.288 N 
HETATM   11  O16 MIQ B 502      25.242   5.460  -4.555  1.00148.93    -0.171 OA
ENDROOT
BRANCH  10  12
HETATM   12  C18 MIQ B 502      23.356   5.698  -6.781  1.00139.82     0.187 C 
HETATM   13  C19 MIQ B 502      22.568   5.095  -5.611  1.00140.06     0.247 C 
HETATM   14  O25 MIQ B 502      21.926   5.805  -4.922  1.00143.95    -0.271 OA
HETATM   15  N20 MIQ B 502      22.584   3.674  -5.331  1.00140.02    -0.296 N 
HETATM   16  H13 MIQ B 502      22.071   3.294  -4.561  1.00142.77     0.171 HD
HETATM   17  C21 MIQ B 502      23.383   2.828  -6.180  1.00142.22     0.224 C 
HETATM   18  C22 MIQ B 502      24.663   3.429  -6.730  1.00139.52     0.106 C 
HETATM   19  O24 MIQ B 502      23.053   1.723  -6.439  1.00146.13    -0.273 OA
HETATM   20  C23 MIQ B 502      24.261   4.686  -7.481  1.00139.15     0.045 C 
ENDBRANCH  10  12
BRANCH   5  21
HETATM   21  N6  MIQ B 502      26.821  12.216  -5.159  1.00140.95    -0.377 N 
HETATM   22  C7  MIQ B 502      27.472  12.813  -4.006  1.00142.12     0.149 C 
HETATM   23  C8  MIQ B 502      27.242  14.317  -3.939  1.00144.10     0.187 C 
HETATM   24  O9  MIQ B 502      27.479  14.958  -5.157  1.00148.65    -0.388 OA
HETATM   25  C10 MIQ B 502      27.672  14.213  -6.323  1.00147.44     0.187 C 
HETATM   26  C11 MIQ B 502      26.972  12.864  -6.450  1.00144.08     0.149 C 
ENDBRANCH   5  21
TORSDOF 2
ENDMDL
MODEL 6
REMARK VINA RESULT:      -6.4      3.119      4.934
REMARK  2 active torsions:
REMARK  status: ('A' for Active; 'I' for Inactive)
REMARK    1  A    between atoms: C5_5  and  N6_21 
REMARK    2  A    between atoms: C18_14  and  N17_19 
ROOT
HETATM    1  O1  MIQ B 502       0.322  15.903 -16.016  1.00142.91    -0.171 OA
HETATM    2  C2  MIQ B 502      -0.643  14.977 -16.417  1.00141.17     0.195 A 
HETATM    3  C3  MIQ B 502      -0.451  13.430 -16.519  1.00141.71     0.035 A 
HETATM    4  C4  MIQ B 502       0.691  12.525 -16.250  1.00142.86     0.046 A 
HETATM    5  C5  MIQ B 502       0.558  11.126 -16.438  1.00139.53     0.031 A 
HETATM    6  C12 MIQ B 502      -0.710  10.577 -16.897  1.00139.38     0.030 A 
HETATM    7  C13 MIQ B 502      -1.806  11.444 -17.153  1.00141.18     0.019 A 
HETATM    8  C14 MIQ B 502      -1.661  12.912 -16.952  1.00138.77     0.033 A 
HETATM    9  C15 MIQ B 502      -2.609  14.143 -17.119  1.00142.10     0.195 A 
HETATM   10  N17 MIQ B 502      -1.894  15.204 -16.782  1.00139.42    -0.288 N 
HETATM   11  O16 MIQ B 502      -3.939  14.123 -17.543  1.00148.93    -0.171 OA
ENDROOT
BRANCH  10  12
HETATM   12  C18 MIQ B 502      -2.453  16.542 -16.832  1.00139.82     0.187 C 
HETATM   13  C19 MIQ B 502      -1.485  17.423 -17.631  1.00140.06     0.247 C 
HETATM   14  O25 MIQ B 502      -1.116  17.060 -18.691  1.00143.95    -0.271 OA
HETATM   15  N20 MIQ B 502      -1.013  18.695 -17.123  1.00140.02    -0.296 N 
HETATM   16  H13 MIQ B 502      -0.376  19.258 -17.651  1.00142.77     0.171 HD
HETATM   17  C21 MIQ B 502      -1.469  19.112 -15.822  1.00142.22     0.224 C 
HETATM   18  C22 MIQ B 502      -1.709  18.017 -14.800  1.00139.52     0.106 C 
HETATM   19  O24 MIQ B 502      -1.651  20.252 -15.567  1.00146.13    -0.273 OA
HETATM   20  C23 MIQ B 502      -2.714  17.063 -15.420  1.00139.15     0.045 C 
ENDBRANCH  10  12
BRANCH   5  21
HETATM   21  N6  MIQ B 502       1.690  10.254 -16.185  1.00140.95    -0.377 N 
HETATM   22  C7  MIQ B 502       2.376   9.660 -17.320  1.00142.12     0.149 C 
HETATM   23  C8  MIQ B 502       3.053   8.346 -16.951  1.00144.10     0.187 C 
HETATM   24  O9  MIQ B 502       3.805   8.433 -15.778  1.00148.65    -0.388 OA
HETATM   25  C10 MIQ B 502       3.710   9.561 -14.959  1.00147.44     0.187 C 
HETATM   26  C11 MIQ B 502       2.388  10.321 -14.914  1.00144.08     0.149 C 
ENDBRANCH   5  21
TORSDOF 2
ENDMDL
MODEL 7
REMARK VINA RESULT:      -6.3     15.659     19.108
REMARK  2 active torsions:
REMARK  status: ('A' for Active; 'I' for Inactive)
REMARK    1  A    between atoms: C5_5  and  N6_21 
REMARK    2  A    between atoms: C18_14  and  N17_19 
ROOT
HETATM    1  O1  MIQ B 502       9.201  25.622  -7.298  1.00142.91    -0.171 OA
HETATM    2  C2  MIQ B 502      10.229  25.267  -8.175  1.00141.17     0.195 A 
HETATM    3  C3  MIQ B 502      10.061  24.844  -9.669  1.00141.71     0.035 A 
HETATM    4  C4  MIQ B 502       8.886  24.697 -10.561  1.00142.86     0.046 A 
HETATM    5  C5  MIQ B 502       9.056  24.286 -11.907  1.00139.53     0.031 A 
HETATM    6  C12 MIQ B 502      10.391  24.008 -12.415  1.00139.38     0.030 A 
HETATM    7  C13 MIQ B 502      11.518  24.150 -11.561  1.00141.18     0.019 A 
HETATM    8  C14 MIQ B 502      11.334  24.584 -10.149  1.00138.77     0.033 A 
HETATM    9  C15 MIQ B 502      12.298  24.848  -8.947  1.00142.10     0.195 A 
HETATM   10  N17 MIQ B 502      11.528  25.219  -7.937  1.00139.42    -0.288 N 
HETATM   11  O16 MIQ B 502      13.688  24.715  -8.944  1.00148.93    -0.171 OA
ENDROOT
BRANCH  10  12
HETATM   12  C18 MIQ B 502      12.087  25.534  -6.635  1.00139.82     0.187 C 
HETATM   13  C19 MIQ B 502      11.290  24.753  -5.583  1.00140.06     0.247 C 
HETATM   14  O25 MIQ B 502      11.131  23.593  -5.725  1.00143.95    -0.271 OA
HETATM   15  N20 MIQ B 502      10.730  25.400  -4.414  1.00140.02    -0.296 N 
HETATM   16  H13 MIQ B 502      10.206  24.881  -3.737  1.00142.77     0.171 HD
HETATM   17  C21 MIQ B 502      10.928  26.819  -4.268  1.00142.22     0.224 C 
HETATM   18  C22 MIQ B 502      10.969  27.636  -5.545  1.00139.52     0.106 C 
HETATM   19  O24 MIQ B 502      11.059  27.319  -3.205  1.00146.13    -0.273 OA
HETATM   20  C23 MIQ B 502      12.073  27.044  -6.401  1.00139.15     0.045 C 
ENDBRANCH  10  12
BRANCH   5  21
HETATM   21  N6  MIQ B 502       7.895  24.131 -12.765  1.00140.95    -0.377 N 
HETATM   22  C7  MIQ B 502       7.585  25.189 -13.712  1.00142.12     0.149 C 
HETATM   23  C8  MIQ B 502       6.101  25.233 -14.050  1.00144.10     0.187 C 
HETATM   24  O9  MIQ B 502       5.578  23.977 -14.366  1.00148.65    -0.388 OA
HETATM   25  C10 MIQ B 502       6.331  22.821 -14.145  1.00147.44     0.187 C 
HETATM   26  C11 MIQ B 502       7.333  22.812 -12.995  1.00144.08     0.149 C 
ENDBRANCH   5  21
TORSDOF 2
ENDMDL
MODEL 8
REMARK VINA RESULT:      -6.1     15.739     19.334
REMARK  2 active torsions:
REMARK  status: ('A' for Active; 'I' for Inactive)
REMARK    1  A    between atoms: C5_5  and  N6_21 
REMARK    2  A    between atoms: C18_14  and  N17_19 
ROOT
HETATM    1  O1  MIQ B 502      13.113  24.435 -12.404  1.00142.91    -0.171 OA
HETATM    2  C2  MIQ B 502      12.282  24.796 -11.341  1.00141.17     0.195 A 
HETATM    3  C3  MIQ B 502      10.722  24.723 -11.324  1.00141.71     0.035 A 
HETATM    4  C4  MIQ B 502       9.711  24.291 -12.318  1.00142.86     0.046 A 
HETATM    5  C5  MIQ B 502       8.330  24.339 -12.003  1.00139.53     0.031 A 
HETATM    6  C12 MIQ B 502       7.903  24.815 -10.695  1.00139.38     0.030 A 
HETATM    7  C13 MIQ B 502       8.872  25.229  -9.741  1.00141.18     0.019 A 
HETATM    8  C14 MIQ B 502      10.321  25.173 -10.077  1.00138.77     0.033 A 
HETATM    9  C15 MIQ B 502      11.640  25.528  -9.315  1.00142.10     0.195 A 
HETATM   10  N17 MIQ B 502      12.628  25.259 -10.153  1.00139.42    -0.288 N 
HETATM   11  O16 MIQ B 502      11.747  26.028  -8.017  1.00148.93    -0.171 OA
ENDROOT
BRANCH  10  12
HETATM   12  C18 MIQ B 502      14.014  25.484  -9.785  1.00139.82     0.187 C 
HETATM   13  C19 MIQ B 502      14.242  24.850  -8.408  1.00140.06     0.247 C 
HETATM   14  O25 MIQ B 502      13.915  23.731  -8.228  1.00143.95    -0.271 OA
HETATM   15  N20 MIQ B 502      14.854  25.585  -7.320  1.00140.02    -0.296 N 
HETATM   16  H13 MIQ B 502      14.991  25.161  -6.424  1.00142.77     0.171 HD
HETATM   17  C21 MIQ B 502      15.235  26.953  -7.561  1.00142.22     0.224 C 
HETATM   18  C22 MIQ B 502      14.360  27.746  -8.512  1.00139.52     0.106 C 
HETATM   19  O24 MIQ B 502      16.186  27.429  -7.046  1.00146.13    -0.273 OA
HETATM   20  C23 MIQ B 502      14.338  26.977  -9.821  1.00139.15     0.045 C 
ENDBRANCH  10  12
BRANCH   5  21
HETATM   21  N6  MIQ B 502       7.350  23.927 -12.991  1.00140.95    -0.377 N 
HETATM   22  C7  MIQ B 502       6.920  24.892 -13.988  1.00142.12     0.149 C 
HETATM   23  C8  MIQ B 502       5.518  24.592 -14.503  1.00144.10     0.187 C 
HETATM   24  O9  MIQ B 502       5.345  23.252 -14.856  1.00148.65    -0.388 OA
HETATM   25  C10 MIQ B 502       6.314  22.301 -14.525  1.00147.44     0.187 C 
HETATM   26  C11 MIQ B 502       7.143  22.515 -13.263  1.00144.08     0.149 C 
ENDBRANCH   5  21
TORSDOF 2
ENDMDL
MODEL 9
REMARK VINA RESULT:      -6.1     24.396     26.672
REMARK  2 active torsions:
REMARK  status: ('A' for Active; 'I' for Inactive)
REMARK    1  A    between atoms: C5_5  and  N6_21 
REMARK    2  A    between atoms: C18_14  and  N17_19 
ROOT
HETATM    1  O1  MIQ B 502      26.148   5.977  -5.497  1.00142.91    -0.171 OA
HETATM    2  C2  MIQ B 502      24.978   6.722  -5.334  1.00141.17     0.195 A 
HETATM    3  C3  MIQ B 502      24.861   8.279  -5.394  1.00141.71     0.035 A 
HETATM    4  C4  MIQ B 502      25.841   9.366  -5.623  1.00142.86     0.046 A 
HETATM    5  C5  MIQ B 502      25.422  10.721  -5.621  1.00139.53     0.031 A 
HETATM    6  C12 MIQ B 502      24.021  11.044  -5.394  1.00139.38     0.030 A 
HETATM    7  C13 MIQ B 502      23.080  10.001  -5.176  1.00141.18     0.019 A 
HETATM    8  C14 MIQ B 502      23.526   8.581  -5.181  1.00138.77     0.033 A 
HETATM    9  C15 MIQ B 502      22.810   7.204  -4.988  1.00142.10     0.195 A 
HETATM   10  N17 MIQ B 502      23.753   6.283  -5.105  1.00139.42    -0.288 N 
HETATM   11  O16 MIQ B 502      21.452   6.995  -4.741  1.00148.93    -0.171 OA
ENDROOT
BRANCH  10  12
HETATM   12  C18 MIQ B 502      23.453   4.870  -4.966  1.00139.82     0.187 C 
HETATM   13  C19 MIQ B 502      24.449   4.277  -3.962  1.00140.06     0.247 C 
HETATM   14  O25 MIQ B 502      24.593   4.801  -2.915  1.00143.95    -0.271 OA
HETATM   15  N20 MIQ B 502      25.215   3.084  -4.261  1.00140.02    -0.296 N 
HETATM   16  H13 MIQ B 502      25.867   2.711  -3.599  1.00142.77     0.171 HD
HETATM   17  C21 MIQ B 502      25.029   2.468  -5.549  1.00142.22     0.224 C 
HETATM   18  C22 MIQ B 502      24.732   3.396  -6.711  1.00139.52     0.106 C 
HETATM   19  O24 MIQ B 502      25.100   1.297  -5.690  1.00146.13    -0.273 OA
HETATM   20  C23 MIQ B 502      23.491   4.182  -6.329  1.00139.15     0.045 C 
ENDBRANCH  10  12
BRANCH   5  21
HETATM   21  N6  MIQ B 502      26.396  11.777  -5.832  1.00140.95    -0.377 N 
HETATM   22  C7  MIQ B 502      26.345  12.532  -7.072  1.00142.12     0.149 C 
HETATM   23  C8  MIQ B 502      27.707  13.102  -7.447  1.00144.10     0.187 C 
HETATM   24  O9  MIQ B 502      28.338  13.746  -6.382  1.00148.65    -0.388 OA
HETATM   25  C10 MIQ B 502      27.828  13.637  -5.086  1.00147.44     0.187 C 
HETATM   26  C11 MIQ B 502      27.092  12.359  -4.697  1.00144.08     0.149 C 
ENDBRANCH   5  21
TORSDOF 2
ENDMDL
