MODEL 1
REMARK VINA RESULT:      -6.9      0.000      0.000
REMARK  2 active torsions:
REMARK  status: ('A' for Active; 'I' for Inactive)
REMARK    1  A    between atoms: C5_5  and  N6_21 
REMARK    2  A    between atoms: C18_14  and  N17_19 
ROOT
HETATM    1  O1  MIQ B 502     -16.903   0.145 -10.387  1.00142.91    -0.171 OA
HETATM    2  C2  MIQ B 502     -15.858   0.014 -11.304  1.00141.17     0.195 A 
HETATM    3  C3  MIQ B 502     -14.623   0.961 -11.436  1.00141.71     0.035 A 
HETATM    4  C4  MIQ B 502     -14.191   2.179 -10.710  1.00142.86     0.046 A 
HETATM    5  C5  MIQ B 502     -12.987   2.837 -11.067  1.00139.53     0.031 A 
HETATM    6  C12 MIQ B 502     -12.171   2.311 -12.153  1.00139.38     0.030 A 
HETATM    7  C13 MIQ B 502     -12.584   1.143 -12.848  1.00141.18     0.019 A 
HETATM    8  C14 MIQ B 502     -13.848   0.455 -12.467  1.00138.77     0.033 A 
HETATM    9  C15 MIQ B 502     -14.606  -0.813 -12.977  1.00142.10     0.195 A 
HETATM   10  N17 MIQ B 502     -15.692  -0.916 -12.229  1.00139.42    -0.288 N 
HETATM   11  O16 MIQ B 502     -14.214  -1.660 -14.015  1.00148.93    -0.171 OA
ENDROOT
BRANCH  10  12
HETATM   12  C18 MIQ B 502     -16.654  -1.983 -12.432  1.00139.82     0.187 C 
HETATM   13  C19 MIQ B 502     -18.035  -1.340 -12.606  1.00140.06     0.247 C 
HETATM   14  O25 MIQ B 502     -18.171  -0.470 -13.391  1.00143.95    -0.271 OA
HETATM   15  N20 MIQ B 502     -19.183  -1.776 -11.838  1.00140.02    -0.296 N 
HETATM   16  H13 MIQ B 502     -20.078  -1.344 -11.956  1.00142.77     0.171 HD
HETATM   17  C21 MIQ B 502     -18.990  -2.833 -10.879  1.00142.22     0.224 C 
HETATM   18  C22 MIQ B 502     -17.644  -2.884 -10.182  1.00139.52     0.106 C 
HETATM   19  O24 MIQ B 502     -19.839  -3.624 -10.652  1.00146.13    -0.273 OA
HETATM   20  C23 MIQ B 502     -16.596  -2.979 -11.275  1.00139.15     0.045 C 
ENDBRANCH  10  12
BRANCH   5  21
HETATM   21  N6  MIQ B 502     -12.583   4.037 -10.358  1.00140.95    -0.377 N 
HETATM   22  C7  MIQ B 502     -12.234   5.217 -11.131  1.00142.12     0.149 C 
HETATM   23  C8  MIQ B 502     -11.261   6.119 -10.383  1.00144.10     0.187 C 
HETATM   24  O9  MIQ B 502     -11.651   6.364  -9.065  1.00148.65    -0.388 OA
HETATM   25  C10 MIQ B 502     -12.698   5.639  -8.491  1.00147.44     0.187 C 
HETATM   26  C11 MIQ B 502     -12.939   4.208  -8.960  1.00144.08     0.149 C 
ENDBRANCH   5  21
TORSDOF 2
ENDMDL
MODEL 2
REMARK VINA RESULT:      -6.6      2.175      8.002
REMARK  2 active torsions:
REMARK  status: ('A' for Active; 'I' for Inactive)
REMARK    1  A    between atoms: C5_5  and  N6_21 
REMARK    2  A    between atoms: C18_14  and  N17_19 
ROOT
HETATM    1  O1  MIQ B 502     -16.357   1.894  -9.570  1.00142.91    -0.171 OA
HETATM    2  C2  MIQ B 502     -15.654   1.471 -10.699  1.00141.17     0.195 A 
HETATM    3  C3  MIQ B 502     -15.812   0.096 -11.423  1.00141.71     0.035 A 
HETATM    4  C4  MIQ B 502     -16.669  -1.089 -11.183  1.00142.86     0.046 A 
HETATM    5  C5  MIQ B 502     -16.586  -2.218 -12.036  1.00139.53     0.031 A 
HETATM    6  C12 MIQ B 502     -15.653  -2.212 -13.154  1.00139.38     0.030 A 
HETATM    7  C13 MIQ B 502     -14.832  -1.075 -13.385  1.00141.18     0.019 A 
HETATM    8  C14 MIQ B 502     -14.926   0.108 -12.488  1.00138.77     0.033 A 
HETATM    9  C15 MIQ B 502     -14.213   1.499 -12.425  1.00142.10     0.195 A 
HETATM   10  N17 MIQ B 502     -14.732   2.128 -11.383  1.00139.42    -0.288 N 
HETATM   11  O16 MIQ B 502     -13.229   1.974 -13.293  1.00148.93    -0.171 OA
ENDROOT
BRANCH  10  12
HETATM   12  C18 MIQ B 502     -14.292   3.458 -11.005  1.00139.82     0.187 C 
HETATM   13  C19 MIQ B 502     -14.464   4.371 -12.225  1.00140.06     0.247 C 
HETATM   14  O25 MIQ B 502     -15.501   4.394 -12.786  1.00143.95    -0.271 OA
HETATM   15  N20 MIQ B 502     -13.388   5.214 -12.706  1.00140.02    -0.296 N 
HETATM   16  H13 MIQ B 502     -13.511   5.801 -13.507  1.00142.77     0.171 HD
HETATM   17  C21 MIQ B 502     -12.128   5.162 -12.010  1.00142.22     0.224 C 
HETATM   18  C22 MIQ B 502     -11.732   3.823 -11.418  1.00139.52     0.106 C 
HETATM   19  O24 MIQ B 502     -11.441   6.117 -11.903  1.00146.13    -0.273 OA
HETATM   20  C23 MIQ B 502     -12.856   3.415 -10.484  1.00139.15     0.045 C 
ENDBRANCH  10  12
BRANCH   5  21
HETATM   21  N6  MIQ B 502     -17.421  -3.378 -11.781  1.00140.95    -0.377 N 
HETATM   22  C7  MIQ B 502     -17.671  -3.763 -10.403  1.00142.12     0.149 C 
HETATM   23  C8  MIQ B 502     -17.967  -5.252 -10.273  1.00144.10     0.187 C 
HETATM   24  O9  MIQ B 502     -18.911  -5.701 -11.199  1.00148.65    -0.388 OA
HETATM   25  C10 MIQ B 502     -19.319  -4.876 -12.251  1.00147.44     0.187 C 
HETATM   26  C11 MIQ B 502     -18.326  -3.861 -12.808  1.00144.08     0.149 C 
ENDBRANCH   5  21
TORSDOF 2
ENDMDL
MODEL 3
REMARK VINA RESULT:      -6.5     11.947     18.687
REMARK  2 active torsions:
REMARK  status: ('A' for Active; 'I' for Inactive)
REMARK    1  A    between atoms: C5_5  and  N6_21 
REMARK    2  A    between atoms: C18_14  and  N17_19 
ROOT
HETATM    1  O1  MIQ B 502      -3.549  14.779 -12.391  1.00142.91    -0.171 OA
HETATM    2  C2  MIQ B 502      -4.584  15.406 -11.693  1.00141.17     0.195 A 
HETATM    3  C3  MIQ B 502      -5.716  14.693 -10.887  1.00141.71     0.035 A 
HETATM    4  C4  MIQ B 502      -6.035  13.271 -10.619  1.00142.86     0.046 A 
HETATM    5  C5  MIQ B 502      -7.161  12.926  -9.828  1.00139.53     0.031 A 
HETATM    6  C12 MIQ B 502      -8.005  13.976  -9.277  1.00139.38     0.030 A 
HETATM    7  C13 MIQ B 502      -7.699  15.339  -9.533  1.00141.18     0.019 A 
HETATM    8  C14 MIQ B 502      -6.515  15.696 -10.362  1.00138.77     0.033 A 
HETATM    9  C15 MIQ B 502      -5.875  17.038 -10.844  1.00142.10     0.195 A 
HETATM   10  N17 MIQ B 502      -4.818  16.701 -11.564  1.00139.42    -0.288 N 
HETATM   11  O16 MIQ B 502      -6.332  18.328 -10.569  1.00148.93    -0.171 OA
ENDROOT
BRANCH  10  12
HETATM   12  C18 MIQ B 502      -3.978  17.703 -12.193  1.00139.82     0.187 C 
HETATM   13  C19 MIQ B 502      -4.000  17.450 -13.706  1.00140.06     0.247 C 
HETATM   14  O25 MIQ B 502      -5.037  17.336 -14.256  1.00143.95    -0.271 OA
HETATM   15  N20 MIQ B 502      -2.781  17.351 -14.481  1.00140.02    -0.296 N 
HETATM   16  H13 MIQ B 502      -2.808  17.179 -15.467  1.00142.77     0.171 HD
HETATM   17  C21 MIQ B 502      -1.526  17.483 -13.785  1.00142.22     0.224 C 
HETATM   18  C22 MIQ B 502      -1.476  16.952 -12.366  1.00139.52     0.106 C 
HETATM   19  O24 MIQ B 502      -0.587  17.986 -14.296  1.00146.13    -0.273 OA
HETATM   20  C23 MIQ B 502      -2.572  17.668 -11.598  1.00139.15     0.045 C 
ENDBRANCH  10  12
BRANCH   5  21
HETATM   21  N6  MIQ B 502      -7.470  11.529  -9.585  1.00140.95    -0.377 N 
HETATM   22  C7  MIQ B 502      -7.513  10.620 -10.718  1.00142.12     0.149 C 
HETATM   23  C8  MIQ B 502      -8.431   9.432 -10.460  1.00144.10     0.187 C 
HETATM   24  O9  MIQ B 502      -8.205   8.830  -9.220  1.00148.65    -0.388 OA
HETATM   25  C10 MIQ B 502      -7.380   9.445  -8.275  1.00147.44     0.187 C 
HETATM   26  C11 MIQ B 502      -7.301  10.968  -8.256  1.00144.08     0.149 C 
ENDBRANCH   5  21
TORSDOF 2
ENDMDL
MODEL 4
REMARK VINA RESULT:      -6.3      1.967      2.577
REMARK  2 active torsions:
REMARK  status: ('A' for Active; 'I' for Inactive)
REMARK    1  A    between atoms: C5_5  and  N6_21 
REMARK    2  A    between atoms: C18_14  and  N17_19 
ROOT
HETATM    1  O1  MIQ B 502     -16.988   1.803 -11.185  1.00142.91    -0.171 OA
HETATM    2  C2  MIQ B 502     -15.774   1.447 -11.778  1.00141.17     0.195 A 
HETATM    3  C3  MIQ B 502     -14.405   2.175 -11.585  1.00141.71     0.035 A 
HETATM    4  C4  MIQ B 502     -13.981   3.355 -10.794  1.00142.86     0.046 A 
HETATM    5  C5  MIQ B 502     -12.631   3.788 -10.820  1.00139.53     0.031 A 
HETATM    6  C12 MIQ B 502     -11.657   3.068 -11.629  1.00139.38     0.030 A 
HETATM    7  C13 MIQ B 502     -12.063   1.937 -12.386  1.00141.18     0.019 A 
HETATM    8  C14 MIQ B 502     -13.481   1.485 -12.353  1.00138.77     0.033 A 
HETATM    9  C15 MIQ B 502     -14.281   0.322 -13.026  1.00142.10     0.195 A 
HETATM   10  N17 MIQ B 502     -15.528   0.443 -12.602  1.00139.42    -0.288 N 
HETATM   11  O16 MIQ B 502     -13.776  -0.643 -13.898  1.00148.93    -0.171 OA
ENDROOT
BRANCH  10  12
HETATM   12  C18 MIQ B 502     -16.568  -0.469 -13.039  1.00139.82     0.187 C 
HETATM   13  C19 MIQ B 502     -16.089  -1.897 -12.754  1.00140.06     0.247 C 
HETATM   14  O25 MIQ B 502     -15.692  -2.167 -11.676  1.00143.95    -0.271 OA
HETATM   15  N20 MIQ B 502     -16.115  -2.929 -13.770  1.00140.02    -0.296 N 
HETATM   16  H13 MIQ B 502     -15.793  -3.856 -13.573  1.00142.77     0.171 HD
HETATM   17  C21 MIQ B 502     -16.594  -2.573 -15.081  1.00142.22     0.224 C 
HETATM   18  C22 MIQ B 502     -16.305  -1.161 -15.551  1.00139.52     0.106 C 
HETATM   19  O24 MIQ B 502     -17.188  -3.344 -15.752  1.00146.13    -0.273 OA
HETATM   20  C23 MIQ B 502     -16.901  -0.229 -14.511  1.00139.15     0.045 C 
ENDBRANCH  10  12
BRANCH   5  21
HETATM   21  N6  MIQ B 502     -12.233   4.953 -10.052  1.00140.95    -0.377 N 
HETATM   22  C7  MIQ B 502     -11.599   6.060 -10.748  1.00142.12     0.149 C 
HETATM   23  C8  MIQ B 502     -10.690   6.864  -9.828  1.00144.10     0.187 C 
HETATM   24  O9  MIQ B 502     -11.299   7.192  -8.614  1.00148.65    -0.388 OA
HETATM   25  C10 MIQ B 502     -12.518   6.613  -8.255  1.00147.44     0.187 C 
HETATM   26  C11 MIQ B 502     -12.833   5.207  -8.754  1.00144.08     0.149 C 
ENDBRANCH   5  21
TORSDOF 2
ENDMDL
MODEL 5
REMARK VINA RESULT:      -6.3      2.814      4.458
REMARK  2 active torsions:
REMARK  status: ('A' for Active; 'I' for Inactive)
REMARK    1  A    between atoms: C5_5  and  N6_21 
REMARK    2  A    between atoms: C18_14  and  N17_19 
ROOT
HETATM    1  O1  MIQ B 502     -13.793   0.399 -15.935  1.00142.91    -0.171 OA
HETATM    2  C2  MIQ B 502     -14.250  -0.017 -14.683  1.00141.17     0.195 A 
HETATM    3  C3  MIQ B 502     -14.078   0.754 -13.336  1.00141.71     0.035 A 
HETATM    4  C4  MIQ B 502     -13.445   2.044 -12.974  1.00142.86     0.046 A 
HETATM    5  C5  MIQ B 502     -13.449   2.492 -11.628  1.00139.53     0.031 A 
HETATM    6  C12 MIQ B 502     -14.080   1.680 -10.598  1.00139.38     0.030 A 
HETATM    7  C13 MIQ B 502     -14.688   0.443 -10.945  1.00141.18     0.019 A 
HETATM    8  C14 MIQ B 502     -14.683  -0.021 -12.360  1.00138.77     0.033 A 
HETATM    9  C15 MIQ B 502     -15.234  -1.280 -13.105  1.00142.10     0.195 A 
HETATM   10  N17 MIQ B 502     -14.913  -1.119 -14.379  1.00139.42    -0.288 N 
HETATM   11  O16 MIQ B 502     -15.922  -2.353 -12.537  1.00148.93    -0.171 OA
ENDROOT
BRANCH  10  12
HETATM   12  C18 MIQ B 502     -15.256  -2.115 -15.377  1.00139.82     0.187 C 
HETATM   13  C19 MIQ B 502     -13.984  -2.439 -16.170  1.00140.06     0.247 C 
HETATM   14  O25 MIQ B 502     -12.998  -2.721 -15.587  1.00143.95    -0.271 OA
HETATM   15  N20 MIQ B 502     -13.960  -2.414 -17.619  1.00140.02    -0.296 N 
HETATM   16  H13 MIQ B 502     -13.121  -2.621 -18.124  1.00142.77     0.171 HD
HETATM   17  C21 MIQ B 502     -15.173  -2.056 -18.307  1.00142.22     0.224 C 
HETATM   18  C22 MIQ B 502     -16.071  -1.043 -17.624  1.00139.52     0.106 C 
HETATM   19  O24 MIQ B 502     -15.454  -2.533 -19.351  1.00146.13    -0.273 OA
HETATM   20  C23 MIQ B 502     -16.401  -1.614 -16.256  1.00139.15     0.045 C 
ENDBRANCH  10  12
BRANCH   5  21
HETATM   21  N6  MIQ B 502     -12.812   3.751 -11.285  1.00140.95    -0.377 N 
HETATM   22  C7  MIQ B 502     -12.764   4.801 -12.288  1.00142.12     0.149 C 
HETATM   23  C8  MIQ B 502     -11.583   5.739 -12.073  1.00144.10     0.187 C 
HETATM   24  O9  MIQ B 502     -11.467   6.171 -10.750  1.00148.65    -0.388 OA
HETATM   25  C10 MIQ B 502     -12.237   5.583  -9.743  1.00147.44     0.187 C 
HETATM   26  C11 MIQ B 502     -12.636   4.119  -9.891  1.00144.08     0.149 C 
ENDBRANCH   5  21
TORSDOF 2
ENDMDL
MODEL 6
REMARK VINA RESULT:      -6.3      2.457      8.295
REMARK  2 active torsions:
REMARK  status: ('A' for Active; 'I' for Inactive)
REMARK    1  A    between atoms: C5_5  and  N6_21 
REMARK    2  A    between atoms: C18_14  and  N17_19 
ROOT
HETATM    1  O1  MIQ B 502     -14.435  -0.524 -11.267  1.00142.91    -0.171 OA
HETATM    2  C2  MIQ B 502     -15.264  -0.669 -12.382  1.00141.17     0.195 A 
HETATM    3  C3  MIQ B 502     -16.412  -1.715 -12.548  1.00141.71     0.035 A 
HETATM    4  C4  MIQ B 502     -16.952  -2.783 -11.673  1.00142.86     0.046 A 
HETATM    5  C5  MIQ B 502     -18.031  -3.591 -12.111  1.00139.53     0.031 A 
HETATM    6  C12 MIQ B 502     -18.611  -3.370 -13.428  1.00139.38     0.030 A 
HETATM    7  C13 MIQ B 502     -18.095  -2.345 -14.266  1.00141.18     0.019 A 
HETATM    8  C14 MIQ B 502     -16.964  -1.498 -13.800  1.00138.77     0.033 A 
HETATM    9  C15 MIQ B 502     -16.153  -0.311 -14.415  1.00142.10     0.195 A 
HETATM   10  N17 MIQ B 502     -15.257   0.030 -13.504  1.00139.42    -0.288 N 
HETATM   11  O16 MIQ B 502     -16.341   0.266 -15.672  1.00148.93    -0.171 OA
ENDROOT
BRANCH  10  12
HETATM   12  C18 MIQ B 502     -14.307   1.101 -13.740  1.00139.82     0.187 C 
HETATM   13  C19 MIQ B 502     -12.898   0.530 -13.539  1.00140.06     0.247 C 
HETATM   14  O25 MIQ B 502     -12.593  -0.461 -14.101  1.00143.95    -0.271 OA
HETATM   15  N20 MIQ B 502     -11.927   1.177 -12.680  1.00140.02    -0.296 N 
HETATM   16  H13 MIQ B 502     -11.013   0.790 -12.552  1.00142.77     0.171 HD
HETATM   17  C21 MIQ B 502     -12.326   2.380 -11.997  1.00142.22     0.224 C 
HETATM   18  C22 MIQ B 502     -13.779   2.471 -11.571  1.00139.52     0.106 C 
HETATM   19  O24 MIQ B 502     -11.559   3.253 -11.784  1.00146.13    -0.273 OA
HETATM   20  C23 MIQ B 502     -14.609   2.290 -12.829  1.00139.15     0.045 C 
ENDBRANCH  10  12
BRANCH   5  21
HETATM   21  N6  MIQ B 502     -18.539  -4.643 -11.250  1.00140.95    -0.377 N 
HETATM   22  C7  MIQ B 502     -19.244  -5.759 -11.858  1.00142.12     0.149 C 
HETATM   23  C8  MIQ B 502     -20.236  -6.398 -10.894  1.00144.10     0.187 C 
HETATM   24  O9  MIQ B 502     -19.684  -6.654  -9.638  1.00148.65    -0.388 OA
HETATM   25  C10 MIQ B 502     -18.431  -6.140  -9.297  1.00147.44     0.187 C 
HETATM   26  C11 MIQ B 502     -17.992  -4.817  -9.916  1.00144.08     0.149 C 
ENDBRANCH   5  21
TORSDOF 2
ENDMDL
MODEL 7
REMARK VINA RESULT:      -6.2      1.205      2.464
REMARK  2 active torsions:
REMARK  status: ('A' for Active; 'I' for Inactive)
REMARK    1  A    between atoms: C5_5  and  N6_21 
REMARK    2  A    between atoms: C18_14  and  N17_19 
ROOT
HETATM    1  O1  MIQ B 502     -13.823  -0.631 -12.751  1.00142.91    -0.171 OA
HETATM    2  C2  MIQ B 502     -14.874  -0.197 -11.940  1.00141.17     0.195 A 
HETATM    3  C3  MIQ B 502     -14.910   1.122 -11.103  1.00141.71     0.035 A 
HETATM    4  C4  MIQ B 502     -13.949   2.234 -10.912  1.00142.86     0.046 A 
HETATM    5  C5  MIQ B 502     -14.274   3.326 -10.068  1.00139.53     0.031 A 
HETATM    6  C12 MIQ B 502     -15.560   3.353  -9.386  1.00139.38     0.030 A 
HETATM    7  C13 MIQ B 502     -16.482   2.288  -9.570  1.00141.18     0.019 A 
HETATM    8  C14 MIQ B 502     -16.136   1.145 -10.459  1.00138.77     0.033 A 
HETATM    9  C15 MIQ B 502     -16.866  -0.166 -10.899  1.00142.10     0.195 A 
HETATM   10  N17 MIQ B 502     -16.034  -0.790 -11.716  1.00139.42    -0.288 N 
HETATM   11  O16 MIQ B 502     -18.136  -0.588 -10.503  1.00148.93    -0.171 OA
ENDROOT
BRANCH  10  12
HETATM   12  C18 MIQ B 502     -16.376  -2.067 -12.314  1.00139.82     0.187 C 
HETATM   13  C19 MIQ B 502     -17.745  -1.915 -12.990  1.00140.06     0.247 C 
HETATM   14  O25 MIQ B 502     -17.923  -1.018 -13.735  1.00143.95    -0.271 OA
HETATM   15  N20 MIQ B 502     -18.826  -2.848 -12.743  1.00140.02    -0.296 N 
HETATM   16  H13 MIQ B 502     -19.716  -2.734 -13.185  1.00142.77     0.171 HD
HETATM   17  C21 MIQ B 502     -18.587  -3.929 -11.822  1.00142.22     0.224 C 
HETATM   18  C22 MIQ B 502     -17.658  -3.640 -10.659  1.00139.52     0.106 C 
HETATM   19  O24 MIQ B 502     -19.087  -4.989 -11.970  1.00146.13    -0.273 OA
HETATM   20  C23 MIQ B 502     -16.345  -3.173 -11.261  1.00139.15     0.045 C 
ENDBRANCH  10  12
BRANCH   5  21
HETATM   21  N6  MIQ B 502     -13.317   4.401  -9.879  1.00140.95    -0.377 N 
HETATM   22  C7  MIQ B 502     -12.825   4.664  -8.538  1.00142.12     0.149 C 
HETATM   23  C8  MIQ B 502     -12.391   6.114  -8.366  1.00144.10     0.187 C 
HETATM   24  O9  MIQ B 502     -11.569   6.562  -9.402  1.00148.65    -0.388 OA
HETATM   25  C10 MIQ B 502     -11.399   5.790 -10.554  1.00147.44     0.187 C 
HETATM   26  C11 MIQ B 502     -12.546   4.892 -11.007  1.00144.08     0.149 C 
ENDBRANCH   5  21
TORSDOF 2
ENDMDL
MODEL 8
REMARK VINA RESULT:      -5.9     14.221     18.394
REMARK  2 active torsions:
REMARK  status: ('A' for Active; 'I' for Inactive)
REMARK    1  A    between atoms: C5_5  and  N6_21 
REMARK    2  A    between atoms: C18_14  and  N17_19 
ROOT
HETATM    1  O1  MIQ B 502      -4.689  13.557 -11.035  1.00142.91    -0.171 OA
HETATM    2  C2  MIQ B 502      -5.366  14.732 -11.370  1.00141.17     0.195 A 
HETATM    3  C3  MIQ B 502      -4.840  15.863 -12.309  1.00141.71     0.035 A 
HETATM    4  C4  MIQ B 502      -3.586  16.049 -13.078  1.00142.86     0.046 A 
HETATM    5  C5  MIQ B 502      -3.393  17.213 -13.864  1.00139.53     0.031 A 
HETATM    6  C12 MIQ B 502      -4.432  18.231 -13.915  1.00139.38     0.030 A 
HETATM    7  C13 MIQ B 502      -5.635  18.053 -13.179  1.00141.18     0.019 A 
HETATM    8  C14 MIQ B 502      -5.833  16.827 -12.358  1.00138.77     0.033 A 
HETATM    9  C15 MIQ B 502      -6.983  16.291 -11.444  1.00142.10     0.195 A 
HETATM   10  N17 MIQ B 502      -6.566  15.125 -10.980  1.00139.42    -0.288 N 
HETATM   11  O16 MIQ B 502      -8.200  16.921 -11.175  1.00148.93    -0.171 OA
ENDROOT
BRANCH  10  12
HETATM   12  C18 MIQ B 502      -7.380  14.336 -10.073  1.00139.82     0.187 C 
HETATM   13  C19 MIQ B 502      -6.556  14.082  -8.805  1.00140.06     0.247 C 
HETATM   14  O25 MIQ B 502      -6.045  14.994  -8.258  1.00143.95    -0.271 OA
HETATM   15  N20 MIQ B 502      -6.391  12.752  -8.255  1.00140.02    -0.296 N 
HETATM   16  H13 MIQ B 502      -5.845  12.599  -7.430  1.00142.77     0.171 HD
HETATM   17  C21 MIQ B 502      -7.015  11.654  -8.947  1.00142.22     0.224 C 
HETATM   18  C22 MIQ B 502      -7.101  11.761 -10.457  1.00139.52     0.106 C 
HETATM   19  O24 MIQ B 502      -7.443  10.720  -8.363  1.00146.13    -0.273 OA
HETATM   20  C23 MIQ B 502      -7.843  13.050 -10.757  1.00139.15     0.045 C 
ENDBRANCH  10  12
BRANCH   5  21
HETATM   21  N6  MIQ B 502      -2.154  17.388 -14.599  1.00140.95    -0.377 N 
HETATM   22  C7  MIQ B 502      -0.952  16.741 -14.101  1.00142.12     0.149 C 
HETATM   23  C8  MIQ B 502       0.310  17.480 -14.527  1.00144.10     0.187 C 
HETATM   24  O9  MIQ B 502       0.322  17.796 -15.887  1.00148.65    -0.388 OA
HETATM   25  C10 MIQ B 502      -0.829  17.634 -16.661  1.00147.44     0.187 C 
HETATM   26  C11 MIQ B 502      -2.189  17.802 -15.991  1.00144.08     0.149 C 
ENDBRANCH   5  21
TORSDOF 2
ENDMDL
MODEL 9
REMARK VINA RESULT:      -5.9     14.309     20.577
REMARK  2 active torsions:
REMARK  status: ('A' for Active; 'I' for Inactive)
REMARK    1  A    between atoms: C5_5  and  N6_21 
REMARK    2  A    between atoms: C18_14  and  N17_19 
ROOT
HETATM    1  O1  MIQ B 502      -1.243  14.873 -12.896  1.00142.91    -0.171 OA
HETATM    2  C2  MIQ B 502      -2.332  15.728 -13.082  1.00141.17     0.195 A 
HETATM    3  C3  MIQ B 502      -3.771  15.526 -12.508  1.00141.71     0.035 A 
HETATM    4  C4  MIQ B 502      -4.395  14.478 -11.666  1.00142.86     0.046 A 
HETATM    5  C5  MIQ B 502      -5.760  14.573 -11.297  1.00139.53     0.031 A 
HETATM    6  C12 MIQ B 502      -6.553  15.708 -11.749  1.00139.38     0.030 A 
HETATM    7  C13 MIQ B 502      -5.955  16.713 -12.555  1.00141.18     0.019 A 
HETATM    8  C14 MIQ B 502      -4.521  16.609 -12.937  1.00138.77     0.033 A 
HETATM    9  C15 MIQ B 502      -3.541  17.489 -13.781  1.00142.10     0.195 A 
HETATM   10  N17 MIQ B 502      -2.376  16.862 -13.759  1.00139.42    -0.288 N 
HETATM   11  O16 MIQ B 502      -3.842  18.689 -14.428  1.00148.93    -0.171 OA
ENDROOT
BRANCH  10  12
HETATM   12  C18 MIQ B 502      -1.220  17.388 -14.460  1.00139.82     0.187 C 
HETATM   13  C19 MIQ B 502      -0.996  18.828 -13.980  1.00140.06     0.247 C 
HETATM   14  O25 MIQ B 502      -0.946  19.047 -12.822  1.00143.95    -0.271 OA
HETATM   15  N20 MIQ B 502      -0.838  19.927 -14.909  1.00140.02    -0.296 N 
HETATM   16  H13 MIQ B 502      -0.700  20.863 -14.583  1.00142.77     0.171 HD
HETATM   17  C21 MIQ B 502      -0.914  19.636 -16.318  1.00142.22     0.224 C 
HETATM   18  C22 MIQ B 502      -1.855  18.522 -16.734  1.00139.52     0.106 C 
HETATM   19  O24 MIQ B 502      -0.269  20.233 -17.107  1.00146.13    -0.273 OA
HETATM   20  C23 MIQ B 502      -1.421  17.284 -15.971  1.00139.15     0.045 C 
ENDBRANCH  10  12
BRANCH   5  21
HETATM   21  N6  MIQ B 502      -6.362  13.532 -10.484  1.00140.95    -0.377 N 
HETATM   22  C7  MIQ B 502      -5.573  12.354 -10.169  1.00142.12     0.149 C 
HETATM   23  C8  MIQ B 502      -6.449  11.135  -9.910  1.00144.10     0.187 C 
HETATM   24  O9  MIQ B 502      -7.502  11.400  -9.033  1.00148.65    -0.388 OA
HETATM   25  C10 MIQ B 502      -7.800  12.713  -8.660  1.00147.44     0.187 C 
HETATM   26  C11 MIQ B 502      -7.512  13.836  -9.651  1.00144.08     0.149 C 
ENDBRANCH   5  21
TORSDOF 2
ENDMDL
