MODEL 1
REMARK VINA RESULT:      -7.0      0.000      0.000
REMARK  2 active torsions:
REMARK  status: ('A' for Active; 'I' for Inactive)
REMARK    1  A    between atoms: C5_5  and  N6_21 
REMARK    2  A    between atoms: C18_14  and  N17_19 
ROOT
HETATM    1  O1  MIQ B 502      22.352   0.466  11.774  1.00142.91    -0.171 OA
HETATM    2  C2  MIQ B 502      21.607   0.479  12.956  1.00141.17     0.195 A 
HETATM    3  C3  MIQ B 502      22.016   1.169  14.296  1.00141.71     0.035 A 
HETATM    4  C4  MIQ B 502      23.199   1.957  14.717  1.00142.86     0.046 A 
HETATM    5  C5  MIQ B 502      23.287   2.468  16.036  1.00139.53     0.031 A 
HETATM    6  C12 MIQ B 502      22.209   2.218  16.982  1.00139.38     0.030 A 
HETATM    7  C13 MIQ B 502      21.074   1.463  16.579  1.00141.18     0.019 A 
HETATM    8  C14 MIQ B 502      20.986   0.931  15.191  1.00138.77     0.033 A 
HETATM    9  C15 MIQ B 502      19.931   0.089  14.402  1.00142.10     0.195 A 
HETATM   10  N17 MIQ B 502      20.426  -0.070  13.186  1.00139.42    -0.288 N 
HETATM   11  O16 MIQ B 502      18.717  -0.397  14.889  1.00148.93    -0.171 OA
ENDROOT
BRANCH  10  12
HETATM   12  C18 MIQ B 502      19.715  -0.825  12.171  1.00139.82     0.187 C 
HETATM   13  C19 MIQ B 502      18.262  -0.335  12.156  1.00140.06     0.247 C 
HETATM   14  O25 MIQ B 502      18.046   0.822  12.076  1.00143.95    -0.271 OA
HETATM   15  N20 MIQ B 502      17.145  -1.254  12.230  1.00140.02    -0.296 N 
HETATM   16  H13 MIQ B 502      16.201  -0.920  12.226  1.00142.77     0.171 HD
HETATM   17  C21 MIQ B 502      17.435  -2.660  12.337  1.00142.22     0.224 C 
HETATM   18  C22 MIQ B 502      18.684  -3.042  13.109  1.00139.52     0.106 C 
HETATM   19  O24 MIQ B 502      16.736  -3.475  11.843  1.00146.13    -0.273 OA
HETATM   20  C23 MIQ B 502      19.841  -2.324  12.439  1.00139.15     0.045 C 
ENDBRANCH  10  12
BRANCH   5  21
HETATM   21  N6  MIQ B 502      24.458   3.226  16.439  1.00140.95    -0.377 N 
HETATM   22  C7  MIQ B 502      25.770   2.632  16.245  1.00142.12     0.149 C 
HETATM   23  C8  MIQ B 502      26.792   3.175  17.236  1.00144.10     0.187 C 
HETATM   24  O9  MIQ B 502      26.775   4.568  17.326  1.00148.65    -0.388 OA
HETATM   25  C10 MIQ B 502      25.750   5.303  16.726  1.00147.44     0.187 C 
HETATM   26  C11 MIQ B 502      24.369   4.666  16.604  1.00144.08     0.149 C 
ENDBRANCH   5  21
TORSDOF 2
ENDMDL
MODEL 2
REMARK VINA RESULT:      -6.5      1.584      1.742
REMARK  2 active torsions:
REMARK  status: ('A' for Active; 'I' for Inactive)
REMARK    1  A    between atoms: C5_5  and  N6_21 
REMARK    2  A    between atoms: C18_14  and  N17_19 
ROOT
HETATM    1  O1  MIQ B 502      20.679   3.187  12.183  1.00142.91    -0.171 OA
HETATM    2  C2  MIQ B 502      20.664   2.441  13.363  1.00141.17     0.195 A 
HETATM    3  C3  MIQ B 502      21.491   2.740  14.654  1.00141.71     0.035 A 
HETATM    4  C4  MIQ B 502      22.460   3.800  15.021  1.00142.86     0.046 A 
HETATM    5  C5  MIQ B 502      23.062   3.807  16.304  1.00139.53     0.031 A 
HETATM    6  C12 MIQ B 502      22.725   2.768  17.267  1.00139.38     0.030 A 
HETATM    7  C13 MIQ B 502      21.796   1.752  16.915  1.00141.18     0.019 A 
HETATM    8  C14 MIQ B 502      21.165   1.750  15.567  1.00138.77     0.033 A 
HETATM    9  C15 MIQ B 502      20.130   0.832  14.839  1.00142.10     0.195 A 
HETATM   10  N17 MIQ B 502      19.962   1.354  13.635  1.00139.42    -0.288 N 
HETATM   11  O16 MIQ B 502      19.513  -0.307  15.359  1.00148.93    -0.171 OA
ENDROOT
BRANCH  10  12
HETATM   12  C18 MIQ B 502      19.070   0.748  12.664  1.00139.82     0.187 C 
HETATM   13  C19 MIQ B 502      17.704   0.563  13.336  1.00140.06     0.247 C 
HETATM   14  O25 MIQ B 502      17.202   1.480  13.882  1.00143.95    -0.271 OA
HETATM   15  N20 MIQ B 502      17.008  -0.707  13.314  1.00140.02    -0.296 N 
HETATM   16  H13 MIQ B 502      16.119  -0.816  13.761  1.00142.77     0.171 HD
HETATM   17  C21 MIQ B 502      17.645  -1.814  12.650  1.00142.22     0.224 C 
HETATM   18  C22 MIQ B 502      19.159  -1.869  12.717  1.00139.52     0.106 C 
HETATM   19  O24 MIQ B 502      17.018  -2.636  12.077  1.00146.13    -0.273 OA
HETATM   20  C23 MIQ B 502      19.664  -0.559  12.140  1.00139.15     0.045 C 
ENDBRANCH  10  12
BRANCH   5  21
HETATM   21  N6  MIQ B 502      24.020   4.843  16.645  1.00140.95    -0.377 N 
HETATM   22  C7  MIQ B 502      25.293   4.870  15.946  1.00142.12     0.149 C 
HETATM   23  C8  MIQ B 502      26.388   5.519  16.782  1.00144.10     0.187 C 
HETATM   24  O9  MIQ B 502      25.993   6.732  17.347  1.00148.65    -0.388 OA
HETATM   25  C10 MIQ B 502      24.654   7.130  17.306  1.00147.44     0.187 C 
HETATM   26  C11 MIQ B 502      23.573   6.054  17.312  1.00144.08     0.149 C 
ENDBRANCH   5  21
TORSDOF 2
ENDMDL
MODEL 3
REMARK VINA RESULT:      -6.4      1.554      1.920
REMARK  2 active torsions:
REMARK  status: ('A' for Active; 'I' for Inactive)
REMARK    1  A    between atoms: C5_5  and  N6_21 
REMARK    2  A    between atoms: C18_14  and  N17_19 
ROOT
HETATM    1  O1  MIQ B 502      21.850   1.350  11.884  1.00142.91    -0.171 OA
HETATM    2  C2  MIQ B 502      20.989   1.237  12.978  1.00141.17     0.195 A 
HETATM    3  C3  MIQ B 502      21.050   2.081  14.291  1.00141.71     0.035 A 
HETATM    4  C4  MIQ B 502      21.941   3.167  14.764  1.00142.86     0.046 A 
HETATM    5  C5  MIQ B 502      21.740   3.754  16.039  1.00139.53     0.031 A 
HETATM    6  C12 MIQ B 502      20.652   3.288  16.886  1.00139.38     0.030 A 
HETATM    7  C13 MIQ B 502      19.797   2.248  16.433  1.00141.18     0.019 A 
HETATM    8  C14 MIQ B 502      20.011   1.636  15.093  1.00138.77     0.033 A 
HETATM    9  C15 MIQ B 502      19.300   0.511  14.272  1.00142.10     0.195 A 
HETATM   10  N17 MIQ B 502      19.962   0.418  13.130  1.00139.42    -0.288 N 
HETATM   11  O16 MIQ B 502      18.195  -0.242  14.670  1.00148.93    -0.171 OA
ENDROOT
BRANCH  10  12
HETATM   12  C18 MIQ B 502      19.588  -0.547  12.114  1.00139.82     0.187 C 
HETATM   13  C19 MIQ B 502      18.104  -0.334  11.790  1.00140.06     0.247 C 
HETATM   14  O25 MIQ B 502      17.722   0.750  11.529  1.00143.95    -0.271 OA
HETATM   15  N20 MIQ B 502      17.157  -1.431  11.791  1.00140.02    -0.296 N 
HETATM   16  H13 MIQ B 502      16.190  -1.277  11.584  1.00142.77     0.171 HD
HETATM   17  C21 MIQ B 502      17.646  -2.744  12.123  1.00142.22     0.224 C 
HETATM   18  C22 MIQ B 502      18.771  -2.815  13.137  1.00139.52     0.106 C 
HETATM   19  O24 MIQ B 502      17.194  -3.716  11.625  1.00146.13    -0.273 OA
HETATM   20  C23 MIQ B 502      19.902  -1.966  12.587  1.00139.15     0.045 C 
ENDBRANCH  10  12
BRANCH   5  21
HETATM   21  N6  MIQ B 502      22.630   4.807  16.496  1.00140.95    -0.377 N 
HETATM   22  C7  MIQ B 502      22.340   5.460  17.760  1.00142.12     0.149 C 
HETATM   23  C8  MIQ B 502      22.895   6.878  17.808  1.00144.10     0.187 C 
HETATM   24  O9  MIQ B 502      24.223   6.957  17.385  1.00148.65    -0.388 OA
HETATM   25  C10 MIQ B 502      24.838   5.860  16.777  1.00147.44     0.187 C 
HETATM   26  C11 MIQ B 502      23.977   4.900  15.963  1.00144.08     0.149 C 
ENDBRANCH   5  21
TORSDOF 2
ENDMDL
MODEL 4
REMARK VINA RESULT:      -6.2      3.336      8.329
REMARK  2 active torsions:
REMARK  status: ('A' for Active; 'I' for Inactive)
REMARK    1  A    between atoms: C5_5  and  N6_21 
REMARK    2  A    between atoms: C18_14  and  N17_19 
ROOT
HETATM    1  O1  MIQ B 502      21.741   3.226  15.664  1.00142.91    -0.171 OA
HETATM    2  C2  MIQ B 502      20.443   3.548  15.263  1.00141.17     0.195 A 
HETATM    3  C3  MIQ B 502      19.412   2.575  14.606  1.00141.71     0.035 A 
HETATM    4  C4  MIQ B 502      19.459   1.141  14.234  1.00142.86     0.046 A 
HETATM    5  C5  MIQ B 502      18.333   0.518  13.639  1.00139.53     0.031 A 
HETATM    6  C12 MIQ B 502      17.125   1.292  13.393  1.00139.38     0.030 A 
HETATM    7  C13 MIQ B 502      17.079   2.666  13.752  1.00141.18     0.019 A 
HETATM    8  C14 MIQ B 502      18.263   3.314  14.378  1.00138.77     0.033 A 
HETATM    9  C15 MIQ B 502      18.582   4.755  14.896  1.00142.10     0.195 A 
HETATM   10  N17 MIQ B 502      19.822   4.712  15.354  1.00139.42    -0.288 N 
HETATM   11  O16 MIQ B 502      17.728   5.859  14.875  1.00148.93    -0.171 OA
ENDROOT
BRANCH  10  12
HETATM   12  C18 MIQ B 502      20.467   5.889  15.905  1.00139.82     0.187 C 
HETATM   13  C19 MIQ B 502      21.761   6.126  15.117  1.00140.06     0.247 C 
HETATM   14  O25 MIQ B 502      21.720   6.158  13.939  1.00143.95    -0.271 OA
HETATM   15  N20 MIQ B 502      23.035   6.318  15.779  1.00140.02    -0.296 N 
HETATM   16  H13 MIQ B 502      23.874   6.466  15.253  1.00142.77     0.171 HD
HETATM   17  C21 MIQ B 502      23.062   6.265  17.218  1.00142.22     0.224 C 
HETATM   18  C22 MIQ B 502      22.085   5.314  17.883  1.00139.52     0.106 C 
HETATM   19  O24 MIQ B 502      23.805   6.933  17.848  1.00146.13    -0.273 OA
HETATM   20  C23 MIQ B 502      20.701   5.714  17.405  1.00139.15     0.045 C 
ENDBRANCH  10  12
BRANCH   5  21
HETATM   21  N6  MIQ B 502      18.398  -0.883  13.265  1.00140.95    -0.377 N 
HETATM   22  C7  MIQ B 502      17.505  -1.368  12.227  1.00142.12     0.149 C 
HETATM   23  C8  MIQ B 502      17.209  -2.854  12.379  1.00144.10     0.187 C 
HETATM   24  O9  MIQ B 502      18.359  -3.619  12.581  1.00148.65    -0.388 OA
HETATM   25  C10 MIQ B 502      19.584  -3.000  12.842  1.00147.44     0.187 C 
HETATM   26  C11 MIQ B 502      19.584  -1.662  13.574  1.00144.08     0.149 C 
ENDBRANCH   5  21
TORSDOF 2
ENDMDL
MODEL 5
REMARK VINA RESULT:      -6.0      4.020      5.099
REMARK  2 active torsions:
REMARK  status: ('A' for Active; 'I' for Inactive)
REMARK    1  A    between atoms: C5_5  and  N6_21 
REMARK    2  A    between atoms: C18_14  and  N17_19 
ROOT
HETATM    1  O1  MIQ B 502      17.460   4.221  15.594  1.00142.91    -0.171 OA
HETATM    2  C2  MIQ B 502      18.781   3.818  15.802  1.00141.17     0.195 A 
HETATM    3  C3  MIQ B 502      19.898   4.649  16.510  1.00141.71     0.035 A 
HETATM    4  C4  MIQ B 502      19.928   5.993  17.133  1.00142.86     0.046 A 
HETATM    5  C5  MIQ B 502      21.123   6.488  17.713  1.00139.53     0.031 A 
HETATM    6  C12 MIQ B 502      22.327   5.669  17.696  1.00139.38     0.030 A 
HETATM    7  C13 MIQ B 502      22.299   4.380  17.099  1.00141.18     0.019 A 
HETATM    8  C14 MIQ B 502      21.040   3.865  16.494  1.00138.77     0.033 A 
HETATM    9  C15 MIQ B 502      20.629   2.540  15.773  1.00142.10     0.195 A 
HETATM   10  N17 MIQ B 502      19.352   2.677  15.458  1.00139.42    -0.288 N 
HETATM   11  O16 MIQ B 502      21.450   1.441  15.514  1.00148.93    -0.171 OA
ENDROOT
BRANCH  10  12
HETATM   12  C18 MIQ B 502      18.630   1.633  14.754  1.00139.82     0.187 C 
HETATM   13  C19 MIQ B 502      18.924   0.303  15.459  1.00140.06     0.247 C 
HETATM   14  O25 MIQ B 502      18.781   0.227  16.627  1.00143.95    -0.271 OA
HETATM   15  N20 MIQ B 502      19.369  -0.866  14.728  1.00140.02    -0.296 N 
HETATM   16  H13 MIQ B 502      19.564  -1.726  15.201  1.00142.77     0.171 HD
HETATM   17  C21 MIQ B 502      19.546  -0.745  13.304  1.00142.22     0.224 C 
HETATM   18  C22 MIQ B 502      20.019   0.601  12.789  1.00139.52     0.106 C 
HETATM   19  O24 MIQ B 502      19.328  -1.649  12.575  1.00146.13    -0.273 OA
HETATM   20  C23 MIQ B 502      19.012   1.627  13.275  1.00139.15     0.045 C 
ENDBRANCH  10  12
BRANCH   5  21
HETATM   21  N6  MIQ B 502      21.142   7.812  18.307  1.00140.95    -0.377 N 
HETATM   22  C7  MIQ B 502      22.392   8.554  18.311  1.00142.12     0.149 C 
HETATM   23  C8  MIQ B 502      22.456   9.554  19.459  1.00144.10     0.187 C 
HETATM   24  O9  MIQ B 502      21.300  10.330  19.568  1.00148.65    -0.388 OA
HETATM   25  C10 MIQ B 502      20.160  10.011  18.826  1.00147.44     0.187 C 
HETATM   26  C11 MIQ B 502      19.902   8.548  18.478  1.00144.08     0.149 C 
ENDBRANCH   5  21
TORSDOF 2
ENDMDL
MODEL 6
REMARK VINA RESULT:      -5.9      2.369      8.318
REMARK  2 active torsions:
REMARK  status: ('A' for Active; 'I' for Inactive)
REMARK    1  A    between atoms: C5_5  and  N6_21 
REMARK    2  A    between atoms: C18_14  and  N17_19 
ROOT
HETATM    1  O1  MIQ B 502      22.985   2.726  13.203  1.00142.91    -0.171 OA
HETATM    2  C2  MIQ B 502      22.108   2.748  14.290  1.00141.17     0.195 A 
HETATM    3  C3  MIQ B 502      20.941   1.744  14.554  1.00141.71     0.035 A 
HETATM    4  C4  MIQ B 502      20.430   0.560  13.824  1.00142.86     0.046 A 
HETATM    5  C5  MIQ B 502      19.324  -0.171  14.327  1.00139.53     0.031 A 
HETATM    6  C12 MIQ B 502      18.689   0.245  15.569  1.00139.38     0.030 A 
HETATM    7  C13 MIQ B 502      19.179   1.379  16.271  1.00141.18     0.019 A 
HETATM    8  C14 MIQ B 502      20.342   2.141  15.739  1.00138.77     0.033 A 
HETATM    9  C15 MIQ B 502      21.142   3.398  16.213  1.00142.10     0.195 A 
HETATM   10  N17 MIQ B 502      22.082   3.596  15.304  1.00139.42    -0.288 N 
HETATM   11  O16 MIQ B 502      20.905   4.155  17.361  1.00148.93    -0.171 OA
ENDROOT
BRANCH  10  12
HETATM   12  C18 MIQ B 502      23.017   4.701  15.410  1.00139.82     0.187 C 
HETATM   13  C19 MIQ B 502      23.673   4.628  16.794  1.00140.06     0.247 C 
HETATM   14  O25 MIQ B 502      24.152   3.610  17.151  1.00143.95    -0.271 OA
HETATM   15  N20 MIQ B 502      23.728   5.776  17.675  1.00140.02    -0.296 N 
HETATM   16  H13 MIQ B 502      24.153   5.713  18.579  1.00142.77     0.171 HD
HETATM   17  C21 MIQ B 502      23.127   7.004  17.221  1.00142.22     0.224 C 
HETATM   18  C22 MIQ B 502      21.898   6.877  16.343  1.00139.52     0.106 C 
HETATM   19  O24 MIQ B 502      23.576   8.057  17.515  1.00146.13    -0.273 OA
HETATM   20  C23 MIQ B 502      22.304   6.028  15.152  1.00139.15     0.045 C 
ENDBRANCH  10  12
BRANCH   5  21
HETATM   21  N6  MIQ B 502      18.825  -1.319  13.593  1.00140.95    -0.377 N 
HETATM   22  C7  MIQ B 502      17.659  -1.148  12.744  1.00142.12     0.149 C 
HETATM   23  C8  MIQ B 502      16.884  -2.448  12.572  1.00144.10     0.187 C 
HETATM   24  O9  MIQ B 502      17.705  -3.530  12.247  1.00148.65    -0.388 OA
HETATM   25  C10 MIQ B 502      19.095  -3.412  12.322  1.00147.44     0.187 C 
HETATM   26  C11 MIQ B 502      19.691  -2.460  13.354  1.00144.08     0.149 C 
ENDBRANCH   5  21
TORSDOF 2
ENDMDL
MODEL 7
REMARK VINA RESULT:      -5.9      3.873      4.945
REMARK  2 active torsions:
REMARK  status: ('A' for Active; 'I' for Inactive)
REMARK    1  A    between atoms: C5_5  and  N6_21 
REMARK    2  A    between atoms: C18_14  and  N17_19 
ROOT
HETATM    1  O1  MIQ B 502      19.340   0.204  11.094  1.00142.91    -0.171 OA
HETATM    2  C2  MIQ B 502      20.008   0.773  12.180  1.00141.17     0.195 A 
HETATM    3  C3  MIQ B 502      20.752   2.147  12.189  1.00141.71     0.035 A 
HETATM    4  C4  MIQ B 502      20.971   3.193  11.162  1.00142.86     0.046 A 
HETATM    5  C5  MIQ B 502      21.706   4.364  11.478  1.00139.53     0.031 A 
HETATM    6  C12 MIQ B 502      22.247   4.538  12.818  1.00139.38     0.030 A 
HETATM    7  C13 MIQ B 502      22.036   3.536  13.803  1.00141.18     0.019 A 
HETATM    8  C14 MIQ B 502      21.261   2.310  13.467  1.00138.77     0.033 A 
HETATM    9  C15 MIQ B 502      20.831   1.031  14.256  1.00142.10     0.195 A 
HETATM   10  N17 MIQ B 502      20.146   0.288  13.402  1.00139.42    -0.288 N 
HETATM   11  O16 MIQ B 502      21.118   0.736  15.590  1.00148.93    -0.171 OA
ENDROOT
BRANCH  10  12
HETATM   12  C18 MIQ B 502      19.597  -0.998  13.789  1.00139.82     0.187 C 
HETATM   13  C19 MIQ B 502      19.990  -2.017  12.712  1.00140.06     0.247 C 
HETATM   14  O25 MIQ B 502      21.120  -2.101  12.384  1.00143.95    -0.271 OA
HETATM   15  N20 MIQ B 502      19.012  -2.885  12.088  1.00140.02    -0.296 N 
HETATM   16  H13 MIQ B 502      19.281  -3.542  11.382  1.00142.77     0.171 HD
HETATM   17  C21 MIQ B 502      17.637  -2.757  12.498  1.00142.22     0.224 C 
HETATM   18  C22 MIQ B 502      17.168  -1.366  12.881  1.00139.52     0.106 C 
HETATM   19  O24 MIQ B 502      16.914  -3.691  12.538  1.00146.13    -0.273 OA
HETATM   20  C23 MIQ B 502      18.086  -0.892  13.993  1.00139.15     0.045 C 
ENDBRANCH  10  12
BRANCH   5  21
HETATM   21  N6  MIQ B 502      21.927   5.373  10.458  1.00140.95    -0.377 N 
HETATM   22  C7  MIQ B 502      21.805   4.989   9.062  1.00142.12     0.149 C 
HETATM   23  C8  MIQ B 502      22.647   5.875   8.153  1.00144.10     0.187 C 
HETATM   24  O9  MIQ B 502      22.480   7.236   8.414  1.00148.65    -0.388 OA
HETATM   25  C10 MIQ B 502      21.786   7.659   9.551  1.00147.44     0.187 C 
HETATM   26  C11 MIQ B 502      21.826   6.782  10.798  1.00144.08     0.149 C 
ENDBRANCH   5  21
TORSDOF 2
ENDMDL
MODEL 8
REMARK VINA RESULT:      -5.9      4.576      8.121
REMARK  2 active torsions:
REMARK  status: ('A' for Active; 'I' for Inactive)
REMARK    1  A    between atoms: C5_5  and  N6_21 
REMARK    2  A    between atoms: C18_14  and  N17_19 
ROOT
HETATM    1  O1  MIQ B 502      18.593   4.709  12.647  1.00142.91    -0.171 OA
HETATM    2  C2  MIQ B 502      18.785   4.240  13.948  1.00141.17     0.195 A 
HETATM    3  C3  MIQ B 502      18.807   2.744  14.396  1.00141.71     0.035 A 
HETATM    4  C4  MIQ B 502      18.652   1.461  13.670  1.00142.86     0.046 A 
HETATM    5  C5  MIQ B 502      18.723   0.229  14.368  1.00139.53     0.031 A 
HETATM    6  C12 MIQ B 502      18.951   0.226  15.806  1.00139.38     0.030 A 
HETATM    7  C13 MIQ B 502      19.101   1.455  16.502  1.00141.18     0.019 A 
HETATM    8  C14 MIQ B 502      19.028   2.745  15.763  1.00138.77     0.033 A 
HETATM    9  C15 MIQ B 502      19.144   4.251  16.167  1.00142.10     0.195 A 
HETATM   10  N17 MIQ B 502      18.990   4.942  15.050  1.00139.42    -0.288 N 
HETATM   11  O16 MIQ B 502      19.364   4.758  17.449  1.00148.93    -0.171 OA
ENDROOT
BRANCH  10  12
HETATM   12  C18 MIQ B 502      19.023   6.393  15.045  1.00139.82     0.187 C 
HETATM   13  C19 MIQ B 502      17.797   6.887  14.269  1.00140.06     0.247 C 
HETATM   14  O25 MIQ B 502      16.730   6.472  14.553  1.00143.95    -0.271 OA
HETATM   15  N20 MIQ B 502      17.910   7.855  13.197  1.00140.02    -0.296 N 
HETATM   16  H13 MIQ B 502      17.102   8.164  12.693  1.00142.77     0.171 HD
HETATM   17  C21 MIQ B 502      19.224   8.339  12.861  1.00142.22     0.224 C 
HETATM   18  C22 MIQ B 502      20.371   7.359  13.019  1.00139.52     0.106 C 
HETATM   19  O24 MIQ B 502      19.398   9.446  12.487  1.00146.13    -0.273 OA
HETATM   20  C23 MIQ B 502      20.345   6.892  14.463  1.00139.15     0.045 C 
ENDBRANCH  10  12
BRANCH   5  21
HETATM   21  N6  MIQ B 502      18.554  -1.020  13.647  1.00140.95    -0.377 N 
HETATM   22  C7  MIQ B 502      17.504  -1.108  12.648  1.00142.12     0.149 C 
HETATM   23  C8  MIQ B 502      17.019  -2.539  12.456  1.00144.10     0.187 C 
HETATM   24  O9  MIQ B 502      18.065  -3.451  12.305  1.00148.65    -0.388 OA
HETATM   25  C10 MIQ B 502      19.385  -3.062  12.549  1.00147.44     0.187 C 
HETATM   26  C11 MIQ B 502      19.645  -1.977  13.589  1.00144.08     0.149 C 
ENDBRANCH   5  21
TORSDOF 2
ENDMDL
MODEL 9
REMARK VINA RESULT:      -5.9      3.439      4.157
REMARK  2 active torsions:
REMARK  status: ('A' for Active; 'I' for Inactive)
REMARK    1  A    between atoms: C5_5  and  N6_21 
REMARK    2  A    between atoms: C18_14  and  N17_19 
ROOT
HETATM    1  O1  MIQ B 502      20.862   1.139  14.551  1.00142.91    -0.171 OA
HETATM    2  C2  MIQ B 502      19.833   2.016  14.202  1.00141.17     0.195 A 
HETATM    3  C3  MIQ B 502      19.706   3.510  14.642  1.00141.71     0.035 A 
HETATM    4  C4  MIQ B 502      20.543   4.400  15.481  1.00142.86     0.046 A 
HETATM    5  C5  MIQ B 502      20.158   5.746  15.704  1.00139.53     0.031 A 
HETATM    6  C12 MIQ B 502      18.933   6.255  15.104  1.00139.38     0.030 A 
HETATM    7  C13 MIQ B 502      18.131   5.403  14.298  1.00141.18     0.019 A 
HETATM    8  C14 MIQ B 502      18.542   3.991  14.066  1.00138.77     0.033 A 
HETATM    9  C15 MIQ B 502      17.943   2.790  13.264  1.00142.10     0.195 A 
HETATM   10  N17 MIQ B 502      18.778   1.780  13.441  1.00139.42    -0.288 N 
HETATM   11  O16 MIQ B 502      16.765   2.789  12.516  1.00148.93    -0.171 OA
ENDROOT
BRANCH  10  12
HETATM   12  C18 MIQ B 502      18.531   0.479  12.848  1.00139.82     0.187 C 
HETATM   13  C19 MIQ B 502      18.598  -0.567  13.967  1.00140.06     0.247 C 
HETATM   14  O25 MIQ B 502      17.964  -0.402  14.948  1.00143.95    -0.271 OA
HETATM   15  N20 MIQ B 502      19.417  -1.756  13.852  1.00140.02    -0.296 N 
HETATM   16  H13 MIQ B 502      19.457  -2.428  14.593  1.00142.77     0.171 HD
HETATM   17  C21 MIQ B 502      20.190  -1.929  12.650  1.00142.22     0.224 C 
HETATM   18  C22 MIQ B 502      20.725  -0.670  11.997  1.00139.52     0.106 C 
HETATM   19  O24 MIQ B 502      20.393  -3.001  12.195  1.00146.13    -0.273 OA
HETATM   20  C23 MIQ B 502      19.523   0.214  11.716  1.00139.15     0.045 C 
ENDBRANCH  10  12
BRANCH   5  21
HETATM   21  N6  MIQ B 502      20.979   6.602  16.540  1.00140.95    -0.377 N 
HETATM   22  C7  MIQ B 502      20.399   7.152  17.753  1.00142.12     0.149 C 
HETATM   23  C8  MIQ B 502      21.064   8.461  18.159  1.00144.10     0.187 C 
HETATM   24  O9  MIQ B 502      22.458   8.389  18.145  1.00148.65    -0.388 OA
HETATM   25  C10 MIQ B 502      23.104   7.285  17.582  1.00147.44     0.187 C 
HETATM   26  C11 MIQ B 502      22.427   6.553  16.428  1.00144.08     0.149 C 
ENDBRANCH   5  21
TORSDOF 2
ENDMDL
