MODEL 1
REMARK VINA RESULT:      -7.6      0.000      0.000
REMARK  2 active torsions:
REMARK  status: ('A' for Active; 'I' for Inactive)
REMARK    1  A    between atoms: C5_5  and  N6_21 
REMARK    2  A    between atoms: C18_14  and  N17_19 
ROOT
HETATM    1  O1  MIQ B 502      17.289  -9.674  -1.938  1.00142.91    -0.171 OA
HETATM    2  C2  MIQ B 502      16.278  -9.180  -1.110  1.00141.17     0.195 A 
HETATM    3  C3  MIQ B 502      15.273 -10.033  -0.272  1.00141.71     0.035 A 
HETATM    4  C4  MIQ B 502      15.078 -11.491  -0.091  1.00142.86     0.046 A 
HETATM    5  C5  MIQ B 502      14.053 -11.976   0.761  1.00139.53     0.031 A 
HETATM    6  C12 MIQ B 502      13.190 -11.036   1.461  1.00139.38     0.030 A 
HETATM    7  C13 MIQ B 502      13.378  -9.638   1.289  1.00141.18     0.019 A 
HETATM    8  C14 MIQ B 502      14.457  -9.135   0.395  1.00138.77     0.033 A 
HETATM    9  C15 MIQ B 502      14.958  -7.716  -0.031  1.00142.10     0.195 A 
HETATM   10  N17 MIQ B 502      15.968  -7.920  -0.860  1.00139.42    -0.288 N 
HETATM   11  O16 MIQ B 502      14.439  -6.488   0.382  1.00148.93    -0.171 OA
ENDROOT
BRANCH  10  12
HETATM   12  C18 MIQ B 502      16.677  -6.813  -1.475  1.00139.82     0.187 C 
HETATM   13  C19 MIQ B 502      16.271  -6.761  -2.953  1.00140.06     0.247 C 
HETATM   14  O25 MIQ B 502      15.125  -6.761  -3.235  1.00143.95    -0.271 OA
HETATM   15  N20 MIQ B 502      17.255  -6.705  -4.015  1.00140.02    -0.296 N 
HETATM   16  H13 MIQ B 502      16.976  -6.677  -4.976  1.00142.77     0.171 HD
HETATM   17  C21 MIQ B 502      18.647  -6.717  -3.645  1.00142.22     0.224 C 
HETATM   18  C22 MIQ B 502      19.018  -7.520  -2.414  1.00139.52     0.106 C 
HETATM   19  O24 MIQ B 502      19.457  -6.124  -4.270  1.00146.13    -0.273 OA
HETATM   20  C23 MIQ B 502      18.184  -6.969  -1.272  1.00139.15     0.045 C 
ENDBRANCH  10  12
BRANCH   5  21
HETATM   21  N6  MIQ B 502      13.863 -13.407   0.917  1.00140.95    -0.377 N 
HETATM   22  C7  MIQ B 502      13.060 -13.883   2.030  1.00142.12     0.149 C 
HETATM   23  C8  MIQ B 502      13.455 -15.292   2.454  1.00144.10     0.187 C 
HETATM   24  O9  MIQ B 502      13.564 -16.174   1.376  1.00148.65    -0.388 OA
HETATM   25  C10 MIQ B 502      13.535 -15.694   0.064  1.00147.44     0.187 C 
HETATM   26  C11 MIQ B 502      14.073 -14.294  -0.213  1.00144.08     0.149 C 
ENDBRANCH   5  21
TORSDOF 2
ENDMDL
MODEL 2
REMARK VINA RESULT:      -7.2     16.909     18.876
REMARK  2 active torsions:
REMARK  status: ('A' for Active; 'I' for Inactive)
REMARK    1  A    between atoms: C5_5  and  N6_21 
REMARK    2  A    between atoms: C18_14  and  N17_19 
ROOT
HETATM    1  O1  MIQ B 502      23.357   4.136  -6.129  1.00142.91    -0.171 OA
HETATM    2  C2  MIQ B 502      24.130   4.796  -5.172  1.00141.17     0.195 A 
HETATM    3  C3  MIQ B 502      25.631   4.513  -4.844  1.00141.71     0.035 A 
HETATM    4  C4  MIQ B 502      26.629   3.558  -5.381  1.00142.86     0.046 A 
HETATM    5  C5  MIQ B 502      27.951   3.539  -4.868  1.00139.53     0.031 A 
HETATM    6  C12 MIQ B 502      28.329   4.464  -3.809  1.00139.38     0.030 A 
HETATM    7  C13 MIQ B 502      27.372   5.380  -3.294  1.00141.18     0.019 A 
HETATM    8  C14 MIQ B 502      25.987   5.398  -3.838  1.00138.77     0.033 A 
HETATM    9  C15 MIQ B 502      24.700   6.234  -3.541  1.00142.10     0.195 A 
HETATM   10  N17 MIQ B 502      23.770   5.778  -4.364  1.00139.42    -0.288 N 
HETATM   11  O16 MIQ B 502      24.565   7.252  -2.596  1.00148.93    -0.171 OA
ENDROOT
BRANCH  10  12
HETATM   12  C18 MIQ B 502      22.423   6.318  -4.358  1.00139.82     0.187 C 
HETATM   13  C19 MIQ B 502      21.451   5.147  -4.164  1.00140.06     0.247 C 
HETATM   14  O25 MIQ B 502      21.627   4.394  -3.273  1.00143.95    -0.271 OA
HETATM   15  N20 MIQ B 502      20.316   4.943  -5.041  1.00140.02    -0.296 N 
HETATM   16  H13 MIQ B 502      19.693   4.171  -4.907  1.00142.77     0.171 HD
HETATM   17  C21 MIQ B 502      20.128   5.870  -6.127  1.00142.22     0.224 C 
HETATM   18  C22 MIQ B 502      21.382   6.444  -6.758  1.00139.52     0.106 C 
HETATM   19  O24 MIQ B 502      19.049   6.171  -6.503  1.00146.13    -0.273 OA
HETATM   20  C23 MIQ B 502      22.162   7.110  -5.638  1.00139.15     0.045 C 
ENDBRANCH  10  12
BRANCH   5  21
HETATM   21  N6  MIQ B 502      28.914   2.589  -5.393  1.00140.95    -0.377 N 
HETATM   22  C7  MIQ B 502      29.885   3.051  -6.369  1.00142.12     0.149 C 
HETATM   23  C8  MIQ B 502      30.362   1.923  -7.276  1.00144.10     0.187 C 
HETATM   24  O9  MIQ B 502      30.726   0.775  -6.570  1.00148.65    -0.388 OA
HETATM   25  C10 MIQ B 502      30.436   0.661  -5.208  1.00147.44     0.187 C 
HETATM   26  C11 MIQ B 502      29.197   1.365  -4.664  1.00144.08     0.149 C 
ENDBRANCH   5  21
TORSDOF 2
ENDMDL
MODEL 3
REMARK VINA RESULT:      -7.1     17.214     19.498
REMARK  2 active torsions:
REMARK  status: ('A' for Active; 'I' for Inactive)
REMARK    1  A    between atoms: C5_5  and  N6_21 
REMARK    2  A    between atoms: C18_14  and  N17_19 
ROOT
HETATM    1  O1  MIQ B 502      22.368   6.311  -3.988  1.00142.91    -0.171 OA
HETATM    2  C2  MIQ B 502      23.443   5.877  -4.767  1.00141.17     0.195 A 
HETATM    3  C3  MIQ B 502      24.909   5.660  -4.275  1.00141.71     0.035 A 
HETATM    4  C4  MIQ B 502      25.578   5.820  -2.962  1.00142.86     0.046 A 
HETATM    5  C5  MIQ B 502      26.960   5.537  -2.823  1.00139.53     0.031 A 
HETATM    6  C12 MIQ B 502      27.725   5.086  -3.976  1.00139.38     0.030 A 
HETATM    7  C13 MIQ B 502      27.084   4.931  -5.235  1.00141.18     0.019 A 
HETATM    8  C14 MIQ B 502      25.632   5.228  -5.375  1.00138.77     0.033 A 
HETATM    9  C15 MIQ B 502      24.609   5.175  -6.556  1.00142.10     0.195 A 
HETATM   10  N17 MIQ B 502      23.449   5.561  -6.050  1.00139.42    -0.288 N 
HETATM   11  O16 MIQ B 502      24.872   4.799  -7.874  1.00148.93    -0.171 OA
ENDROOT
BRANCH  10  12
HETATM   12  C18 MIQ B 502      22.256   5.650  -6.873  1.00139.82     0.187 C 
HETATM   13  C19 MIQ B 502      21.678   7.061  -6.706  1.00140.06     0.247 C 
HETATM   14  O25 MIQ B 502      22.384   7.994  -6.852  1.00143.95    -0.271 OA
HETATM   15  N20 MIQ B 502      20.284   7.280  -6.380  1.00140.02    -0.296 N 
HETATM   16  H13 MIQ B 502      19.920   8.206  -6.267  1.00142.77     0.171 HD
HETATM   17  C21 MIQ B 502      19.444   6.125  -6.196  1.00142.22     0.224 C 
HETATM   18  C22 MIQ B 502      20.098   4.895  -5.597  1.00139.52     0.106 C 
HETATM   19  O24 MIQ B 502      18.302   6.136  -6.504  1.00146.13    -0.273 OA
HETATM   20  C23 MIQ B 502      21.268   4.547  -6.498  1.00139.15     0.045 C 
ENDBRANCH  10  12
BRANCH   5  21
HETATM   21  N6  MIQ B 502      27.606   5.713  -1.535  1.00140.95    -0.377 N 
HETATM   22  C7  MIQ B 502      28.194   4.552  -0.888  1.00142.12     0.149 C 
HETATM   23  C8  MIQ B 502      28.237   4.705   0.627  1.00144.10     0.187 C 
HETATM   24  O9  MIQ B 502      28.750   5.939   1.033  1.00148.65    -0.388 OA
HETATM   25  C10 MIQ B 502      28.958   6.960   0.103  1.00147.44     0.187 C 
HETATM   26  C11 MIQ B 502      28.046   7.032  -1.117  1.00144.08     0.149 C 
ENDBRANCH   5  21
TORSDOF 2
ENDMDL
MODEL 4
REMARK VINA RESULT:      -7.0      2.667      8.297
REMARK  2 active torsions:
REMARK  status: ('A' for Active; 'I' for Inactive)
REMARK    1  A    between atoms: C5_5  and  N6_21 
REMARK    2  A    between atoms: C18_14  and  N17_19 
ROOT
HETATM    1  O1  MIQ B 502      17.243 -11.754  -2.495  1.00142.91    -0.171 OA
HETATM    2  C2  MIQ B 502      17.147 -10.395  -2.189  1.00141.17     0.195 A 
HETATM    3  C3  MIQ B 502      17.921  -9.234  -2.891  1.00141.71     0.035 A 
HETATM    4  C4  MIQ B 502      18.906  -9.189  -3.998  1.00142.86     0.046 A 
HETATM    5  C5  MIQ B 502      19.446  -7.951  -4.427  1.00139.53     0.031 A 
HETATM    6  C12 MIQ B 502      19.030  -6.717  -3.776  1.00139.38     0.030 A 
HETATM    7  C13 MIQ B 502      18.085  -6.759  -2.716  1.00141.18     0.019 A 
HETATM    8  C14 MIQ B 502      17.520  -8.062  -2.271  1.00138.77     0.033 A 
HETATM    9  C15 MIQ B 502      16.490  -8.498  -1.178  1.00142.10     0.195 A 
HETATM   10  N17 MIQ B 502      16.397  -9.814  -1.268  1.00139.42    -0.288 N 
HETATM   11  O16 MIQ B 502      15.811  -7.662  -0.289  1.00148.93    -0.171 OA
ENDROOT
BRANCH  10  12
HETATM   12  C18 MIQ B 502      15.533 -10.574  -0.385  1.00139.82     0.187 C 
HETATM   13  C19 MIQ B 502      16.359 -11.726   0.201  1.00140.06     0.247 C 
HETATM   14  O25 MIQ B 502      17.401 -11.492   0.700  1.00143.95    -0.271 OA
HETATM   15  N20 MIQ B 502      15.892 -13.097   0.164  1.00140.02    -0.296 N 
HETATM   16  H13 MIQ B 502      16.443 -13.841   0.543  1.00142.77     0.171 HD
HETATM   17  C21 MIQ B 502      14.620 -13.360  -0.460  1.00142.22     0.224 C 
HETATM   18  C22 MIQ B 502      14.244 -12.480  -1.637  1.00139.52     0.106 C 
HETATM   19  O24 MIQ B 502      13.906 -14.216  -0.070  1.00146.13    -0.273 OA
HETATM   20  C23 MIQ B 502      14.289 -11.048  -1.136  1.00139.15     0.045 C 
ENDBRANCH  10  12
BRANCH   5  21
HETATM   21  N6  MIQ B 502      20.421  -7.923  -5.502  1.00140.95    -0.377 N 
HETATM   22  C7  MIQ B 502      21.609  -8.751  -5.384  1.00142.12     0.149 C 
HETATM   23  C8  MIQ B 502      22.780  -8.181  -6.174  1.00144.10     0.187 C 
HETATM   24  O9  MIQ B 502      22.432  -7.819  -7.477  1.00148.65    -0.388 OA
HETATM   25  C10 MIQ B 502      21.092  -7.788  -7.868  1.00147.44     0.187 C 
HETATM   26  C11 MIQ B 502      20.033  -7.456  -6.821  1.00144.08     0.149 C 
ENDBRANCH   5  21
TORSDOF 2
ENDMDL
MODEL 5
REMARK VINA RESULT:      -6.9     17.133     19.591
REMARK  2 active torsions:
REMARK  status: ('A' for Active; 'I' for Inactive)
REMARK    1  A    between atoms: C5_5  and  N6_21 
REMARK    2  A    between atoms: C18_14  and  N17_19 
ROOT
HETATM    1  O1  MIQ B 502      22.589   4.798  -4.626  1.00142.91    -0.171 OA
HETATM    2  C2  MIQ B 502      23.265   5.703  -5.447  1.00141.17     0.195 A 
HETATM    3  C3  MIQ B 502      24.765   5.616  -5.876  1.00141.71     0.035 A 
HETATM    4  C4  MIQ B 502      25.852   4.651  -5.590  1.00142.86     0.046 A 
HETATM    5  C5  MIQ B 502      27.145   4.844  -6.139  1.00139.53     0.031 A 
HETATM    6  C12 MIQ B 502      27.404   5.998  -6.988  1.00139.38     0.030 A 
HETATM    7  C13 MIQ B 502      26.361   6.923  -7.263  1.00141.18     0.019 A 
HETATM    8  C14 MIQ B 502      25.005   6.714  -6.686  1.00138.77     0.033 A 
HETATM    9  C15 MIQ B 502      23.648   7.485  -6.762  1.00142.10     0.195 A 
HETATM   10  N17 MIQ B 502      22.793   6.793  -6.026  1.00139.42    -0.288 N 
HETATM   11  O16 MIQ B 502      23.395   8.666  -7.463  1.00148.93    -0.171 OA
ENDROOT
BRANCH  10  12
HETATM   12  C18 MIQ B 502      21.419   7.227  -5.852  1.00139.82     0.187 C 
HETATM   13  C19 MIQ B 502      21.134   7.284  -4.347  1.00140.06     0.247 C 
HETATM   14  O25 MIQ B 502      21.874   7.873  -3.642  1.00143.95    -0.271 OA
HETATM   15  N20 MIQ B 502      19.976   6.638  -3.764  1.00140.02    -0.296 N 
HETATM   16  H13 MIQ B 502      19.804   6.678  -2.778  1.00142.77     0.171 HD
HETATM   17  C21 MIQ B 502      19.092   5.916  -4.643  1.00142.22     0.224 C 
HETATM   18  C22 MIQ B 502      19.730   5.226  -5.833  1.00139.52     0.106 C 
HETATM   19  O24 MIQ B 502      17.928   5.870  -4.447  1.00146.13    -0.273 OA
HETATM   20  C23 MIQ B 502      20.469   6.300  -6.610  1.00139.15     0.045 C 
ENDBRANCH  10  12
BRANCH   5  21
HETATM   21  N6  MIQ B 502      28.205   3.899  -5.838  1.00140.95    -0.377 N 
HETATM   22  C7  MIQ B 502      29.514   4.112  -6.431  1.00142.12     0.149 C 
HETATM   23  C8  MIQ B 502      30.288   2.809  -6.583  1.00144.10     0.187 C 
HETATM   24  O9  MIQ B 502      30.277   2.032  -5.423  1.00148.65    -0.388 OA
HETATM   25  C10 MIQ B 502      29.434   2.361  -4.358  1.00147.44     0.187 C 
HETATM   26  C11 MIQ B 502      28.108   3.049  -4.664  1.00144.08     0.149 C 
ENDBRANCH   5  21
TORSDOF 2
ENDMDL
MODEL 6
REMARK VINA RESULT:      -6.8     17.068     19.350
REMARK  2 active torsions:
REMARK  status: ('A' for Active; 'I' for Inactive)
REMARK    1  A    between atoms: C5_5  and  N6_21 
REMARK    2  A    between atoms: C18_14  and  N17_19 
ROOT
HETATM    1  O1  MIQ B 502      24.023   3.696  -4.808  1.00142.91    -0.171 OA
HETATM    2  C2  MIQ B 502      24.895   4.620  -5.390  1.00141.17     0.195 A 
HETATM    3  C3  MIQ B 502      26.429   4.428  -5.610  1.00141.71     0.035 A 
HETATM    4  C4  MIQ B 502      27.371   3.324  -5.311  1.00142.86     0.046 A 
HETATM    5  C5  MIQ B 502      28.745   3.446  -5.639  1.00139.53     0.031 A 
HETATM    6  C12 MIQ B 502      29.232   4.663  -6.273  1.00139.38     0.030 A 
HETATM    7  C13 MIQ B 502      28.329   5.722  -6.560  1.00141.18     0.019 A 
HETATM    8  C14 MIQ B 502      26.887   5.587  -6.216  1.00138.77     0.033 A 
HETATM    9  C15 MIQ B 502      25.629   6.503  -6.374  1.00142.10     0.195 A 
HETATM   10  N17 MIQ B 502      24.614   5.819  -5.871  1.00139.42    -0.288 N 
HETATM   11  O16 MIQ B 502      25.591   7.782  -6.930  1.00148.93    -0.171 OA
ENDROOT
BRANCH  10  12
HETATM   12  C18 MIQ B 502      23.273   6.371  -5.834  1.00139.82     0.187 C 
HETATM   13  C19 MIQ B 502      22.747   6.227  -4.400  1.00140.06     0.247 C 
HETATM   14  O25 MIQ B 502      23.408   6.614  -3.503  1.00143.95    -0.271 OA
HETATM   15  N20 MIQ B 502      21.457   5.633  -4.117  1.00140.02    -0.296 N 
HETATM   16  H13 MIQ B 502      21.128   5.538  -3.176  1.00142.77     0.171 HD
HETATM   17  C21 MIQ B 502      20.673   5.159  -5.228  1.00142.22     0.224 C 
HETATM   18  C22 MIQ B 502      21.439   4.593  -6.409  1.00139.52     0.106 C 
HETATM   19  O24 MIQ B 502      19.493   5.214  -5.220  1.00146.13    -0.273 OA
HETATM   20  C23 MIQ B 502      22.386   5.685  -6.872  1.00139.15     0.045 C 
ENDBRANCH  10  12
BRANCH   5  21
HETATM   21  N6  MIQ B 502      29.660   2.362  -5.327  1.00140.95    -0.377 N 
HETATM   22  C7  MIQ B 502      31.061   2.677  -5.111  1.00142.12     0.149 C 
HETATM   23  C8  MIQ B 502      31.966   1.495  -5.435  1.00144.10     0.187 C 
HETATM   24  O9  MIQ B 502      31.527   0.301  -4.860  1.00148.65    -0.388 OA
HETATM   25  C10 MIQ B 502      30.265   0.223  -4.266  1.00147.44     0.187 C 
HETATM   26  C11 MIQ B 502      29.146   1.105  -4.811  1.00144.08     0.149 C 
ENDBRANCH   5  21
TORSDOF 2
ENDMDL
MODEL 7
REMARK VINA RESULT:      -6.7     20.914     22.925
REMARK  2 active torsions:
REMARK  status: ('A' for Active; 'I' for Inactive)
REMARK    1  A    between atoms: C5_5  and  N6_21 
REMARK    2  A    between atoms: C18_14  and  N17_19 
ROOT
HETATM    1  O1  MIQ B 502      26.089   6.101   9.964  1.00142.91    -0.171 OA
HETATM    2  C2  MIQ B 502      25.681   7.123   9.105  1.00141.17     0.195 A 
HETATM    3  C3  MIQ B 502      26.117   7.306   7.616  1.00141.71     0.035 A 
HETATM    4  C4  MIQ B 502      27.009   6.539   6.714  1.00142.86     0.046 A 
HETATM    5  C5  MIQ B 502      27.212   6.963   5.377  1.00139.53     0.031 A 
HETATM    6  C12 MIQ B 502      26.540   8.159   4.888  1.00139.38     0.030 A 
HETATM    7  C13 MIQ B 502      25.685   8.893   5.752  1.00141.18     0.019 A 
HETATM    8  C14 MIQ B 502      25.473   8.442   7.154  1.00138.77     0.033 A 
HETATM    9  C15 MIQ B 502      24.632   8.967   8.363  1.00142.10     0.195 A 
HETATM   10  N17 MIQ B 502      24.857   8.125   9.358  1.00139.42    -0.288 N 
HETATM   11  O16 MIQ B 502      23.813  10.098   8.383  1.00148.93    -0.171 OA
ENDROOT
BRANCH  10  12
HETATM   12  C18 MIQ B 502      24.245   8.311  10.661  1.00139.82     0.187 C 
HETATM   13  C19 MIQ B 502      25.368   8.345  11.705  1.00140.06     0.247 C 
HETATM   14  O25 MIQ B 502      26.284   9.069  11.542  1.00143.95    -0.271 OA
HETATM   15  N20 MIQ B 502      25.332   7.514  12.891  1.00140.02    -0.296 N 
HETATM   16  H13 MIQ B 502      26.075   7.541  13.562  1.00142.77     0.171 HD
HETATM   17  C21 MIQ B 502      24.208   6.630  13.063  1.00142.22     0.224 C 
HETATM   18  C22 MIQ B 502      23.606   6.042  11.802  1.00139.52     0.106 C 
HETATM   19  O24 MIQ B 502      23.776   6.382  14.134  1.00146.13    -0.273 OA
HETATM   20  C23 MIQ B 502      23.212   7.216  10.924  1.00139.15     0.045 C 
ENDBRANCH  10  12
BRANCH   5  21
HETATM   21  N6  MIQ B 502      28.100   6.211   4.509  1.00140.95    -0.377 N 
HETATM   22  C7  MIQ B 502      28.926   5.169   5.095  1.00142.12     0.149 C 
HETATM   23  C8  MIQ B 502      30.196   4.930   4.289  1.00144.10     0.187 C 
HETATM   24  O9  MIQ B 502      29.956   4.801   2.920  1.00148.65    -0.388 OA
HETATM   25  C10 MIQ B 502      28.699   5.105   2.391  1.00147.44     0.187 C 
HETATM   26  C11 MIQ B 502      27.858   6.177   3.077  1.00144.08     0.149 C 
ENDBRANCH   5  21
TORSDOF 2
ENDMDL
MODEL 8
REMARK VINA RESULT:      -6.7      4.299      9.848
REMARK  2 active torsions:
REMARK  status: ('A' for Active; 'I' for Inactive)
REMARK    1  A    between atoms: C5_5  and  N6_21 
REMARK    2  A    between atoms: C18_14  and  N17_19 
ROOT
HETATM    1  O1  MIQ B 502      17.675  -6.988  -4.144  1.00142.91    -0.171 OA
HETATM    2  C2  MIQ B 502      18.685  -7.952  -4.189  1.00141.17     0.195 A 
HETATM    3  C3  MIQ B 502      19.763  -8.106  -5.309  1.00141.71     0.035 A 
HETATM    4  C4  MIQ B 502      20.048  -7.362  -6.559  1.00142.86     0.046 A 
HETATM    5  C5  MIQ B 502      21.127  -7.749  -7.393  1.00139.53     0.031 A 
HETATM    6  C12 MIQ B 502      21.959  -8.884  -7.018  1.00139.38     0.030 A 
HETATM    7  C13 MIQ B 502      21.687  -9.597  -5.820  1.00141.18     0.019 A 
HETATM    8  C14 MIQ B 502      20.554  -9.184  -4.947  1.00138.77     0.033 A 
HETATM    9  C15 MIQ B 502      19.964  -9.702  -3.594  1.00142.10     0.195 A 
HETATM   10  N17 MIQ B 502      18.940  -8.911  -3.316  1.00139.42    -0.288 N 
HETATM   11  O16 MIQ B 502      20.426 -10.781  -2.839  1.00148.93    -0.171 OA
ENDROOT
BRANCH  10  12
HETATM   12  C18 MIQ B 502      18.134  -9.107  -2.126  1.00139.82     0.187 C 
HETATM   13  C19 MIQ B 502      16.675  -9.266  -2.570  1.00140.06     0.247 C 
HETATM   14  O25 MIQ B 502      16.411 -10.047  -3.414  1.00143.95    -0.271 OA
HETATM   15  N20 MIQ B 502      15.607  -8.486  -1.979  1.00140.02    -0.296 N 
HETATM   16  H13 MIQ B 502      14.659  -8.594  -2.283  1.00142.77     0.171 HD
HETATM   17  C21 MIQ B 502      15.954  -7.531  -0.958  1.00142.22     0.224 C 
HETATM   18  C22 MIQ B 502      17.301  -6.848  -1.095  1.00139.52     0.106 C 
HETATM   19  O24 MIQ B 502      15.226  -7.297  -0.057  1.00146.13    -0.273 OA
HETATM   20  C23 MIQ B 502      18.342  -7.952  -1.147  1.00139.15     0.045 C 
ENDBRANCH  10  12
BRANCH   5  21
HETATM   21  N6  MIQ B 502      21.385  -7.021  -8.621  1.00140.95    -0.377 N 
HETATM   22  C7  MIQ B 502      22.649  -7.238  -9.305  1.00142.12     0.149 C 
HETATM   23  C8  MIQ B 502      23.062  -6.029 -10.135  1.00144.10     0.187 C 
HETATM   24  O9  MIQ B 502      22.027  -5.539 -10.934  1.00148.65    -0.388 OA
HETATM   25  C10 MIQ B 502      20.721  -6.005 -10.765  1.00147.44     0.187 C 
HETATM   26  C11 MIQ B 502      20.281  -6.454  -9.375  1.00144.08     0.149 C 
ENDBRANCH   5  21
TORSDOF 2
ENDMDL
MODEL 9
REMARK VINA RESULT:      -6.6      4.075      7.932
REMARK  2 active torsions:
REMARK  status: ('A' for Active; 'I' for Inactive)
REMARK    1  A    between atoms: C5_5  and  N6_21 
REMARK    2  A    between atoms: C18_14  and  N17_19 
ROOT
HETATM    1  O1  MIQ B 502      16.335 -13.631   1.703  1.00142.91    -0.171 OA
HETATM    2  C2  MIQ B 502      16.471 -12.601   0.770  1.00141.17     0.195 A 
HETATM    3  C3  MIQ B 502      17.749 -11.734   0.533  1.00141.71     0.035 A 
HETATM    4  C4  MIQ B 502      19.097 -11.717   1.149  1.00142.86     0.046 A 
HETATM    5  C5  MIQ B 502      20.074 -10.788   0.710  1.00139.53     0.031 A 
HETATM    6  C12 MIQ B 502      19.750  -9.847  -0.352  1.00139.38     0.030 A 
HETATM    7  C13 MIQ B 502      18.458  -9.863  -0.943  1.00141.18     0.019 A 
HETATM    8  C14 MIQ B 502      17.437 -10.842  -0.480  1.00138.77     0.033 A 
HETATM    9  C15 MIQ B 502      15.958 -11.158  -0.876  1.00142.10     0.195 A 
HETATM   10  N17 MIQ B 502      15.576 -12.154  -0.094  1.00139.42    -0.288 N 
HETATM   11  O16 MIQ B 502      15.199 -10.514  -1.854  1.00148.93    -0.171 OA
ENDROOT
BRANCH  10  12
HETATM   12  C18 MIQ B 502      14.236 -12.706  -0.171  1.00139.82     0.187 C 
HETATM   13  C19 MIQ B 502      13.592 -12.567   1.213  1.00140.06     0.247 C 
HETATM   14  O25 MIQ B 502      13.605 -11.517   1.752  1.00143.95    -0.271 OA
HETATM   15  N20 MIQ B 502      12.961 -13.688   1.879  1.00140.02    -0.296 N 
HETATM   16  H13 MIQ B 502      12.549 -13.586   2.785  1.00142.77     0.171 HD
HETATM   17  C21 MIQ B 502      12.967 -14.962   1.206  1.00142.22     0.224 C 
HETATM   18  C22 MIQ B 502      14.177 -15.273   0.346  1.00139.52     0.106 C 
HETATM   19  O24 MIQ B 502      12.069 -15.723   1.316  1.00146.13    -0.273 OA
HETATM   20  C23 MIQ B 502      14.284 -14.150  -0.669  1.00139.15     0.045 C 
ENDBRANCH  10  12
BRANCH   5  21
HETATM   21  N6  MIQ B 502      21.386 -10.773   1.332  1.00140.95    -0.377 N 
HETATM   22  C7  MIQ B 502      21.466 -10.723   2.782  1.00142.12     0.149 C 
HETATM   23  C8  MIQ B 502      22.763 -10.081   3.258  1.00144.10     0.187 C 
HETATM   24  O9  MIQ B 502      23.891 -10.595   2.615  1.00148.65    -0.388 OA
HETATM   25  C10 MIQ B 502      23.753 -11.430   1.503  1.00147.44     0.187 C 
HETATM   26  C11 MIQ B 502      22.545 -11.238   0.592  1.00144.08     0.149 C 
ENDBRANCH   5  21
TORSDOF 2
ENDMDL
