MODEL 1
REMARK VINA RESULT:      -7.3      0.000      0.000
REMARK  2 active torsions:
REMARK  status: ('A' for Active; 'I' for Inactive)
REMARK    1  A    between atoms: C5_5  and  N6_21 
REMARK    2  A    between atoms: C18_14  and  N17_19 
ROOT
HETATM    1  O1  MIQ B 502      -0.879   1.598 -18.899  1.00142.91    -0.171 OA
HETATM    2  C2  MIQ B 502      -1.008   2.023 -17.574  1.00141.17     0.195 A 
HETATM    3  C3  MIQ B 502      -0.501   1.263 -16.308  1.00141.71     0.035 A 
HETATM    4  C4  MIQ B 502       0.213  -0.021 -16.108  1.00142.86     0.046 A 
HETATM    5  C5  MIQ B 502       0.550  -0.458 -14.802  1.00139.53     0.031 A 
HETATM    6  C12 MIQ B 502       0.192   0.360 -13.652  1.00139.38     0.030 A 
HETATM    7  C13 MIQ B 502      -0.491   1.591 -13.843  1.00141.18     0.019 A 
HETATM    8  C14 MIQ B 502      -0.840   2.046 -15.217  1.00138.77     0.033 A 
HETATM    9  C15 MIQ B 502      -1.562   3.300 -15.809  1.00142.10     0.195 A 
HETATM   10  N17 MIQ B 502      -1.568   3.132 -17.122  1.00139.42    -0.288 N 
HETATM   11  O16 MIQ B 502      -2.092   4.375 -15.094  1.00148.93    -0.171 OA
ENDROOT
BRANCH  10  12
HETATM   12  C18 MIQ B 502      -2.179   4.106 -18.007  1.00139.82     0.187 C 
HETATM   13  C19 MIQ B 502      -1.513   5.461 -17.741  1.00140.06     0.247 C 
HETATM   14  O25 MIQ B 502      -0.336   5.536 -17.749  1.00143.95    -0.271 OA
HETATM   15  N20 MIQ B 502      -2.290   6.657 -17.486  1.00140.02    -0.296 N 
HETATM   16  H13 MIQ B 502      -1.843   7.535 -17.308  1.00142.77     0.171 HD
HETATM   17  C21 MIQ B 502      -3.726   6.538 -17.471  1.00142.22     0.224 C 
HETATM   18  C22 MIQ B 502      -4.296   5.231 -16.954  1.00139.52     0.106 C 
HETATM   19  O24 MIQ B 502      -4.422   7.415 -17.850  1.00146.13    -0.273 OA
HETATM   20  C23 MIQ B 502      -3.693   4.130 -17.807  1.00139.15     0.045 C 
ENDBRANCH  10  12
BRANCH   5  21
HETATM   21  N6  MIQ B 502       1.236  -1.724 -14.620  1.00140.95    -0.377 N 
HETATM   22  C7  MIQ B 502       1.673  -2.453 -15.798  1.00142.12     0.149 C 
HETATM   23  C8  MIQ B 502       1.764  -3.951 -15.539  1.00144.10     0.187 C 
HETATM   24  O9  MIQ B 502       2.446  -4.258 -14.359  1.00148.65    -0.388 OA
HETATM   25  C10 MIQ B 502       2.772  -3.251 -13.448  1.00147.44     0.187 C 
HETATM   26  C11 MIQ B 502       1.857  -2.036 -13.344  1.00144.08     0.149 C 
ENDBRANCH   5  21
TORSDOF 2
ENDMDL
MODEL 2
REMARK VINA RESULT:      -7.3      4.063      6.822
REMARK  2 active torsions:
REMARK  status: ('A' for Active; 'I' for Inactive)
REMARK    1  A    between atoms: C5_5  and  N6_21 
REMARK    2  A    between atoms: C18_14  and  N17_19 
ROOT
HETATM    1  O1  MIQ B 502      -6.992   6.197 -15.830  1.00142.91    -0.171 OA
HETATM    2  C2  MIQ B 502      -5.777   6.633 -15.296  1.00141.17     0.195 A 
HETATM    3  C3  MIQ B 502      -4.377   5.984 -15.540  1.00141.71     0.035 A 
HETATM    4  C4  MIQ B 502      -3.918   4.819 -16.333  1.00142.86     0.046 A 
HETATM    5  C5  MIQ B 502      -2.545   4.467 -16.360  1.00139.53     0.031 A 
HETATM    6  C12 MIQ B 502      -1.582   5.255 -15.605  1.00139.38     0.030 A 
HETATM    7  C13 MIQ B 502      -2.022   6.372 -14.845  1.00141.18     0.019 A 
HETATM    8  C14 MIQ B 502      -3.464   6.739 -14.822  1.00138.77     0.033 A 
HETATM    9  C15 MIQ B 502      -4.301   7.863 -14.130  1.00142.10     0.195 A 
HETATM   10  N17 MIQ B 502      -5.556   7.662 -14.497  1.00139.42    -0.288 N 
HETATM   11  O16 MIQ B 502      -3.818   8.870 -13.293  1.00148.93    -0.171 OA
ENDROOT
BRANCH  10  12
HETATM   12  C18 MIQ B 502      -6.629   8.518 -14.026  1.00139.82     0.187 C 
HETATM   13  C19 MIQ B 502      -7.700   7.621 -13.394  1.00140.06     0.247 C 
HETATM   14  O25 MIQ B 502      -7.381   6.827 -12.582  1.00143.95    -0.271 OA
HETATM   15  N20 MIQ B 502      -9.097   7.723 -13.763  1.00140.02    -0.296 N 
HETATM   16  H13 MIQ B 502      -9.786   7.126 -13.348  1.00142.77     0.171 HD
HETATM   17  C21 MIQ B 502      -9.461   8.691 -14.765  1.00142.22     0.224 C 
HETATM   18  C22 MIQ B 502      -8.447   8.951 -15.861  1.00139.52     0.106 C 
HETATM   19  O24 MIQ B 502     -10.498   9.257 -14.729  1.00146.13    -0.273 OA
HETATM   20  C23 MIQ B 502      -7.165   9.378 -15.170  1.00139.15     0.045 C 
ENDBRANCH  10  12
BRANCH   5  21
HETATM   21  N6  MIQ B 502      -2.111   3.315 -17.130  1.00140.95    -0.377 N 
HETATM   22  C7  MIQ B 502      -1.598   3.529 -18.472  1.00142.12     0.149 C 
HETATM   23  C8  MIQ B 502      -1.793   2.306 -19.358  1.00144.10     0.187 C 
HETATM   24  O9  MIQ B 502      -1.384   1.120 -18.744  1.00148.65    -0.388 OA
HETATM   25  C10 MIQ B 502      -1.064   1.100 -17.384  1.00147.44     0.187 C 
HETATM   26  C11 MIQ B 502      -1.778   2.074 -16.453  1.00144.08     0.149 C 
ENDBRANCH   5  21
TORSDOF 2
ENDMDL
MODEL 3
REMARK VINA RESULT:      -7.1      6.532     10.190
REMARK  2 active torsions:
REMARK  status: ('A' for Active; 'I' for Inactive)
REMARK    1  A    between atoms: C5_5  and  N6_21 
REMARK    2  A    between atoms: C18_14  and  N17_19 
ROOT
HETATM    1  O1  MIQ B 502      -8.668   8.251 -18.590  1.00142.91    -0.171 OA
HETATM    2  C2  MIQ B 502      -8.928   7.996 -17.241  1.00141.17     0.195 A 
HETATM    3  C3  MIQ B 502      -7.895   7.499 -16.181  1.00141.71     0.035 A 
HETATM    4  C4  MIQ B 502      -6.451   7.169 -16.241  1.00142.86     0.046 A 
HETATM    5  C5  MIQ B 502      -5.766   6.732 -15.079  1.00139.53     0.031 A 
HETATM    6  C12 MIQ B 502      -6.486   6.608 -13.820  1.00139.38     0.030 A 
HETATM    7  C13 MIQ B 502      -7.870   6.924 -13.762  1.00141.18     0.019 A 
HETATM    8  C14 MIQ B 502      -8.583   7.385 -14.984  1.00138.77     0.033 A 
HETATM    9  C15 MIQ B 502     -10.053   7.815 -15.303  1.00142.10     0.195 A 
HETATM   10  N17 MIQ B 502     -10.071   8.123 -16.590  1.00139.42    -0.288 N 
HETATM   11  O16 MIQ B 502     -11.123   7.859 -14.409  1.00148.93    -0.171 OA
ENDROOT
BRANCH  10  12
HETATM   12  C18 MIQ B 502     -11.291   8.556 -17.247  1.00139.82     0.187 C 
HETATM   13  C19 MIQ B 502     -11.804   9.798 -16.510  1.00140.06     0.247 C 
HETATM   14  O25 MIQ B 502     -11.066  10.698 -16.314  1.00143.95    -0.271 OA
HETATM   15  N20 MIQ B 502     -13.174   9.903 -16.050  1.00140.02    -0.296 N 
HETATM   16  H13 MIQ B 502     -13.495  10.717 -15.564  1.00142.77     0.171 HD
HETATM   17  C21 MIQ B 502     -14.052   8.787 -16.291  1.00142.22     0.224 C 
HETATM   18  C22 MIQ B 502     -13.426   7.407 -16.258  1.00139.52     0.106 C 
HETATM   19  O24 MIQ B 502     -15.204   8.944 -16.509  1.00146.13    -0.273 OA
HETATM   20  C23 MIQ B 502     -12.308   7.416 -17.284  1.00139.15     0.045 C 
ENDBRANCH  10  12
BRANCH   5  21
HETATM   21  N6  MIQ B 502      -4.356   6.399 -15.156  1.00140.95    -0.377 N 
HETATM   22  C7  MIQ B 502      -3.677   5.967 -13.947  1.00142.12     0.149 C 
HETATM   23  C8  MIQ B 502      -2.185   6.272 -13.992  1.00144.10     0.187 C 
HETATM   24  O9  MIQ B 502      -1.585   5.872 -15.188  1.00148.65    -0.388 OA
HETATM   25  C10 MIQ B 502      -2.368   5.463 -16.271  1.00147.44     0.187 C 
HETATM   26  C11 MIQ B 502      -3.756   6.073 -16.439  1.00144.08     0.149 C 
ENDBRANCH   5  21
TORSDOF 2
ENDMDL
MODEL 4
REMARK VINA RESULT:      -7.1      3.992      9.435
REMARK  2 active torsions:
REMARK  status: ('A' for Active; 'I' for Inactive)
REMARK    1  A    between atoms: C5_5  and  N6_21 
REMARK    2  A    between atoms: C18_14  and  N17_19 
ROOT
HETATM    1  O1  MIQ B 502      -4.136   4.413 -17.460  1.00142.91    -0.171 OA
HETATM    2  C2  MIQ B 502      -3.968   5.286 -16.383  1.00141.17     0.195 A 
HETATM    3  C3  MIQ B 502      -5.083   6.151 -15.714  1.00141.71     0.035 A 
HETATM    4  C4  MIQ B 502      -6.534   6.317 -15.968  1.00142.86     0.046 A 
HETATM    5  C5  MIQ B 502      -7.305   7.200 -15.170  1.00139.53     0.031 A 
HETATM    6  C12 MIQ B 502      -6.667   7.946 -14.095  1.00139.38     0.030 A 
HETATM    7  C13 MIQ B 502      -5.276   7.787 -13.851  1.00141.18     0.019 A 
HETATM    8  C14 MIQ B 502      -4.472   6.857 -14.690  1.00138.77     0.033 A 
HETATM    9  C15 MIQ B 502      -2.969   6.426 -14.723  1.00142.10     0.195 A 
HETATM   10  N17 MIQ B 502      -2.861   5.555 -15.712  1.00139.42    -0.288 N 
HETATM   11  O16 MIQ B 502      -1.952   6.877 -13.880  1.00148.93    -0.171 OA
ENDROOT
BRANCH  10  12
HETATM   12  C18 MIQ B 502      -1.587   4.947 -16.050  1.00139.82     0.187 C 
HETATM   13  C19 MIQ B 502      -1.395   5.076 -17.566  1.00140.06     0.247 C 
HETATM   14  O25 MIQ B 502      -1.528   6.131 -18.076  1.00143.95    -0.271 OA
HETATM   15  N20 MIQ B 502      -1.047   3.937 -18.391  1.00140.02    -0.296 N 
HETATM   16  H13 MIQ B 502      -0.931   4.033 -19.381  1.00142.77     0.171 HD
HETATM   17  C21 MIQ B 502      -0.900   2.657 -17.747  1.00142.22     0.224 C 
HETATM   18  C22 MIQ B 502      -1.799   2.387 -16.556  1.00139.52     0.106 C 
HETATM   19  O24 MIQ B 502      -0.113   1.861 -18.127  1.00146.13    -0.273 OA
HETATM   20  C23 MIQ B 502      -1.540   3.501 -15.559  1.00139.15     0.045 C 
ENDBRANCH  10  12
BRANCH   5  21
HETATM   21  N6  MIQ B 502      -8.722   7.363 -15.439  1.00140.95    -0.377 N 
HETATM   22  C7  MIQ B 502      -9.619   7.595 -14.320  1.00142.12     0.149 C 
HETATM   23  C8  MIQ B 502     -11.034   7.116 -14.618  1.00144.10     0.187 C 
HETATM   24  O9  MIQ B 502     -11.504   7.548 -15.859  1.00148.65    -0.388 OA
HETATM   25  C10 MIQ B 502     -10.636   8.148 -16.775  1.00147.44     0.187 C 
HETATM   26  C11 MIQ B 502      -9.169   7.731 -16.771  1.00144.08     0.149 C 
ENDBRANCH   5  21
TORSDOF 2
ENDMDL
MODEL 5
REMARK VINA RESULT:      -7.0      2.303      8.524
REMARK  2 active torsions:
REMARK  status: ('A' for Active; 'I' for Inactive)
REMARK    1  A    between atoms: C5_5  and  N6_21 
REMARK    2  A    between atoms: C18_14  and  N17_19 
ROOT
HETATM    1  O1  MIQ B 502      -1.185   2.516 -14.417  1.00142.91    -0.171 OA
HETATM    2  C2  MIQ B 502      -1.535   2.755 -15.748  1.00141.17     0.195 A 
HETATM    3  C3  MIQ B 502      -2.115   4.086 -16.323  1.00141.71     0.035 A 
HETATM    4  C4  MIQ B 502      -2.449   5.398 -15.719  1.00142.86     0.046 A 
HETATM    5  C5  MIQ B 502      -2.974   6.443 -16.520  1.00139.53     0.031 A 
HETATM    6  C12 MIQ B 502      -3.185   6.226 -17.944  1.00139.38     0.030 A 
HETATM    7  C13 MIQ B 502      -2.864   4.969 -18.524  1.00141.18     0.019 A 
HETATM    8  C14 MIQ B 502      -2.311   3.876 -17.679  1.00138.77     0.033 A 
HETATM    9  C15 MIQ B 502      -1.849   2.406 -17.946  1.00142.10     0.195 A 
HETATM   10  N17 MIQ B 502      -1.448   1.932 -16.778  1.00139.42    -0.288 N 
HETATM   11  O16 MIQ B 502      -1.862   1.736 -19.170  1.00148.93    -0.171 OA
ENDROOT
BRANCH  10  12
HETATM   12  C18 MIQ B 502      -0.960   0.572 -16.640  1.00139.82     0.187 C 
HETATM   13  C19 MIQ B 502      -1.698  -0.072 -15.461  1.00140.06     0.247 C 
HETATM   14  O25 MIQ B 502      -2.876  -0.021 -15.421  1.00143.95    -0.271 OA
HETATM   15  N20 MIQ B 502      -0.990  -0.749 -14.394  1.00140.02    -0.296 N 
HETATM   16  H13 MIQ B 502      -1.483  -1.160 -13.626  1.00142.77     0.171 HD
HETATM   17  C21 MIQ B 502       0.449  -0.790 -14.459  1.00142.22     0.224 C 
HETATM   18  C22 MIQ B 502       1.136   0.411 -15.079  1.00139.52     0.106 C 
HETATM   19  O24 MIQ B 502       1.060  -1.717 -14.054  1.00146.13    -0.273 OA
HETATM   20  C23 MIQ B 502       0.559   0.566 -16.474  1.00139.15     0.045 C 
ENDBRANCH  10  12
BRANCH   5  21
HETATM   21  N6  MIQ B 502      -3.311   7.718 -15.913  1.00140.95    -0.377 N 
HETATM   22  C7  MIQ B 502      -3.107   7.881 -14.484  1.00142.12     0.149 C 
HETATM   23  C8  MIQ B 502      -4.044   8.926 -13.891  1.00144.10     0.187 C 
HETATM   24  O9  MIQ B 502      -4.073  10.111 -14.629  1.00148.65    -0.388 OA
HETATM   25  C10 MIQ B 502      -3.470  10.176 -15.888  1.00147.44     0.187 C 
HETATM   26  C11 MIQ B 502      -3.414   8.910 -16.736  1.00144.08     0.149 C 
ENDBRANCH   5  21
TORSDOF 2
ENDMDL
MODEL 6
REMARK VINA RESULT:      -6.9      3.135      5.645
REMARK  2 active torsions:
REMARK  status: ('A' for Active; 'I' for Inactive)
REMARK    1  A    between atoms: C5_5  and  N6_21 
REMARK    2  A    between atoms: C18_14  and  N17_19 
ROOT
HETATM    1  O1  MIQ B 502      -2.153   6.107 -13.113  1.00142.91    -0.171 OA
HETATM    2  C2  MIQ B 502      -2.719   6.267 -14.380  1.00141.17     0.195 A 
HETATM    3  C3  MIQ B 502      -2.606   5.266 -15.574  1.00141.71     0.035 A 
HETATM    4  C4  MIQ B 502      -1.937   3.955 -15.744  1.00142.86     0.046 A 
HETATM    5  C5  MIQ B 502      -2.016   3.265 -16.980  1.00139.53     0.031 A 
HETATM    6  C12 MIQ B 502      -2.758   3.850 -18.088  1.00139.38     0.030 A 
HETATM    7  C13 MIQ B 502      -3.401   5.107 -17.924  1.00141.18     0.019 A 
HETATM    8  C14 MIQ B 502      -3.317   5.825 -16.623  1.00138.77     0.033 A 
HETATM    9  C15 MIQ B 502      -3.875   7.180 -16.078  1.00142.10     0.195 A 
HETATM   10  N17 MIQ B 502      -3.456   7.269 -14.826  1.00139.42    -0.288 N 
HETATM   11  O16 MIQ B 502      -4.654   8.104 -16.775  1.00148.93    -0.171 OA
ENDROOT
BRANCH  10  12
HETATM   12  C18 MIQ B 502      -3.776   8.420 -14.001  1.00139.82     0.187 C 
HETATM   13  C19 MIQ B 502      -5.292   8.636 -14.067  1.00140.06     0.247 C 
HETATM   14  O25 MIQ B 502      -6.013   7.727 -13.853  1.00143.95    -0.271 OA
HETATM   15  N20 MIQ B 502      -5.867   9.928 -14.379  1.00140.02    -0.296 N 
HETATM   16  H13 MIQ B 502      -6.859  10.055 -14.425  1.00142.77     0.171 HD
HETATM   17  C21 MIQ B 502      -4.967  11.020 -14.647  1.00142.22     0.224 C 
HETATM   18  C22 MIQ B 502      -3.659  10.672 -15.332  1.00139.52     0.106 C 
HETATM   19  O24 MIQ B 502      -5.233  12.130 -14.341  1.00146.13    -0.273 OA
HETATM   20  C23 MIQ B 502      -2.975   9.639 -14.456  1.00139.15     0.045 C 
ENDBRANCH  10  12
BRANCH   5  21
HETATM   21  N6  MIQ B 502      -1.343   1.989 -17.138  1.00140.95    -0.377 N 
HETATM   22  C7  MIQ B 502      -0.370   1.843 -18.207  1.00142.12     0.149 C 
HETATM   23  C8  MIQ B 502      -0.241   0.396 -18.665  1.00144.10     0.187 C 
HETATM   24  O9  MIQ B 502      -0.099  -0.499 -17.604  1.00148.65    -0.388 OA
HETATM   25  C10 MIQ B 502      -0.301  -0.075 -16.288  1.00147.44     0.187 C 
HETATM   26  C11 MIQ B 502      -1.297   1.051 -16.029  1.00144.08     0.149 C 
ENDBRANCH   5  21
TORSDOF 2
ENDMDL
MODEL 7
REMARK VINA RESULT:      -6.8      2.720      4.752
REMARK  2 active torsions:
REMARK  status: ('A' for Active; 'I' for Inactive)
REMARK    1  A    between atoms: C5_5  and  N6_21 
REMARK    2  A    between atoms: C18_14  and  N17_19 
ROOT
HETATM    1  O1  MIQ B 502      -4.407   5.750 -14.431  1.00142.91    -0.171 OA
HETATM    2  C2  MIQ B 502      -3.600   5.979 -15.547  1.00141.17     0.195 A 
HETATM    3  C3  MIQ B 502      -2.415   5.082 -16.028  1.00141.71     0.035 A 
HETATM    4  C4  MIQ B 502      -1.817   3.825 -15.519  1.00142.86     0.046 A 
HETATM    5  C5  MIQ B 502      -0.718   3.232 -16.189  1.00139.53     0.031 A 
HETATM    6  C12 MIQ B 502      -0.175   3.861 -17.384  1.00139.38     0.030 A 
HETATM    7  C13 MIQ B 502      -0.748   5.066 -17.873  1.00141.18     0.019 A 
HETATM    8  C14 MIQ B 502      -1.904   5.683 -17.166  1.00138.77     0.033 A 
HETATM    9  C15 MIQ B 502      -2.777   6.960 -17.395  1.00142.10     0.195 A 
HETATM   10  N17 MIQ B 502      -3.667   6.973 -16.416  1.00139.42    -0.288 N 
HETATM   11  O16 MIQ B 502      -2.639   7.894 -18.423  1.00148.93    -0.171 OA
ENDROOT
BRANCH  10  12
HETATM   12  C18 MIQ B 502      -4.647   8.037 -16.298  1.00139.82     0.187 C 
HETATM   13  C19 MIQ B 502      -4.609   8.550 -14.853  1.00140.06     0.247 C 
HETATM   14  O25 MIQ B 502      -3.573   8.850 -14.375  1.00143.95    -0.271 OA
HETATM   15  N20 MIQ B 502      -5.812   8.681 -14.057  1.00140.02    -0.296 N 
HETATM   16  H13 MIQ B 502      -5.773   9.011 -13.113  1.00142.77     0.171 HD
HETATM   17  C21 MIQ B 502      -7.063   8.298 -14.658  1.00142.22     0.224 C 
HETATM   18  C22 MIQ B 502      -7.021   7.147 -15.644  1.00139.52     0.106 C 
HETATM   19  O24 MIQ B 502      -8.071   8.859 -14.398  1.00146.13    -0.273 OA
HETATM   20  C23 MIQ B 502      -6.027   7.538 -16.722  1.00139.15     0.045 C 
ENDBRANCH  10  12
BRANCH   5  21
HETATM   21  N6  MIQ B 502      -0.133   2.008 -15.671  1.00140.95    -0.377 N 
HETATM   22  C7  MIQ B 502       1.190   1.622 -16.131  1.00142.12     0.149 C 
HETATM   23  C8  MIQ B 502       1.402   0.115 -16.054  1.00144.10     0.187 C 
HETATM   24  O9  MIQ B 502       1.015  -0.425 -14.827  1.00148.65    -0.388 OA
HETATM   25  C10 MIQ B 502       0.303   0.347 -13.906  1.00147.44     0.187 C 
HETATM   26  C11 MIQ B 502      -0.627   1.436 -14.432  1.00144.08     0.149 C 
ENDBRANCH   5  21
TORSDOF 2
ENDMDL
MODEL 8
REMARK VINA RESULT:      -6.8      2.718      8.655
REMARK  2 active torsions:
REMARK  status: ('A' for Active; 'I' for Inactive)
REMARK    1  A    between atoms: C5_5  and  N6_21 
REMARK    2  A    between atoms: C18_14  and  N17_19 
ROOT
HETATM    1  O1  MIQ B 502      -2.535   3.413 -18.271  1.00142.91    -0.171 OA
HETATM    2  C2  MIQ B 502      -2.212   3.499 -16.915  1.00141.17     0.195 A 
HETATM    3  C3  MIQ B 502      -2.466   4.727 -15.983  1.00141.71     0.035 A 
HETATM    4  C4  MIQ B 502      -3.070   6.063 -16.199  1.00142.86     0.046 A 
HETATM    5  C5  MIQ B 502      -3.165   6.988 -15.129  1.00139.53     0.031 A 
HETATM    6  C12 MIQ B 502      -2.667   6.622 -13.811  1.00139.38     0.030 A 
HETATM    7  C13 MIQ B 502      -2.089   5.341 -13.603  1.00141.18     0.019 A 
HETATM    8  C14 MIQ B 502      -1.994   4.373 -14.730  1.00138.77     0.033 A 
HETATM    9  C15 MIQ B 502      -1.444   2.917 -14.885  1.00142.10     0.195 A 
HETATM   10  N17 MIQ B 502      -1.644   2.584 -16.149  1.00139.42    -0.288 N 
HETATM   11  O16 MIQ B 502      -0.860   2.134 -13.888  1.00148.93    -0.171 OA
ENDROOT
BRANCH  10  12
HETATM   12  C18 MIQ B 502      -1.237   1.290 -16.665  1.00139.82     0.187 C 
HETATM   13  C19 MIQ B 502      -1.769   0.217 -15.707  1.00140.06     0.247 C 
HETATM   14  O25 MIQ B 502      -2.909   0.231 -15.402  1.00143.95    -0.271 OA
HETATM   15  N20 MIQ B 502      -0.912  -0.820 -15.169  1.00140.02    -0.296 N 
HETATM   16  H13 MIQ B 502      -1.271  -1.511 -14.540  1.00142.77     0.171 HD
HETATM   17  C21 MIQ B 502       0.477  -0.810 -15.549  1.00142.22     0.224 C 
HETATM   18  C22 MIQ B 502       1.112   0.548 -15.776  1.00139.52     0.106 C 
HETATM   19  O24 MIQ B 502       1.088  -1.813 -15.680  1.00146.13    -0.273 OA
HETATM   20  C23 MIQ B 502       0.280   1.240 -16.840  1.00139.15     0.045 C 
ENDBRANCH  10  12
BRANCH   5  21
HETATM   21  N6  MIQ B 502      -3.746   8.298 -15.359  1.00140.95    -0.377 N 
HETATM   22  C7  MIQ B 502      -4.314   9.014 -14.229  1.00142.12     0.149 C 
HETATM   23  C8  MIQ B 502      -5.404   9.987 -14.662  1.00144.10     0.187 C 
HETATM   24  O9  MIQ B 502      -5.022  10.784 -15.743  1.00148.65    -0.388 OA
HETATM   25  C10 MIQ B 502      -3.849  10.504 -16.449  1.00147.44     0.187 C 
HETATM   26  C11 MIQ B 502      -3.382   9.055 -16.544  1.00144.08     0.149 C 
ENDBRANCH   5  21
TORSDOF 2
ENDMDL
MODEL 9
REMARK VINA RESULT:      -6.7      3.390      8.192
REMARK  2 active torsions:
REMARK  status: ('A' for Active; 'I' for Inactive)
REMARK    1  A    between atoms: C5_5  and  N6_21 
REMARK    2  A    between atoms: C18_14  and  N17_19 
ROOT
HETATM    1  O1  MIQ B 502      -0.641   3.876 -18.048  1.00142.91    -0.171 OA
HETATM    2  C2  MIQ B 502      -1.004   3.723 -16.707  1.00141.17     0.195 A 
HETATM    3  C3  MIQ B 502      -1.694   4.800 -15.810  1.00141.71     0.035 A 
HETATM    4  C4  MIQ B 502      -2.149   6.189 -16.054  1.00142.86     0.046 A 
HETATM    5  C5  MIQ B 502      -2.759   6.936 -15.014  1.00139.53     0.031 A 
HETATM    6  C12 MIQ B 502      -2.940   6.333 -13.702  1.00139.38     0.030 A 
HETATM    7  C13 MIQ B 502      -2.505   5.000 -13.468  1.00141.18     0.019 A 
HETATM    8  C14 MIQ B 502      -1.867   4.221 -14.564  1.00138.77     0.033 A 
HETATM    9  C15 MIQ B 502      -1.282   2.776 -14.688  1.00142.10     0.195 A 
HETATM   10  N17 MIQ B 502      -0.850   2.663 -15.933  1.00139.42    -0.288 N 
HETATM   11  O16 MIQ B 502      -1.226   1.808 -13.684  1.00148.93    -0.171 OA
ENDROOT
BRANCH  10  12
HETATM   12  C18 MIQ B 502      -0.222   1.444 -16.409  1.00139.82     0.187 C 
HETATM   13  C19 MIQ B 502       1.147   1.819 -16.990  1.00140.06     0.247 C 
HETATM   14  O25 MIQ B 502       1.887   2.472 -16.345  1.00143.95    -0.271 OA
HETATM   15  N20 MIQ B 502       1.560   1.388 -18.310  1.00140.02    -0.296 N 
HETATM   16  H13 MIQ B 502       2.454   1.645 -18.680  1.00142.77     0.171 HD
HETATM   17  C21 MIQ B 502       0.635   0.600 -19.083  1.00142.22     0.224 C 
HETATM   18  C22 MIQ B 502      -0.839   0.903 -18.896  1.00139.52     0.106 C 
HETATM   19  O24 MIQ B 502       1.009  -0.243 -19.822  1.00146.13    -0.273 OA
HETATM   20  C23 MIQ B 502      -1.129   0.737 -17.415  1.00139.15     0.045 C 
ENDBRANCH  10  12
BRANCH   5  21
HETATM   21  N6  MIQ B 502      -3.186   8.301 -15.262  1.00140.95    -0.377 N 
HETATM   22  C7  MIQ B 502      -3.379   8.730 -16.637  1.00142.12     0.149 C 
HETATM   23  C8  MIQ B 502      -3.184  10.232 -16.797  1.00144.10     0.187 C 
HETATM   24  O9  MIQ B 502      -3.874  10.975 -15.838  1.00148.65    -0.388 OA
HETATM   25  C10 MIQ B 502      -4.465  10.341 -14.742  1.00147.44     0.187 C 
HETATM   26  C11 MIQ B 502      -3.824   9.065 -14.205  1.00144.08     0.149 C 
ENDBRANCH   5  21
TORSDOF 2
ENDMDL
