MODEL 1
REMARK VINA RESULT:      -5.9      0.000      0.000
REMARK  2 active torsions:
REMARK  status: ('A' for Active; 'I' for Inactive)
REMARK    1  A    between atoms: C5_5  and  N6_21 
REMARK    2  A    between atoms: C18_14  and  N17_19 
ROOT
HETATM    1  O1  MIQ B 502      -1.130 -18.885  13.044  1.00142.91    -0.171 OA
HETATM    2  C2  MIQ B 502      -2.403 -18.413  13.371  1.00141.17     0.195 A 
HETATM    3  C3  MIQ B 502      -2.747 -17.393  14.503  1.00141.71     0.035 A 
HETATM    4  C4  MIQ B 502      -1.927 -16.662  15.498  1.00142.86     0.046 A 
HETATM    5  C5  MIQ B 502      -2.541 -15.778  16.422  1.00139.53     0.031 A 
HETATM    6  C12 MIQ B 502      -3.984 -15.589  16.391  1.00139.38     0.030 A 
HETATM    7  C13 MIQ B 502      -4.770 -16.290  15.436  1.00141.18     0.019 A 
HETATM    8  C14 MIQ B 502      -4.120 -17.214  14.468  1.00138.77     0.033 A 
HETATM    9  C15 MIQ B 502      -4.632 -18.127  13.307  1.00142.10     0.195 A 
HETATM   10  N17 MIQ B 502      -3.559 -18.716  12.805  1.00139.42    -0.288 N 
HETATM   11  O16 MIQ B 502      -5.955 -18.287  12.890  1.00148.93    -0.171 OA
ENDROOT
BRANCH  10  12
HETATM   12  C18 MIQ B 502      -3.657 -19.660  11.706  1.00139.82     0.187 C 
HETATM   13  C19 MIQ B 502      -2.911 -20.935  12.118  1.00140.06     0.247 C 
HETATM   14  O25 MIQ B 502      -3.161 -21.439  13.154  1.00143.95    -0.271 OA
HETATM   15  N20 MIQ B 502      -1.911 -21.544  11.265  1.00140.02    -0.296 N 
HETATM   16  H13 MIQ B 502      -1.426 -22.373  11.548  1.00142.77     0.171 HD
HETATM   17  C21 MIQ B 502      -1.616 -20.904  10.009  1.00142.22     0.224 C 
HETATM   18  C22 MIQ B 502      -1.709 -19.390   9.976  1.00139.52     0.106 C 
HETATM   19  O24 MIQ B 502      -1.321 -21.530   9.051  1.00146.13    -0.273 OA
HETATM   20  C23 MIQ B 502      -3.117 -19.036  10.420  1.00139.15     0.045 C 
ENDBRANCH  10  12
BRANCH   5  21
HETATM   21  N6  MIQ B 502      -1.728 -15.080  17.401  1.00140.95    -0.377 N 
HETATM   22  C7  MIQ B 502      -0.555 -14.357  16.940  1.00142.12     0.149 C 
HETATM   23  C8  MIQ B 502       0.506 -14.242  18.028  1.00144.10     0.187 C 
HETATM   24  O9  MIQ B 502      -0.015 -13.817  19.252  1.00148.65    -0.388 OA
HETATM   25  C10 MIQ B 502      -1.397 -13.752  19.449  1.00147.44     0.187 C 
HETATM   26  C11 MIQ B 502      -2.288 -14.734  18.695  1.00144.08     0.149 C 
ENDBRANCH   5  21
TORSDOF 2
ENDMDL
MODEL 2
REMARK VINA RESULT:      -5.9     21.327     24.382
REMARK  2 active torsions:
REMARK  status: ('A' for Active; 'I' for Inactive)
REMARK    1  A    between atoms: C5_5  and  N6_21 
REMARK    2  A    between atoms: C18_14  and  N17_19 
ROOT
HETATM    1  O1  MIQ B 502      18.881 -24.644  11.947  1.00142.91    -0.171 OA
HETATM    2  C2  MIQ B 502      18.403 -25.949  11.810  1.00141.17     0.195 A 
HETATM    3  C3  MIQ B 502      18.657 -26.902  10.599  1.00141.71     0.035 A 
HETATM    4  C4  MIQ B 502      19.409 -26.758   9.329  1.00142.86     0.046 A 
HETATM    5  C5  MIQ B 502      19.459 -27.828   8.401  1.00139.53     0.031 A 
HETATM    6  C12 MIQ B 502      18.770 -29.076   8.698  1.00139.38     0.030 A 
HETATM    7  C13 MIQ B 502      18.050 -29.214   9.915  1.00141.18     0.019 A 
HETATM    8  C14 MIQ B 502      18.002 -28.088  10.887  1.00138.77     0.033 A 
HETATM    9  C15 MIQ B 502      17.339 -27.871  12.286  1.00142.10     0.195 A 
HETATM   10  N17 MIQ B 502      17.660 -26.642  12.656  1.00139.42    -0.288 N 
HETATM   11  O16 MIQ B 502      16.564 -28.790  12.996  1.00148.93    -0.171 OA
ENDROOT
BRANCH  10  12
HETATM   12  C18 MIQ B 502      17.198 -26.084  13.913  1.00139.82     0.187 C 
HETATM   13  C19 MIQ B 502      16.454 -24.780  13.601  1.00140.06     0.247 C 
HETATM   14  O25 MIQ B 502      15.604 -24.783  12.783  1.00143.95    -0.271 OA
HETATM   15  N20 MIQ B 502      16.761 -23.542  14.289  1.00140.02    -0.296 N 
HETATM   16  H13 MIQ B 502      16.272 -22.696  14.071  1.00142.77     0.171 HD
HETATM   17  C21 MIQ B 502      17.809 -23.562  15.277  1.00142.22     0.224 C 
HETATM   18  C22 MIQ B 502      18.968 -24.505  15.021  1.00139.52     0.106 C 
HETATM   19  O24 MIQ B 502      17.762 -22.879  16.240  1.00146.13    -0.273 OA
HETATM   20  C23 MIQ B 502      18.371 -25.892  14.873  1.00139.15     0.045 C 
ENDBRANCH  10  12
BRANCH   5  21
HETATM   21  N6  MIQ B 502      20.187 -27.668   7.155  1.00140.95    -0.377 N 
HETATM   22  C7  MIQ B 502      20.645 -26.341   6.784  1.00142.12     0.149 C 
HETATM   23  C8  MIQ B 502      20.785 -26.189   5.275  1.00144.10     0.187 C 
HETATM   24  O9  MIQ B 502      21.480 -27.246   4.684  1.00148.65    -0.388 OA
HETATM   25  C10 MIQ B 502      21.776 -28.397   5.420  1.00147.44     0.187 C 
HETATM   26  C11 MIQ B 502      20.821 -28.817   6.533  1.00144.08     0.149 C 
ENDBRANCH   5  21
TORSDOF 2
ENDMDL
MODEL 3
REMARK VINA RESULT:      -5.8     22.951     26.129
REMARK  2 active torsions:
REMARK  status: ('A' for Active; 'I' for Inactive)
REMARK    1  A    between atoms: C5_5  and  N6_21 
REMARK    2  A    between atoms: C18_14  and  N17_19 
ROOT
HETATM    1  O1  MIQ B 502       6.379 -25.733  -8.325  1.00142.91    -0.171 OA
HETATM    2  C2  MIQ B 502       6.697 -26.818  -7.506  1.00141.17     0.195 A 
HETATM    3  C3  MIQ B 502       8.131 -27.370  -7.222  1.00141.71     0.035 A 
HETATM    4  C4  MIQ B 502       9.485 -26.970  -7.673  1.00142.86     0.046 A 
HETATM    5  C5  MIQ B 502      10.627 -27.683  -7.231  1.00139.53     0.031 A 
HETATM    6  C12 MIQ B 502      10.468 -28.815  -6.328  1.00139.38     0.030 A 
HETATM    7  C13 MIQ B 502       9.170 -29.198  -5.895  1.00141.18     0.019 A 
HETATM    8  C14 MIQ B 502       7.975 -28.444  -6.360  1.00138.77     0.033 A 
HETATM    9  C15 MIQ B 502       6.436 -28.559  -6.108  1.00142.10     0.195 A 
HETATM   10  N17 MIQ B 502       5.877 -27.587  -6.811  1.00139.42    -0.288 N 
HETATM   11  O16 MIQ B 502       5.788 -29.499  -5.305  1.00148.93    -0.171 OA
ENDROOT
BRANCH  10  12
HETATM   12  C18 MIQ B 502       4.439 -27.396  -6.829  1.00139.82     0.187 C 
HETATM   13  C19 MIQ B 502       3.968 -27.251  -5.376  1.00140.06     0.247 C 
HETATM   14  O25 MIQ B 502       4.506 -26.473  -4.671  1.00143.95    -0.271 OA
HETATM   15  N20 MIQ B 502       2.874 -28.039  -4.845  1.00140.02    -0.296 N 
HETATM   16  H13 MIQ B 502       2.581 -27.939  -3.894  1.00142.77     0.171 HD
HETATM   17  C21 MIQ B 502       2.240 -28.989  -5.722  1.00142.22     0.224 C 
HETATM   18  C22 MIQ B 502       3.125 -29.660  -6.754  1.00139.52     0.106 C 
HETATM   19  O24 MIQ B 502       1.085 -29.227  -5.643  1.00146.13    -0.273 OA
HETATM   20  C23 MIQ B 502       3.759 -28.547  -7.569  1.00139.15     0.045 C 
ENDBRANCH  10  12
BRANCH   5  21
HETATM   21  N6  MIQ B 502      11.946 -27.290  -7.692  1.00140.95    -0.377 N 
HETATM   22  C7  MIQ B 502      12.427 -25.958  -7.366  1.00142.12     0.149 C 
HETATM   23  C8  MIQ B 502      13.442 -25.455  -8.385  1.00144.10     0.187 C 
HETATM   24  O9  MIQ B 502      14.435 -26.395  -8.672  1.00148.65    -0.388 OA
HETATM   25  C10 MIQ B 502      14.314 -27.712  -8.221  1.00147.44     0.187 C 
HETATM   26  C11 MIQ B 502      12.918 -28.304  -8.062  1.00144.08     0.149 C 
ENDBRANCH   5  21
TORSDOF 2
ENDMDL
MODEL 4
REMARK VINA RESULT:      -5.7     24.622     26.925
REMARK  2 active torsions:
REMARK  status: ('A' for Active; 'I' for Inactive)
REMARK    1  A    between atoms: C5_5  and  N6_21 
REMARK    2  A    between atoms: C18_14  and  N17_19 
ROOT
HETATM    1  O1  MIQ B 502      10.882 -20.768  -9.971  1.00142.91    -0.171 OA
HETATM    2  C2  MIQ B 502      10.394 -19.967  -8.936  1.00141.17     0.195 A 
HETATM    3  C3  MIQ B 502      10.880 -18.526  -8.578  1.00141.71     0.035 A 
HETATM    4  C4  MIQ B 502      11.906 -17.624  -9.153  1.00142.86     0.046 A 
HETATM    5  C5  MIQ B 502      12.123 -16.339  -8.596  1.00139.53     0.031 A 
HETATM    6  C12 MIQ B 502      11.333 -15.903  -7.453  1.00139.38     0.030 A 
HETATM    7  C13 MIQ B 502      10.349 -16.768  -6.902  1.00141.18     0.019 A 
HETATM    8  C14 MIQ B 502      10.124 -18.115  -7.492  1.00138.77     0.033 A 
HETATM    9  C15 MIQ B 502       9.162 -19.307  -7.176  1.00142.10     0.195 A 
HETATM   10  N17 MIQ B 502       9.439 -20.246  -8.066  1.00139.42    -0.288 N 
HETATM   11  O16 MIQ B 502       8.209 -19.364  -6.157  1.00148.93    -0.171 OA
ENDROOT
BRANCH  10  12
HETATM   12  C18 MIQ B 502       8.743 -21.519  -8.065  1.00139.82     0.187 C 
HETATM   13  C19 MIQ B 502       9.798 -22.630  -8.119  1.00140.06     0.247 C 
HETATM   14  O25 MIQ B 502      10.689 -22.615  -7.346  1.00143.95    -0.271 OA
HETATM   15  N20 MIQ B 502       9.730 -23.702  -9.090  1.00140.02    -0.296 N 
HETATM   16  H13 MIQ B 502      10.429 -24.418  -9.119  1.00142.77     0.171 HD
HETATM   17  C21 MIQ B 502       8.638 -23.693 -10.030  1.00142.22     0.224 C 
HETATM   18  C22 MIQ B 502       8.139 -22.333 -10.480  1.00139.52     0.106 C 
HETATM   19  O24 MIQ B 502       8.154 -24.696 -10.425  1.00146.13    -0.273 OA
HETATM   20  C23 MIQ B 502       7.746 -21.580  -9.222  1.00139.15     0.045 C 
ENDBRANCH  10  12
BRANCH   5  21
HETATM   21  N6  MIQ B 502      13.141 -15.471  -9.161  1.00140.95    -0.377 N 
HETATM   22  C7  MIQ B 502      14.001 -15.999 -10.206  1.00142.12     0.149 C 
HETATM   23  C8  MIQ B 502      15.350 -15.292 -10.242  1.00144.10     0.187 C 
HETATM   24  O9  MIQ B 502      15.236 -13.901 -10.209  1.00148.65    -0.388 OA
HETATM   25  C10 MIQ B 502      14.007 -13.298  -9.932  1.00147.44     0.187 C 
HETATM   26  C11 MIQ B 502      13.023 -14.030  -9.025  1.00144.08     0.149 C 
ENDBRANCH   5  21
TORSDOF 2
ENDMDL
MODEL 5
REMARK VINA RESULT:      -5.7     24.031     26.999
REMARK  2 active torsions:
REMARK  status: ('A' for Active; 'I' for Inactive)
REMARK    1  A    between atoms: C5_5  and  N6_21 
REMARK    2  A    between atoms: C18_14  and  N17_19 
ROOT
HETATM    1  O1  MIQ B 502      12.864 -18.972  -8.821  1.00142.91    -0.171 OA
HETATM    2  C2  MIQ B 502      11.845 -18.733  -7.896  1.00141.17     0.195 A 
HETATM    3  C3  MIQ B 502      10.478 -19.485  -7.815  1.00141.71     0.035 A 
HETATM    4  C4  MIQ B 502       9.872 -20.584  -8.603  1.00142.86     0.046 A 
HETATM    5  C5  MIQ B 502       8.579 -21.069  -8.280  1.00139.53     0.031 A 
HETATM    6  C12 MIQ B 502       7.845 -20.483  -7.168  1.00139.38     0.030 A 
HETATM    7  C13 MIQ B 502       8.426 -19.430  -6.412  1.00141.18     0.019 A 
HETATM    8  C14 MIQ B 502       9.785 -18.927  -6.754  1.00138.77     0.033 A 
HETATM    9  C15 MIQ B 502      10.727 -17.823  -6.172  1.00142.10     0.195 A 
HETATM   10  N17 MIQ B 502      11.822 -17.849  -6.914  1.00139.42    -0.288 N 
HETATM   11  O16 MIQ B 502      10.460 -16.982  -5.090  1.00148.93    -0.171 OA
ENDROOT
BRANCH  10  12
HETATM   12  C18 MIQ B 502      12.923 -16.937  -6.670  1.00139.82     0.187 C 
HETATM   13  C19 MIQ B 502      13.251 -16.235  -7.994  1.00140.06     0.247 C 
HETATM   14  O25 MIQ B 502      12.382 -15.722  -8.604  1.00143.95    -0.271 OA
HETATM   15  N20 MIQ B 502      14.602 -16.178  -8.514  1.00140.02    -0.296 N 
HETATM   16  H13 MIQ B 502      14.802 -15.723  -9.383  1.00142.77     0.171 HD
HETATM   17  C21 MIQ B 502      15.644 -16.821  -7.756  1.00142.22     0.224 C 
HETATM   18  C22 MIQ B 502      15.259 -18.075  -6.995  1.00139.52     0.106 C 
HETATM   19  O24 MIQ B 502      16.743 -16.387  -7.725  1.00146.13    -0.273 OA
HETATM   20  C23 MIQ B 502      14.114 -17.688  -6.077  1.00139.15     0.045 C 
ENDBRANCH  10  12
BRANCH   5  21
HETATM   21  N6  MIQ B 502       7.991 -22.135  -9.070  1.00140.95    -0.377 N 
HETATM   22  C7  MIQ B 502       7.111 -21.781 -10.170  1.00142.12     0.149 C 
HETATM   23  C8  MIQ B 502       6.105 -22.885 -10.472  1.00144.10     0.187 C 
HETATM   24  O9  MIQ B 502       6.694 -24.147 -10.561  1.00148.65    -0.388 OA
HETATM   25  C10 MIQ B 502       8.022 -24.338 -10.172  1.00147.44     0.187 C 
HETATM   26  C11 MIQ B 502       8.591 -23.458  -9.064  1.00144.08     0.149 C 
ENDBRANCH   5  21
TORSDOF 2
ENDMDL
MODEL 6
REMARK VINA RESULT:      -5.6      4.801      7.455
REMARK  2 active torsions:
REMARK  status: ('A' for Active; 'I' for Inactive)
REMARK    1  A    between atoms: C5_5  and  N6_21 
REMARK    2  A    between atoms: C18_14  and  N17_19 
ROOT
HETATM    1  O1  MIQ B 502      -1.884 -21.394  12.831  1.00142.91    -0.171 OA
HETATM    2  C2  MIQ B 502      -3.191 -21.347  12.340  1.00141.17     0.195 A 
HETATM    3  C3  MIQ B 502      -4.414 -22.146  12.893  1.00141.71     0.035 A 
HETATM    4  C4  MIQ B 502      -4.581 -23.113  14.003  1.00142.86     0.046 A 
HETATM    5  C5  MIQ B 502      -5.850 -23.686  14.270  1.00139.53     0.031 A 
HETATM    6  C12 MIQ B 502      -6.995 -23.320  13.448  1.00139.38     0.030 A 
HETATM    7  C13 MIQ B 502      -6.835 -22.392  12.384  1.00141.18     0.019 A 
HETATM    8  C14 MIQ B 502      -5.501 -21.792  12.110  1.00138.77     0.033 A 
HETATM    9  C15 MIQ B 502      -4.950 -20.767  11.066  1.00142.10     0.195 A 
HETATM   10  N17 MIQ B 502      -3.661 -20.631  11.333  1.00139.42    -0.288 N 
HETATM   11  O16 MIQ B 502      -5.674 -20.131  10.057  1.00148.93    -0.171 OA
ENDROOT
BRANCH  10  12
HETATM   12  C18 MIQ B 502      -2.813 -19.758  10.544  1.00139.82     0.187 C 
HETATM   13  C19 MIQ B 502      -1.581 -20.565  10.114  1.00140.06     0.247 C 
HETATM   14  O25 MIQ B 502      -1.732 -21.615   9.599  1.00143.95    -0.271 OA
HETATM   15  N20 MIQ B 502      -0.235 -20.071  10.319  1.00140.02    -0.296 N 
HETATM   16  H13 MIQ B 502       0.561 -20.610  10.040  1.00142.77     0.171 HD
HETATM   17  C21 MIQ B 502      -0.076 -18.790  10.959  1.00142.22     0.224 C 
HETATM   18  C22 MIQ B 502      -1.104 -18.424  12.013  1.00139.52     0.106 C 
HETATM   19  O24 MIQ B 502       0.809 -18.061  10.673  1.00146.13    -0.273 OA
HETATM   20  C23 MIQ B 502      -2.461 -18.500  11.337  1.00139.15     0.045 C 
ENDBRANCH  10  12
BRANCH   5  21
HETATM   21  N6  MIQ B 502      -5.997 -24.643  15.351  1.00140.95    -0.377 N 
HETATM   22  C7  MIQ B 502      -6.393 -24.156  16.661  1.00142.12     0.149 C 
HETATM   23  C8  MIQ B 502      -5.899 -25.064  17.779  1.00144.10     0.187 C 
HETATM   24  O9  MIQ B 502      -6.163 -26.414  17.540  1.00148.65    -0.388 OA
HETATM   25  C10 MIQ B 502      -6.618 -26.835  16.287  1.00147.44     0.187 C 
HETATM   26  C11 MIQ B 502      -6.184 -26.052  15.053  1.00144.08     0.149 C 
ENDBRANCH   5  21
TORSDOF 2
ENDMDL
MODEL 7
REMARK VINA RESULT:      -5.6     23.887     26.813
REMARK  2 active torsions:
REMARK  status: ('A' for Active; 'I' for Inactive)
REMARK    1  A    between atoms: C5_5  and  N6_21 
REMARK    2  A    between atoms: C18_14  and  N17_19 
ROOT
HETATM    1  O1  MIQ B 502       8.525 -29.117  -5.402  1.00142.91    -0.171 OA
HETATM    2  C2  MIQ B 502       8.399 -28.133  -6.384  1.00141.17     0.195 A 
HETATM    3  C3  MIQ B 502       9.571 -27.373  -7.084  1.00141.71     0.035 A 
HETATM    4  C4  MIQ B 502      11.047 -27.437  -6.956  1.00142.86     0.046 A 
HETATM    5  C5  MIQ B 502      11.871 -26.600  -7.750  1.00139.53     0.031 A 
HETATM    6  C12 MIQ B 502      11.264 -25.673  -8.694  1.00139.38     0.030 A 
HETATM    7  C13 MIQ B 502       9.850 -25.613  -8.817  1.00141.18     0.019 A 
HETATM    8  C14 MIQ B 502       8.989 -26.496  -7.984  1.00138.77     0.033 A 
HETATM    9  C15 MIQ B 502       7.447 -26.712  -7.843  1.00142.10     0.195 A 
HETATM   10  N17 MIQ B 502       7.293 -27.650  -6.922  1.00139.42    -0.288 N 
HETATM   11  O16 MIQ B 502       6.442 -26.047  -8.547  1.00148.93    -0.171 OA
ENDROOT
BRANCH  10  12
HETATM   12  C18 MIQ B 502       5.975 -28.102  -6.515  1.00139.82     0.187 C 
HETATM   13  C19 MIQ B 502       5.193 -28.464  -7.783  1.00140.06     0.247 C 
HETATM   14  O25 MIQ B 502       5.682 -29.190  -8.574  1.00143.95    -0.271 OA
HETATM   15  N20 MIQ B 502       3.864 -27.945  -8.036  1.00140.02    -0.296 N 
HETATM   16  H13 MIQ B 502       3.367 -28.184  -8.871  1.00142.77     0.171 HD
HETATM   17  C21 MIQ B 502       3.292 -27.053  -7.060  1.00142.22     0.224 C 
HETATM   18  C22 MIQ B 502       4.254 -26.137  -6.328  1.00139.52     0.106 C 
HETATM   19  O24 MIQ B 502       2.131 -27.041  -6.840  1.00146.13    -0.273 OA
HETATM   20  C23 MIQ B 502       5.285 -27.034  -5.668  1.00139.15     0.045 C 
ENDBRANCH  10  12
BRANCH   5  21
HETATM   21  N6  MIQ B 502      13.314 -26.662  -7.604  1.00140.95    -0.377 N 
HETATM   22  C7  MIQ B 502      14.010 -27.845  -8.081  1.00142.12     0.149 C 
HETATM   23  C8  MIQ B 502      15.315 -28.078  -7.331  1.00144.10     0.187 C 
HETATM   24  O9  MIQ B 502      16.097 -26.926  -7.229  1.00148.65    -0.388 OA
HETATM   25  C10 MIQ B 502      15.574 -25.681  -7.588  1.00147.44     0.187 C 
HETATM   26  C11 MIQ B 502      14.078 -25.441  -7.414  1.00144.08     0.149 C 
ENDBRANCH   5  21
TORSDOF 2
ENDMDL
MODEL 8
REMARK VINA RESULT:      -5.6     22.838     26.310
REMARK  2 active torsions:
REMARK  status: ('A' for Active; 'I' for Inactive)
REMARK    1  A    between atoms: C5_5  and  N6_21 
REMARK    2  A    between atoms: C18_14  and  N17_19 
ROOT
HETATM    1  O1  MIQ B 502       6.266 -28.753  -5.834  1.00142.91    -0.171 OA
HETATM    2  C2  MIQ B 502       6.456 -27.729  -6.764  1.00141.17     0.195 A 
HETATM    3  C3  MIQ B 502       7.806 -27.339  -7.445  1.00141.71     0.035 A 
HETATM    4  C4  MIQ B 502       9.187 -27.869  -7.346  1.00142.86     0.046 A 
HETATM    5  C5  MIQ B 502      10.232 -27.292  -8.111  1.00139.53     0.031 A 
HETATM    6  C12 MIQ B 502       9.947 -26.173  -8.997  1.00139.38     0.030 A 
HETATM    7  C13 MIQ B 502       8.623 -25.666  -9.093  1.00141.18     0.019 A 
HETATM    8  C14 MIQ B 502       7.529 -26.277  -8.290  1.00138.77     0.033 A 
HETATM    9  C15 MIQ B 502       5.997 -26.006  -8.133  1.00142.10     0.195 A 
HETATM   10  N17 MIQ B 502       5.556 -26.895  -7.258  1.00139.42    -0.288 N 
HETATM   11  O16 MIQ B 502       5.251 -25.022  -8.785  1.00148.93    -0.171 OA
ENDROOT
BRANCH  10  12
HETATM   12  C18 MIQ B 502       4.164 -26.932  -6.852  1.00139.82     0.187 C 
HETATM   13  C19 MIQ B 502       4.124 -26.941  -5.319  1.00140.06     0.247 C 
HETATM   14  O25 MIQ B 502       4.736 -26.128  -4.722  1.00143.95    -0.271 OA
HETATM   15  N20 MIQ B 502       3.351 -27.919  -4.581  1.00140.02    -0.296 N 
HETATM   16  H13 MIQ B 502       3.339 -27.918  -3.580  1.00142.77     0.171 HD
HETATM   17  C21 MIQ B 502       2.621 -28.908  -5.332  1.00142.22     0.224 C 
HETATM   18  C22 MIQ B 502       3.247 -29.375  -6.632  1.00139.52     0.106 C 
HETATM   19  O24 MIQ B 502       1.583 -29.329  -4.954  1.00146.13    -0.273 OA
HETATM   20  C23 MIQ B 502       3.459 -28.133  -7.479  1.00139.15     0.045 C 
ENDBRANCH  10  12
BRANCH   5  21
HETATM   21  N6  MIQ B 502      11.583 -27.811  -7.993  1.00140.95    -0.377 N 
HETATM   22  C7  MIQ B 502      11.917 -29.040  -8.692  1.00142.12     0.149 C 
HETATM   23  C8  MIQ B 502      13.056 -29.789  -8.012  1.00144.10     0.187 C 
HETATM   24  O9  MIQ B 502      14.140 -28.965  -7.702  1.00148.65    -0.388 OA
HETATM   25  C10 MIQ B 502      14.028 -27.577  -7.814  1.00147.44     0.187 C 
HETATM   26  C11 MIQ B 502      12.665 -26.934  -7.583  1.00144.08     0.149 C 
ENDBRANCH   5  21
TORSDOF 2
ENDMDL
MODEL 9
REMARK VINA RESULT:      -5.5     24.186     26.862
REMARK  2 active torsions:
REMARK  status: ('A' for Active; 'I' for Inactive)
REMARK    1  A    between atoms: C5_5  and  N6_21 
REMARK    2  A    between atoms: C18_14  and  N17_19 
ROOT
HETATM    1  O1  MIQ B 502      22.274 -28.038   4.604  1.00142.91    -0.171 OA
HETATM    2  C2  MIQ B 502      21.430 -28.253   5.696  1.00141.17     0.195 A 
HETATM    3  C3  MIQ B 502      20.836 -27.153   6.632  1.00141.71     0.035 A 
HETATM    4  C4  MIQ B 502      20.953 -25.675   6.671  1.00142.86     0.046 A 
HETATM    5  C5  MIQ B 502      20.276 -24.929   7.668  1.00139.53     0.031 A 
HETATM    6  C12 MIQ B 502      19.462 -25.618   8.659  1.00139.38     0.030 A 
HETATM    7  C13 MIQ B 502      19.349 -27.034   8.622  1.00141.18     0.019 A 
HETATM    8  C14 MIQ B 502      20.059 -27.813   7.571  1.00138.77     0.033 A 
HETATM    9  C15 MIQ B 502      20.171 -29.331   7.214  1.00142.10     0.195 A 
HETATM   10  N17 MIQ B 502      20.961 -29.400   6.155  1.00139.42    -0.288 N 
HETATM   11  O16 MIQ B 502      19.562 -30.394   7.884  1.00148.93    -0.171 OA
ENDROOT
BRANCH  10  12
HETATM   12  C18 MIQ B 502      21.305 -30.673   5.549  1.00139.82     0.187 C 
HETATM   13  C19 MIQ B 502      22.834 -30.742   5.444  1.00140.06     0.247 C 
HETATM   14  O25 MIQ B 502      23.487 -30.519   6.401  1.00143.95    -0.271 OA
HETATM   15  N20 MIQ B 502      23.500 -31.082   4.204  1.00140.02    -0.296 N 
HETATM   16  H13 MIQ B 502      24.498 -31.117   4.147  1.00142.77     0.171 HD
HETATM   17  C21 MIQ B 502      22.681 -31.340   3.047  1.00142.22     0.224 C 
HETATM   18  C22 MIQ B 502      21.392 -30.549   2.935  1.00139.52     0.106 C 
HETATM   19  O24 MIQ B 502      22.997 -32.134   2.231  1.00146.13    -0.273 OA
HETATM   20  C23 MIQ B 502      20.603 -30.828   4.201  1.00139.15     0.045 C 
ENDBRANCH  10  12
BRANCH   5  21
HETATM   21  N6  MIQ B 502      20.412 -23.484   7.704  1.00140.95    -0.377 N 
HETATM   22  C7  MIQ B 502      20.338 -22.810   8.989  1.00142.12     0.149 C 
HETATM   23  C8  MIQ B 502      19.853 -21.373   8.850  1.00144.10     0.187 C 
HETATM   24  O9  MIQ B 502      20.520 -20.669   7.845  1.00148.65    -0.388 OA
HETATM   25  C10 MIQ B 502      21.357 -21.339   6.949  1.00147.44     0.187 C 
HETATM   26  C11 MIQ B 502      21.036 -22.787   6.593  1.00144.08     0.149 C 
ENDBRANCH   5  21
TORSDOF 2
ENDMDL
