MODEL 1
REMARK VINA RESULT:      -7.4      0.000      0.000
REMARK  2 active torsions:
REMARK  status: ('A' for Active; 'I' for Inactive)
REMARK    1  A    between atoms: C5_5  and  N6_21 
REMARK    2  A    between atoms: C18_14  and  N17_19 
ROOT
HETATM    1  O1  MIQ B 502       0.857 -10.195 -21.863  1.00142.91    -0.171 OA
HETATM    2  C2  MIQ B 502       2.170  -9.834 -21.553  1.00141.17     0.195 A 
HETATM    3  C3  MIQ B 502       3.214  -9.218 -22.538  1.00141.71     0.035 A 
HETATM    4  C4  MIQ B 502       3.167  -8.848 -23.972  1.00142.86     0.046 A 
HETATM    5  C5  MIQ B 502       4.307  -8.293 -24.607  1.00139.53     0.031 A 
HETATM    6  C12 MIQ B 502       5.530  -8.085 -23.843  1.00139.38     0.030 A 
HETATM    7  C13 MIQ B 502       5.574  -8.438 -22.468  1.00141.18     0.019 A 
HETATM    8  C14 MIQ B 502       4.374  -9.018 -21.806  1.00138.77     0.033 A 
HETATM    9  C15 MIQ B 502       4.047  -9.512 -20.359  1.00142.10     0.195 A 
HETATM   10  N17 MIQ B 502       2.791  -9.927 -20.390  1.00139.42    -0.288 N 
HETATM   11  O16 MIQ B 502       4.910  -9.515 -19.262  1.00148.93    -0.171 OA
ENDROOT
BRANCH  10  12
HETATM   12  C18 MIQ B 502       2.146 -10.475 -19.211  1.00139.82     0.187 C 
HETATM   13  C19 MIQ B 502       1.503 -11.809 -19.607  1.00140.06     0.247 C 
HETATM   14  O25 MIQ B 502       2.153 -12.618 -20.169  1.00143.95    -0.271 OA
HETATM   15  N20 MIQ B 502       0.118 -12.109 -19.307  1.00140.02    -0.296 N 
HETATM   16  H13 MIQ B 502      -0.292 -12.982 -19.576  1.00142.77     0.171 HD
HETATM   17  C21 MIQ B 502      -0.659 -11.102 -18.630  1.00142.22     0.224 C 
HETATM   18  C22 MIQ B 502      -0.329  -9.657 -18.952  1.00139.52     0.106 C 
HETATM   19  O24 MIQ B 502      -1.507 -11.390 -17.859  1.00146.13    -0.273 OA
HETATM   20  C23 MIQ B 502       1.145  -9.472 -18.639  1.00139.15     0.045 C 
ENDBRANCH  10  12
BRANCH   5  21
HETATM   21  N6  MIQ B 502       4.252  -7.949 -26.016  1.00140.95    -0.377 N 
HETATM   22  C7  MIQ B 502       5.312  -7.126 -26.572  1.00142.12     0.149 C 
HETATM   23  C8  MIQ B 502       4.840  -6.333 -27.784  1.00144.10     0.187 C 
HETATM   24  O9  MIQ B 502       4.145  -7.117 -28.708  1.00148.65    -0.388 OA
HETATM   25  C10 MIQ B 502       3.758  -8.419 -28.383  1.00147.44     0.187 C 
HETATM   26  C11 MIQ B 502       3.446  -8.745 -26.925  1.00144.08     0.149 C 
ENDBRANCH   5  21
TORSDOF 2
ENDMDL
MODEL 2
REMARK VINA RESULT:      -7.3      3.342      8.375
REMARK  2 active torsions:
REMARK  status: ('A' for Active; 'I' for Inactive)
REMARK    1  A    between atoms: C5_5  and  N6_21 
REMARK    2  A    between atoms: C18_14  and  N17_19 
ROOT
HETATM    1  O1  MIQ B 502       4.136 -12.710 -20.060  1.00142.91    -0.171 OA
HETATM    2  C2  MIQ B 502       3.445 -11.502 -19.936  1.00141.17     0.195 A 
HETATM    3  C3  MIQ B 502       1.969 -11.328 -19.456  1.00141.71     0.035 A 
HETATM    4  C4  MIQ B 502       0.922 -12.281 -19.016  1.00142.86     0.046 A 
HETATM    5  C5  MIQ B 502      -0.357 -11.810 -18.627  1.00139.53     0.031 A 
HETATM    6  C12 MIQ B 502      -0.643 -10.382 -18.660  1.00139.38     0.030 A 
HETATM    7  C13 MIQ B 502       0.361  -9.469 -19.081  1.00141.18     0.019 A 
HETATM    8  C14 MIQ B 502       1.703  -9.969 -19.486  1.00138.77     0.033 A 
HETATM    9  C15 MIQ B 502       3.022  -9.295 -19.987  1.00142.10     0.195 A 
HETATM   10  N17 MIQ B 502       3.883 -10.279 -20.186  1.00139.42    -0.288 N 
HETATM   11  O16 MIQ B 502       3.241  -7.930 -20.184  1.00148.93    -0.171 OA
ENDROOT
BRANCH  10  12
HETATM   12  C18 MIQ B 502       5.225 -10.025 -20.675  1.00139.82     0.187 C 
HETATM   13  C19 MIQ B 502       5.907  -9.068 -19.690  1.00140.06     0.247 C 
HETATM   14  O25 MIQ B 502       5.899  -9.324 -18.538  1.00143.95    -0.271 OA
HETATM   15  N20 MIQ B 502       6.569  -7.858 -20.134  1.00140.02    -0.296 N 
HETATM   16  H13 MIQ B 502       7.005  -7.238 -19.480  1.00142.77     0.171 HD
HETATM   17  C21 MIQ B 502       6.557  -7.561 -21.544  1.00142.22     0.224 C 
HETATM   18  C22 MIQ B 502       5.325  -7.989 -22.319  1.00139.52     0.106 C 
HETATM   19  O24 MIQ B 502       7.465  -7.016 -22.068  1.00146.13    -0.273 OA
HETATM   20  C23 MIQ B 502       5.178  -9.484 -22.103  1.00139.15     0.045 C 
ENDBRANCH  10  12
BRANCH   5  21
HETATM   21  N6  MIQ B 502      -1.378 -12.755 -18.213  1.00140.95    -0.377 N 
HETATM   22  C7  MIQ B 502      -0.981 -14.121 -17.918  1.00142.12     0.149 C 
HETATM   23  C8  MIQ B 502      -2.124 -15.104 -18.134  1.00144.10     0.187 C 
HETATM   24  O9  MIQ B 502      -3.318 -14.689 -17.541  1.00148.65    -0.388 OA
HETATM   25  C10 MIQ B 502      -3.440 -13.395 -17.028  1.00147.44     0.187 C 
HETATM   26  C11 MIQ B 502      -2.641 -12.272 -17.680  1.00144.08     0.149 C 
ENDBRANCH   5  21
TORSDOF 2
ENDMDL
MODEL 3
REMARK VINA RESULT:      -7.2      3.304      6.033
REMARK  2 active torsions:
REMARK  status: ('A' for Active; 'I' for Inactive)
REMARK    1  A    between atoms: C5_5  and  N6_21 
REMARK    2  A    between atoms: C18_14  and  N17_19 
ROOT
HETATM    1  O1  MIQ B 502      -0.359 -14.599 -19.299  1.00142.91    -0.171 OA
HETATM    2  C2  MIQ B 502      -0.701 -13.355 -18.765  1.00141.17     0.195 A 
HETATM    3  C3  MIQ B 502      -0.196 -11.964 -19.267  1.00141.71     0.035 A 
HETATM    4  C4  MIQ B 502       0.712 -11.545 -20.361  1.00142.86     0.046 A 
HETATM    5  C5  MIQ B 502       0.985 -10.171 -20.578  1.00139.53     0.031 A 
HETATM    6  C12 MIQ B 502       0.368  -9.167 -19.722  1.00139.38     0.030 A 
HETATM    7  C13 MIQ B 502      -0.504  -9.569 -18.675  1.00141.18     0.019 A 
HETATM    8  C14 MIQ B 502      -0.788 -11.013 -18.453  1.00138.77     0.033 A 
HETATM    9  C15 MIQ B 502      -1.666 -11.817 -17.439  1.00142.10     0.195 A 
HETATM   10  N17 MIQ B 502      -1.508 -13.093 -17.750  1.00139.42    -0.288 N 
HETATM   11  O16 MIQ B 502      -2.453 -11.290 -16.413  1.00148.93    -0.171 OA
ENDROOT
BRANCH  10  12
HETATM   12  C18 MIQ B 502      -2.170 -14.144 -17.000  1.00139.82     0.187 C 
HETATM   13  C19 MIQ B 502      -1.104 -15.165 -16.585  1.00140.06     0.247 C 
HETATM   14  O25 MIQ B 502      -0.125 -14.789 -16.045  1.00143.95    -0.271 OA
HETATM   15  N20 MIQ B 502      -1.268 -16.583 -16.832  1.00140.02    -0.296 N 
HETATM   16  H13 MIQ B 502      -0.562 -17.239 -16.562  1.00142.77     0.171 HD
HETATM   17  C21 MIQ B 502      -2.467 -17.017 -17.502  1.00142.22     0.224 C 
HETATM   18  C22 MIQ B 502      -3.048 -16.074 -18.537  1.00139.52     0.106 C 
HETATM   19  O24 MIQ B 502      -2.973 -18.055 -17.252  1.00146.13    -0.273 OA
HETATM   20  C23 MIQ B 502      -3.300 -14.756 -17.827  1.00139.15     0.045 C 
ENDBRANCH  10  12
BRANCH   5  21
HETATM   21  N6  MIQ B 502       1.888  -9.775 -21.643  1.00140.95    -0.377 N 
HETATM   22  C7  MIQ B 502       3.273 -10.208 -21.577  1.00142.12     0.149 C 
HETATM   23  C8  MIQ B 502       4.203  -9.257 -22.318  1.00144.10     0.187 C 
HETATM   24  O9  MIQ B 502       3.741  -8.929 -23.595  1.00148.65    -0.388 OA
HETATM   25  C10 MIQ B 502       2.448  -9.281 -23.991  1.00147.44     0.187 C 
HETATM   26  C11 MIQ B 502       1.355  -9.358 -22.929  1.00144.08     0.149 C 
ENDBRANCH   5  21
TORSDOF 2
ENDMDL
MODEL 4
REMARK VINA RESULT:      -7.1      1.218      2.368
REMARK  2 active torsions:
REMARK  status: ('A' for Active; 'I' for Inactive)
REMARK    1  A    between atoms: C5_5  and  N6_21 
REMARK    2  A    between atoms: C18_14  and  N17_19 
ROOT
HETATM    1  O1  MIQ B 502       4.924  -9.415 -19.997  1.00142.91    -0.171 OA
HETATM    2  C2  MIQ B 502       3.811  -9.487 -20.838  1.00141.17     0.195 A 
HETATM    3  C3  MIQ B 502       3.770  -9.092 -22.349  1.00141.71     0.035 A 
HETATM    4  C4  MIQ B 502       4.785  -8.569 -23.294  1.00142.86     0.046 A 
HETATM    5  C5  MIQ B 502       4.439  -8.300 -24.642  1.00139.53     0.031 A 
HETATM    6  C12 MIQ B 502       3.078  -8.540 -25.099  1.00139.38     0.030 A 
HETATM    7  C13 MIQ B 502       2.104  -9.042 -24.194  1.00141.18     0.019 A 
HETATM    8  C14 MIQ B 502       2.475  -9.325 -22.781  1.00138.77     0.033 A 
HETATM    9  C15 MIQ B 502       1.708  -9.869 -21.531  1.00142.10     0.195 A 
HETATM   10  N17 MIQ B 502       2.590  -9.899 -20.546  1.00139.42    -0.288 N 
HETATM   11  O16 MIQ B 502       0.364 -10.242 -21.473  1.00148.93    -0.171 OA
ENDROOT
BRANCH  10  12
HETATM   12  C18 MIQ B 502       2.222 -10.340 -19.214  1.00139.82     0.187 C 
HETATM   13  C19 MIQ B 502       1.630 -11.750 -19.335  1.00140.06     0.247 C 
HETATM   14  O25 MIQ B 502       2.230 -12.578 -19.924  1.00143.95    -0.271 OA
HETATM   15  N20 MIQ B 502       0.355 -12.097 -18.741  1.00140.02    -0.296 N 
HETATM   16  H13 MIQ B 502      -0.024 -13.019 -18.833  1.00142.77     0.171 HD
HETATM   17  C21 MIQ B 502      -0.363 -11.066 -18.037  1.00142.22     0.224 C 
HETATM   18  C22 MIQ B 502      -0.220  -9.652 -18.566  1.00139.52     0.106 C 
HETATM   19  O24 MIQ B 502      -1.026 -11.312 -17.090  1.00146.13    -0.273 OA
HETATM   20  C23 MIQ B 502       1.265  -9.340 -18.567  1.00139.15     0.045 C 
ENDBRANCH  10  12
BRANCH   5  21
HETATM   21  N6  MIQ B 502       5.440  -7.774 -25.552  1.00140.95    -0.377 N 
HETATM   22  C7  MIQ B 502       6.636  -8.560 -25.798  1.00142.12     0.149 C 
HETATM   23  C8  MIQ B 502       7.818  -7.686 -26.198  1.00144.10     0.187 C 
HETATM   24  O9  MIQ B 502       7.497  -6.761 -27.193  1.00148.65    -0.388 OA
HETATM   25  C10 MIQ B 502       6.166  -6.554 -27.564  1.00147.44     0.187 C 
HETATM   26  C11 MIQ B 502       5.077  -6.748 -26.514  1.00144.08     0.149 C 
ENDBRANCH   5  21
TORSDOF 2
ENDMDL
MODEL 5
REMARK VINA RESULT:      -6.7     16.013     19.036
REMARK  2 active torsions:
REMARK  status: ('A' for Active; 'I' for Inactive)
REMARK    1  A    between atoms: C5_5  and  N6_21 
REMARK    2  A    between atoms: C18_14  and  N17_19 
ROOT
HETATM    1  O1  MIQ B 502      -6.019   0.020 -28.947  1.00142.91    -0.171 OA
HETATM    2  C2  MIQ B 502      -6.593   0.933 -29.834  1.00141.17     0.195 A 
HETATM    3  C3  MIQ B 502      -7.900   1.754 -29.595  1.00141.71     0.035 A 
HETATM    4  C4  MIQ B 502      -8.861   1.834 -28.469  1.00142.86     0.046 A 
HETATM    5  C5  MIQ B 502      -9.984   2.697 -28.545  1.00139.53     0.031 A 
HETATM    6  C12 MIQ B 502     -10.192   3.508 -29.736  1.00139.38     0.030 A 
HETATM    7  C13 MIQ B 502      -9.270   3.432 -30.815  1.00141.18     0.019 A 
HETATM    8  C14 MIQ B 502      -8.092   2.526 -30.728  1.00138.77     0.033 A 
HETATM    9  C15 MIQ B 502      -6.897   2.184 -31.677  1.00142.10     0.195 A 
HETATM   10  N17 MIQ B 502      -6.164   1.291 -31.032  1.00139.42    -0.288 N 
HETATM   11  O16 MIQ B 502      -6.660   2.713 -32.946  1.00148.93    -0.171 OA
ENDROOT
BRANCH  10  12
HETATM   12  C18 MIQ B 502      -4.965   0.726 -31.623  1.00139.82     0.187 C 
HETATM   13  C19 MIQ B 502      -4.077   1.889 -32.082  1.00140.06     0.247 C 
HETATM   14  O25 MIQ B 502      -3.827   2.757 -31.323  1.00143.95    -0.271 OA
HETATM   15  N20 MIQ B 502      -3.531   1.950 -33.423  1.00140.02    -0.296 N 
HETATM   16  H13 MIQ B 502      -2.958   2.718 -33.712  1.00142.77     0.171 HD
HETATM   17  C21 MIQ B 502      -3.860   0.885 -34.334  1.00142.22     0.224 C 
HETATM   18  C22 MIQ B 502      -5.235   0.262 -34.186  1.00139.52     0.106 C 
HETATM   19  O24 MIQ B 502      -3.092   0.512 -35.152  1.00146.13    -0.273 OA
HETATM   20  C23 MIQ B 502      -5.332  -0.233 -32.755  1.00139.15     0.045 C 
ENDBRANCH  10  12
BRANCH   5  21
HETATM   21  N6  MIQ B 502     -10.925   2.755 -27.442  1.00140.95    -0.377 N 
HETATM   22  C7  MIQ B 502     -10.945   3.944 -26.607  1.00142.12     0.149 C 
HETATM   23  C8  MIQ B 502     -11.446   3.643 -25.201  1.00144.10     0.187 C 
HETATM   24  O9  MIQ B 502     -12.621   2.888 -25.192  1.00148.65    -0.388 OA
HETATM   25  C10 MIQ B 502     -13.097   2.307 -26.370  1.00147.44     0.187 C 
HETATM   26  C11 MIQ B 502     -12.090   1.887 -27.435  1.00144.08     0.149 C 
ENDBRANCH   5  21
TORSDOF 2
ENDMDL
MODEL 6
REMARK VINA RESULT:      -6.7      3.009      8.280
REMARK  2 active torsions:
REMARK  status: ('A' for Active; 'I' for Inactive)
REMARK    1  A    between atoms: C5_5  and  N6_21 
REMARK    2  A    between atoms: C18_14  and  N17_19 
ROOT
HETATM    1  O1  MIQ B 502       1.728  -7.779 -20.036  1.00142.91    -0.171 OA
HETATM    2  C2  MIQ B 502       2.396  -9.003 -20.117  1.00141.17     0.195 A 
HETATM    3  C3  MIQ B 502       1.833 -10.392 -19.677  1.00141.71     0.035 A 
HETATM    4  C4  MIQ B 502       0.543 -10.830 -19.093  1.00142.86     0.046 A 
HETATM    5  C5  MIQ B 502       0.319 -12.198 -18.794  1.00139.53     0.031 A 
HETATM    6  C12 MIQ B 502       1.363 -13.176 -19.063  1.00139.38     0.030 A 
HETATM    7  C13 MIQ B 502       2.600 -12.757 -19.624  1.00141.18     0.019 A 
HETATM    8  C14 MIQ B 502       2.828 -11.320 -19.938  1.00138.77     0.033 A 
HETATM    9  C15 MIQ B 502       4.015 -10.503 -20.545  1.00142.10     0.195 A 
HETATM   10  N17 MIQ B 502       3.612  -9.243 -20.577  1.00139.42    -0.288 N 
HETATM   11  O16 MIQ B 502       5.248 -11.005 -20.963  1.00148.93    -0.171 OA
ENDROOT
BRANCH  10  12
HETATM   12  C18 MIQ B 502       4.473  -8.185 -21.071  1.00139.82     0.187 C 
HETATM   13  C19 MIQ B 502       4.902  -8.558 -22.495  1.00140.06     0.247 C 
HETATM   14  O25 MIQ B 502       4.079  -8.861 -23.284  1.00143.95    -0.271 OA
HETATM   15  N20 MIQ B 502       6.292  -8.544 -22.902  1.00140.02    -0.296 N 
HETATM   16  H13 MIQ B 502       6.560  -8.797 -23.833  1.00142.77     0.171 HD
HETATM   17  C21 MIQ B 502       7.280  -8.182 -21.918  1.00142.22     0.224 C 
HETATM   18  C22 MIQ B 502       6.993  -8.586 -20.485  1.00139.52     0.106 C 
HETATM   19  O24 MIQ B 502       8.261  -7.593 -22.215  1.00146.13    -0.273 OA
HETATM   20  C23 MIQ B 502       5.652  -7.973 -20.124  1.00139.15     0.045 C 
ENDBRANCH  10  12
BRANCH   5  21
HETATM   21  N6  MIQ B 502      -0.943 -12.611 -18.208  1.00140.95    -0.377 N 
HETATM   22  C7  MIQ B 502      -1.084 -13.986 -17.761  1.00142.12     0.149 C 
HETATM   23  C8  MIQ B 502      -2.536 -14.446 -17.788  1.00144.10     0.187 C 
HETATM   24  O9  MIQ B 502      -3.408 -13.532 -17.193  1.00148.65    -0.388 OA
HETATM   25  C10 MIQ B 502      -2.963 -12.254 -16.845  1.00147.44     0.187 C 
HETATM   26  C11 MIQ B 502      -1.857 -11.615 -17.678  1.00144.08     0.149 C 
ENDBRANCH   5  21
TORSDOF 2
ENDMDL
MODEL 7
REMARK VINA RESULT:      -6.7     16.829     18.270
REMARK  2 active torsions:
REMARK  status: ('A' for Active; 'I' for Inactive)
REMARK    1  A    between atoms: C5_5  and  N6_21 
REMARK    2  A    between atoms: C18_14  and  N17_19 
ROOT
HETATM    1  O1  MIQ B 502      -8.961   4.852 -31.179  1.00142.91    -0.171 OA
HETATM    2  C2  MIQ B 502      -8.737   3.561 -30.695  1.00141.17     0.195 A 
HETATM    3  C3  MIQ B 502      -7.764   2.503 -31.307  1.00141.71     0.035 A 
HETATM    4  C4  MIQ B 502      -6.850   2.514 -32.474  1.00142.86     0.046 A 
HETATM    5  C5  MIQ B 502      -6.072   1.370 -32.785  1.00139.53     0.031 A 
HETATM    6  C12 MIQ B 502      -6.171   0.180 -31.952  1.00139.38     0.030 A 
HETATM    7  C13 MIQ B 502      -7.046   0.170 -30.833  1.00141.18     0.019 A 
HETATM    8  C14 MIQ B 502      -7.859   1.374 -30.510  1.00138.77     0.033 A 
HETATM    9  C15 MIQ B 502      -8.897   1.734 -29.396  1.00142.10     0.195 A 
HETATM   10  N17 MIQ B 502      -9.281   2.975 -29.643  1.00139.42    -0.288 N 
HETATM   11  O16 MIQ B 502      -9.328   0.907 -28.357  1.00148.93    -0.171 OA
ENDROOT
BRANCH  10  12
HETATM   12  C18 MIQ B 502     -10.264   3.643 -28.810  1.00139.82     0.187 C 
HETATM   13  C19 MIQ B 502      -9.782   3.557 -27.357  1.00140.06     0.247 C 
HETATM   14  O25 MIQ B 502      -8.682   3.893 -27.094  1.00143.95    -0.271 OA
HETATM   15  N20 MIQ B 502     -10.642   3.080 -26.293  1.00140.02    -0.296 N 
HETATM   16  H13 MIQ B 502     -10.313   3.023 -25.350  1.00142.77     0.171 HD
HETATM   17  C21 MIQ B 502     -11.977   2.667 -26.640  1.00142.22     0.224 C 
HETATM   18  C22 MIQ B 502     -12.160   2.026 -28.003  1.00139.52     0.106 C 
HETATM   19  O24 MIQ B 502     -12.885   2.824 -25.900  1.00146.13    -0.273 OA
HETATM   20  C23 MIQ B 502     -11.646   3.027 -29.022  1.00139.15     0.045 C 
ENDBRANCH  10  12
BRANCH   5  21
HETATM   21  N6  MIQ B 502      -5.192   1.389 -33.939  1.00140.95    -0.377 N 
HETATM   22  C7  MIQ B 502      -4.700   0.125 -34.458  1.00142.12     0.149 C 
HETATM   23  C8  MIQ B 502      -3.367   0.286 -35.179  1.00144.10     0.187 C 
HETATM   24  O9  MIQ B 502      -3.365   1.345 -36.088  1.00148.65    -0.388 OA
HETATM   25  C10 MIQ B 502      -4.421   2.260 -36.111  1.00147.44     0.187 C 
HETATM   26  C11 MIQ B 502      -5.162   2.552 -34.810  1.00144.08     0.149 C 
ENDBRANCH   5  21
TORSDOF 2
ENDMDL
MODEL 8
REMARK VINA RESULT:      -6.6      2.838      8.421
REMARK  2 active torsions:
REMARK  status: ('A' for Active; 'I' for Inactive)
REMARK    1  A    between atoms: C5_5  and  N6_21 
REMARK    2  A    between atoms: C18_14  and  N17_19 
ROOT
HETATM    1  O1  MIQ B 502       2.957 -11.855 -21.831  1.00142.91    -0.171 OA
HETATM    2  C2  MIQ B 502       2.290 -10.878 -21.091  1.00141.17     0.195 A 
HETATM    3  C3  MIQ B 502       1.117 -11.121 -20.088  1.00141.71     0.035 A 
HETATM    4  C4  MIQ B 502       0.400 -12.336 -19.634  1.00142.86     0.046 A 
HETATM    5  C5  MIQ B 502      -0.650 -12.237 -18.686  1.00139.53     0.031 A 
HETATM    6  C12 MIQ B 502      -1.025 -10.933 -18.158  1.00139.38     0.030 A 
HETATM    7  C13 MIQ B 502      -0.338  -9.768 -18.592  1.00141.18     0.019 A 
HETATM    8  C14 MIQ B 502       0.766  -9.879 -19.585  1.00138.77     0.033 A 
HETATM    9  C15 MIQ B 502       1.726  -8.859 -20.279  1.00142.10     0.195 A 
HETATM   10  N17 MIQ B 502       2.504  -9.573 -21.075  1.00139.42    -0.288 N 
HETATM   11  O16 MIQ B 502       1.752  -7.475 -20.094  1.00148.93    -0.171 OA
ENDROOT
BRANCH  10  12
HETATM   12  C18 MIQ B 502       3.521  -8.949 -21.901  1.00139.82     0.187 C 
HETATM   13  C19 MIQ B 502       3.293  -9.402 -23.348  1.00140.06     0.247 C 
HETATM   14  O25 MIQ B 502       2.217  -9.298 -23.821  1.00143.95    -0.271 OA
HETATM   15  N20 MIQ B 502       4.364  -9.949 -24.155  1.00140.02    -0.296 N 
HETATM   16  H13 MIQ B 502       4.200 -10.248 -25.096  1.00142.77     0.171 HD
HETATM   17  C21 MIQ B 502       5.666 -10.076 -23.552  1.00142.22     0.224 C 
HETATM   18  C22 MIQ B 502       5.702 -10.389 -22.068  1.00139.52     0.106 C 
HETATM   19  O24 MIQ B 502       6.655  -9.937 -24.183  1.00146.13    -0.273 OA
HETATM   20  C23 MIQ B 502       4.915  -9.291 -21.377  1.00139.15     0.045 C 
ENDBRANCH  10  12
BRANCH   5  21
HETATM   21  N6  MIQ B 502      -1.353 -13.433 -18.261  1.00140.95    -0.377 N 
HETATM   22  C7  MIQ B 502      -0.574 -14.598 -17.878  1.00142.12     0.149 C 
HETATM   23  C8  MIQ B 502      -1.347 -15.894 -18.084  1.00144.10     0.187 C 
HETATM   24  O9  MIQ B 502      -2.641 -15.843 -17.563  1.00148.65    -0.388 OA
HETATM   25  C10 MIQ B 502      -3.181 -14.631 -17.126  1.00147.44     0.187 C 
HETATM   26  C11 MIQ B 502      -2.730 -13.343 -17.807  1.00144.08     0.149 C 
ENDBRANCH   5  21
TORSDOF 2
ENDMDL
MODEL 9
REMARK VINA RESULT:      -6.5     14.403     16.827
REMARK  2 active torsions:
REMARK  status: ('A' for Active; 'I' for Inactive)
REMARK    1  A    between atoms: C5_5  and  N6_21 
REMARK    2  A    between atoms: C18_14  and  N17_19 
ROOT
HETATM    1  O1  MIQ B 502      -2.567  -4.794 -34.172  1.00142.91    -0.171 OA
HETATM    2  C2  MIQ B 502      -2.887  -3.993 -35.270  1.00141.17     0.195 A 
HETATM    3  C3  MIQ B 502      -3.489  -2.553 -35.216  1.00141.71     0.035 A 
HETATM    4  C4  MIQ B 502      -3.876  -1.651 -34.106  1.00142.86     0.046 A 
HETATM    5  C5  MIQ B 502      -4.408  -0.365 -34.378  1.00139.53     0.031 A 
HETATM    6  C12 MIQ B 502      -4.574   0.070 -35.757  1.00139.38     0.030 A 
HETATM    7  C13 MIQ B 502      -4.202  -0.793 -36.823  1.00141.18     0.019 A 
HETATM    8  C14 MIQ B 502      -3.642  -2.141 -36.530  1.00138.77     0.033 A 
HETATM    9  C15 MIQ B 502      -3.131  -3.333 -37.405  1.00142.10     0.195 A 
HETATM   10  N17 MIQ B 502      -2.749  -4.272 -36.555  1.00139.42    -0.288 N 
HETATM   11  O16 MIQ B 502      -3.092  -3.389 -38.799  1.00148.93    -0.171 OA
ENDROOT
BRANCH  10  12
HETATM   12  C18 MIQ B 502      -2.227  -5.544 -37.017  1.00139.82     0.187 C 
HETATM   13  C19 MIQ B 502      -2.955  -6.655 -36.250  1.00140.06     0.247 C 
HETATM   14  O25 MIQ B 502      -4.134  -6.650 -36.212  1.00143.95    -0.271 OA
HETATM   15  N20 MIQ B 502      -2.236  -7.715 -35.575  1.00140.02    -0.296 N 
HETATM   16  H13 MIQ B 502      -2.722  -8.431 -35.072  1.00142.77     0.171 HD
HETATM   17  C21 MIQ B 502      -0.796  -7.693 -35.628  1.00142.22     0.224 C 
HETATM   18  C22 MIQ B 502      -0.136  -6.328 -35.650  1.00139.52     0.106 C 
HETATM   19  O24 MIQ B 502      -0.164  -8.691 -35.658  1.00146.13    -0.273 OA
HETATM   20  C23 MIQ B 502      -0.710  -5.591 -36.846  1.00139.15     0.045 C 
ENDBRANCH  10  12
BRANCH   5  21
HETATM   21  N6  MIQ B 502      -4.797   0.502 -33.281  1.00140.95    -0.377 N 
HETATM   22  C7  MIQ B 502      -4.352   1.885 -33.297  1.00142.12     0.149 C 
HETATM   23  C8  MIQ B 502      -4.252   2.467 -31.893  1.00144.10     0.187 C 
HETATM   24  O9  MIQ B 502      -5.385   2.213 -31.118  1.00148.65    -0.388 OA
HETATM   25  C10 MIQ B 502      -6.361   1.318 -31.563  1.00147.44     0.187 C 
HETATM   26  C11 MIQ B 502      -5.933   0.151 -32.447  1.00144.08     0.149 C 
ENDBRANCH   5  21
TORSDOF 2
ENDMDL
