MODEL 1
REMARK VINA RESULT:      -7.9      0.000      0.000
REMARK  2 active torsions:
REMARK  status: ('A' for Active; 'I' for Inactive)
REMARK    1  A    between atoms: C5_5  and  N6_21 
REMARK    2  A    between atoms: C18_14  and  N17_19 
ROOT
HETATM    1  O1  MIQ B 502       8.817 -12.759  -4.467  1.00142.91    -0.171 OA
HETATM    2  C2  MIQ B 502      10.130 -13.235  -4.464  1.00141.17     0.195 A 
HETATM    3  C3  MIQ B 502      10.766 -14.194  -5.520  1.00141.71     0.035 A 
HETATM    4  C4  MIQ B 502      10.248 -14.848  -6.745  1.00142.86     0.046 A 
HETATM    5  C5  MIQ B 502      11.088 -15.687  -7.520  1.00139.53     0.031 A 
HETATM    6  C12 MIQ B 502      12.467 -15.907  -7.108  1.00139.38     0.030 A 
HETATM    7  C13 MIQ B 502      12.964 -15.280  -5.934  1.00141.18     0.019 A 
HETATM    8  C14 MIQ B 502      12.078 -14.398  -5.126  1.00138.77     0.033 A 
HETATM    9  C15 MIQ B 502      12.259 -13.559  -3.819  1.00142.10     0.195 A 
HETATM   10  N17 MIQ B 502      11.092 -12.977  -3.594  1.00139.42    -0.288 N 
HETATM   11  O16 MIQ B 502      13.418 -13.451  -3.049  1.00148.93    -0.171 OA
ENDROOT
BRANCH  10  12
HETATM   12  C18 MIQ B 502      10.882 -12.123  -2.441  1.00139.82     0.187 C 
HETATM   13  C19 MIQ B 502      12.028 -11.105  -2.398  1.00140.06     0.247 C 
HETATM   14  O25 MIQ B 502      12.282 -10.482  -3.367  1.00143.95    -0.271 OA
HETATM   15  N20 MIQ B 502      12.806 -10.881  -1.197  1.00140.02    -0.296 N 
HETATM   16  H13 MIQ B 502      13.556 -10.218  -1.184  1.00142.77     0.171 HD
HETATM   17  C21 MIQ B 502      12.484 -11.661  -0.030  1.00142.22     0.224 C 
HETATM   18  C22 MIQ B 502      11.993 -13.075  -0.270  1.00139.52     0.106 C 
HETATM   19  O24 MIQ B 502      12.593 -11.216   1.060  1.00146.13    -0.273 OA
HETATM   20  C23 MIQ B 502      10.775 -12.962  -1.169  1.00139.15     0.045 C 
ENDBRANCH  10  12
BRANCH   5  21
HETATM   21  N6  MIQ B 502      10.563 -16.332  -8.709  1.00140.95    -0.377 N 
HETATM   22  C7  MIQ B 502       9.283 -15.888  -9.234  1.00142.12     0.149 C 
HETATM   23  C8  MIQ B 502       8.572 -16.989 -10.009  1.00144.10     0.187 C 
HETATM   24  O9  MIQ B 502       9.405 -17.629 -10.930  1.00148.65    -0.388 OA
HETATM   25  C10 MIQ B 502      10.782 -17.396 -10.920  1.00147.44     0.187 C 
HETATM   26  C11 MIQ B 502      11.456 -17.061  -9.593  1.00144.08     0.149 C 
ENDBRANCH   5  21
TORSDOF 2
ENDMDL
MODEL 2
REMARK VINA RESULT:      -7.6      1.912      2.692
REMARK  2 active torsions:
REMARK  status: ('A' for Active; 'I' for Inactive)
REMARK    1  A    between atoms: C5_5  and  N6_21 
REMARK    2  A    between atoms: C18_14  and  N17_19 
ROOT
HETATM    1  O1  MIQ B 502      12.860 -12.752  -4.692  1.00142.91    -0.171 OA
HETATM    2  C2  MIQ B 502      11.680 -13.462  -4.922  1.00141.17     0.195 A 
HETATM    3  C3  MIQ B 502      11.323 -14.266  -6.212  1.00141.71     0.035 A 
HETATM    4  C4  MIQ B 502      12.040 -14.521  -7.484  1.00142.86     0.046 A 
HETATM    5  C5  MIQ B 502      11.442 -15.315  -8.496  1.00139.53     0.031 A 
HETATM    6  C12 MIQ B 502      10.119 -15.882  -8.283  1.00139.38     0.030 A 
HETATM    7  C13 MIQ B 502       9.432 -15.638  -7.063  1.00141.18     0.019 A 
HETATM    8  C14 MIQ B 502      10.065 -14.807  -6.003  1.00138.77     0.033 A 
HETATM    9  C15 MIQ B 502       9.638 -14.335  -4.575  1.00142.10     0.195 A 
HETATM   10  N17 MIQ B 502      10.641 -13.606  -4.116  1.00139.42    -0.288 N 
HETATM   11  O16 MIQ B 502       8.438 -14.626  -3.923  1.00148.93    -0.171 OA
ENDROOT
BRANCH  10  12
HETATM   12  C18 MIQ B 502      10.588 -12.983  -2.806  1.00139.82     0.187 C 
HETATM   13  C19 MIQ B 502      10.777 -11.473  -2.999  1.00140.06     0.247 C 
HETATM   14  O25 MIQ B 502      10.106 -10.904  -3.784  1.00143.95    -0.271 OA
HETATM   15  N20 MIQ B 502      11.754 -10.723  -2.237  1.00140.02    -0.296 N 
HETATM   16  H13 MIQ B 502      11.872  -9.738  -2.376  1.00142.77     0.171 HD
HETATM   17  C21 MIQ B 502      12.569 -11.441  -1.291  1.00142.22     0.224 C 
HETATM   18  C22 MIQ B 502      12.936 -12.867  -1.654  1.00139.52     0.106 C 
HETATM   19  O24 MIQ B 502      12.926 -10.944  -0.281  1.00146.13    -0.273 OA
HETATM   20  C23 MIQ B 502      11.630 -13.606  -1.879  1.00139.15     0.045 C 
ENDBRANCH  10  12
BRANCH   5  21
HETATM   21  N6  MIQ B 502      12.149 -15.544  -9.743  1.00140.95    -0.377 N 
HETATM   22  C7  MIQ B 502      12.479 -14.400 -10.575  1.00142.12     0.149 C 
HETATM   23  C8  MIQ B 502      12.601 -14.782 -12.045  1.00144.10     0.187 C 
HETATM   24  O9  MIQ B 502      13.392 -15.915 -12.248  1.00148.65    -0.388 OA
HETATM   25  C10 MIQ B 502      13.797 -16.698 -11.164  1.00147.44     0.187 C 
HETATM   26  C11 MIQ B 502      12.889 -16.778  -9.942  1.00144.08     0.149 C 
ENDBRANCH   5  21
TORSDOF 2
ENDMDL
MODEL 3
REMARK VINA RESULT:      -7.5      0.900      1.150
REMARK  2 active torsions:
REMARK  status: ('A' for Active; 'I' for Inactive)
REMARK    1  A    between atoms: C5_5  and  N6_21 
REMARK    2  A    between atoms: C18_14  and  N17_19 
ROOT
HETATM    1  O1  MIQ B 502       8.425 -13.998  -4.434  1.00142.91    -0.171 OA
HETATM    2  C2  MIQ B 502       9.813 -14.113  -4.549  1.00141.17     0.195 A 
HETATM    3  C3  MIQ B 502      10.587 -14.811  -5.712  1.00141.71     0.035 A 
HETATM    4  C4  MIQ B 502      10.159 -15.505  -6.950  1.00142.86     0.046 A 
HETATM    5  C5  MIQ B 502      11.122 -16.049  -7.836  1.00139.53     0.031 A 
HETATM    6  C12 MIQ B 502      12.539 -15.924  -7.528  1.00139.38     0.030 A 
HETATM    7  C13 MIQ B 502      12.951 -15.258  -6.342  1.00141.18     0.019 A 
HETATM    8  C14 MIQ B 502      11.935 -14.687  -5.416  1.00138.77     0.033 A 
HETATM    9  C15 MIQ B 502      11.997 -13.907  -4.062  1.00142.10     0.195 A 
HETATM   10  N17 MIQ B 502      10.742 -13.665  -3.722  1.00139.42    -0.288 N 
HETATM   11  O16 MIQ B 502      13.147 -13.546  -3.358  1.00148.93    -0.171 OA
ENDROOT
BRANCH  10  12
HETATM   12  C18 MIQ B 502      10.412 -12.963  -2.496  1.00139.82     0.187 C 
HETATM   13  C19 MIQ B 502      11.207 -11.652  -2.479  1.00140.06     0.247 C 
HETATM   14  O25 MIQ B 502      11.164 -10.940  -3.419  1.00143.95    -0.271 OA
HETATM   15  N20 MIQ B 502      12.006 -11.258  -1.337  1.00140.02    -0.296 N 
HETATM   16  H13 MIQ B 502      12.526 -10.403  -1.340  1.00142.77     0.171 HD
HETATM   17  C21 MIQ B 502      12.050 -12.149  -0.205  1.00142.22     0.224 C 
HETATM   18  C22 MIQ B 502      11.974 -13.634  -0.504  1.00139.52     0.106 C 
HETATM   19  O24 MIQ B 502      12.137 -11.740   0.900  1.00146.13    -0.273 OA
HETATM   20  C23 MIQ B 502      10.690 -13.851  -1.284  1.00139.15     0.045 C 
ENDBRANCH  10  12
BRANCH   5  21
HETATM   21  N6  MIQ B 502      10.688 -16.739  -9.037  1.00140.95    -0.377 N 
HETATM   22  C7  MIQ B 502      11.519 -16.655 -10.226  1.00142.12     0.149 C 
HETATM   23  C8  MIQ B 502      10.706 -16.830 -11.502  1.00144.10     0.187 C 
HETATM   24  O9  MIQ B 502       9.846 -17.928 -11.452  1.00148.65    -0.388 OA
HETATM   25  C10 MIQ B 502       9.631 -18.605 -10.249  1.00147.44     0.187 C 
HETATM   26  C11 MIQ B 502       9.723 -17.821  -8.944  1.00144.08     0.149 C 
ENDBRANCH   5  21
TORSDOF 2
ENDMDL
MODEL 4
REMARK VINA RESULT:      -7.4      2.698      3.442
REMARK  2 active torsions:
REMARK  status: ('A' for Active; 'I' for Inactive)
REMARK    1  A    between atoms: C5_5  and  N6_21 
REMARK    2  A    between atoms: C18_14  and  N17_19 
ROOT
HETATM    1  O1  MIQ B 502       9.924 -12.095  -3.958  1.00142.91    -0.171 OA
HETATM    2  C2  MIQ B 502      10.443 -13.172  -4.680  1.00141.17     0.195 A 
HETATM    3  C3  MIQ B 502       9.830 -13.794  -5.975  1.00141.71     0.035 A 
HETATM    4  C4  MIQ B 502       8.628 -13.483  -6.785  1.00142.86     0.046 A 
HETATM    5  C5  MIQ B 502       8.327 -14.245  -7.942  1.00139.53     0.031 A 
HETATM    6  C12 MIQ B 502       9.203 -15.339  -8.335  1.00139.38     0.030 A 
HETATM    7  C13 MIQ B 502      10.356 -15.637  -7.560  1.00141.18     0.019 A 
HETATM    8  C14 MIQ B 502      10.669 -14.831  -6.348  1.00138.77     0.033 A 
HETATM    9  C15 MIQ B 502      11.810 -14.853  -5.279  1.00142.10     0.195 A 
HETATM   10  N17 MIQ B 502      11.536 -13.873  -4.433  1.00139.42    -0.288 N 
HETATM   11  O16 MIQ B 502      12.893 -15.732  -5.229  1.00148.93    -0.171 OA
ENDROOT
BRANCH  10  12
HETATM   12  C18 MIQ B 502      12.383 -13.603  -3.286  1.00139.82     0.187 C 
HETATM   13  C19 MIQ B 502      11.487 -13.556  -2.043  1.00140.06     0.247 C 
HETATM   14  O25 MIQ B 502      10.739 -14.445  -1.838  1.00143.95    -0.271 OA
HETATM   15  N20 MIQ B 502      11.536 -12.452  -1.107  1.00140.02    -0.296 N 
HETATM   16  H13 MIQ B 502      10.941 -12.430  -0.303  1.00142.77     0.171 HD
HETATM   17  C21 MIQ B 502      12.450 -11.373  -1.384  1.00142.22     0.224 C 
HETATM   18  C22 MIQ B 502      12.688 -11.040  -2.844  1.00139.52     0.106 C 
HETATM   19  O24 MIQ B 502      12.990 -10.782  -0.515  1.00146.13    -0.273 OA
HETATM   20  C23 MIQ B 502      13.178 -12.316  -3.504  1.00139.15     0.045 C 
ENDBRANCH  10  12
BRANCH   5  21
HETATM   21  N6  MIQ B 502       7.138 -13.939  -8.717  1.00140.95    -0.377 N 
HETATM   22  C7  MIQ B 502       6.342 -12.784  -8.341  1.00142.12     0.149 C 
HETATM   23  C8  MIQ B 502       4.885 -12.938  -8.756  1.00144.10     0.187 C 
HETATM   24  O9  MIQ B 502       4.738 -13.359 -10.079  1.00148.65    -0.388 OA
HETATM   25  C10 MIQ B 502       5.845 -13.799 -10.809  1.00147.44     0.187 C 
HETATM   26  C11 MIQ B 502       6.991 -14.472 -10.060  1.00144.08     0.149 C 
ENDBRANCH   5  21
TORSDOF 2
ENDMDL
MODEL 5
REMARK VINA RESULT:      -7.4      8.515      9.995
REMARK  2 active torsions:
REMARK  status: ('A' for Active; 'I' for Inactive)
REMARK    1  A    between atoms: C5_5  and  N6_21 
REMARK    2  A    between atoms: C18_14  and  N17_19 
ROOT
HETATM    1  O1  MIQ B 502      12.907 -11.992 -10.793  1.00142.91    -0.171 OA
HETATM    2  C2  MIQ B 502      13.087 -11.591 -12.119  1.00141.17     0.195 A 
HETATM    3  C3  MIQ B 502      12.038 -11.713 -13.269  1.00141.71     0.035 A 
HETATM    4  C4  MIQ B 502      10.652 -12.236 -13.333  1.00142.86     0.046 A 
HETATM    5  C5  MIQ B 502       9.933 -12.211 -14.555  1.00139.53     0.031 A 
HETATM    6  C12 MIQ B 502      10.559 -11.669 -15.752  1.00139.38     0.030 A 
HETATM    7  C13 MIQ B 502      11.888 -11.167 -15.690  1.00141.18     0.019 A 
HETATM    8  C14 MIQ B 502      12.637 -11.193 -14.405  1.00138.77     0.033 A 
HETATM    9  C15 MIQ B 502      14.066 -10.745 -13.956  1.00142.10     0.195 A 
HETATM   10  N17 MIQ B 502      14.151 -11.032 -12.668  1.00139.42    -0.288 N 
HETATM   11  O16 MIQ B 502      15.049 -10.163 -14.758  1.00148.93    -0.171 OA
ENDROOT
BRANCH  10  12
HETATM   12  C18 MIQ B 502      15.360 -10.764 -11.911  1.00139.82     0.187 C 
HETATM   13  C19 MIQ B 502      15.701  -9.279 -12.084  1.00140.06     0.247 C 
HETATM   14  O25 MIQ B 502      14.867  -8.469 -11.883  1.00143.95    -0.271 OA
HETATM   15  N20 MIQ B 502      17.023  -8.840 -12.483  1.00140.02    -0.296 N 
HETATM   16  H13 MIQ B 502      17.231  -7.868 -12.599  1.00142.77     0.171 HD
HETATM   17  C21 MIQ B 502      18.021  -9.848 -12.732  1.00142.22     0.224 C 
HETATM   18  C22 MIQ B 502      17.534 -11.159 -13.317  1.00139.52     0.106 C 
HETATM   19  O24 MIQ B 502      19.162  -9.661 -12.488  1.00146.13    -0.273 OA
HETATM   20  C23 MIQ B 502      16.485 -11.695 -12.358  1.00139.15     0.045 C 
ENDBRANCH  10  12
BRANCH   5  21
HETATM   21  N6  MIQ B 502       8.582 -12.739 -14.607  1.00140.95    -0.377 N 
HETATM   22  C7  MIQ B 502       7.906 -12.795 -15.892  1.00142.12     0.149 C 
HETATM   23  C8  MIQ B 502       6.391 -12.734 -15.741  1.00144.10     0.187 C 
HETATM   24  O9  MIQ B 502       5.906 -13.616 -14.773  1.00148.65    -0.388 OA
HETATM   25  C10 MIQ B 502       6.786 -14.276 -13.912  1.00147.44     0.187 C 
HETATM   26  C11 MIQ B 502       8.091 -13.584 -13.532  1.00144.08     0.149 C 
ENDBRANCH   5  21
TORSDOF 2
ENDMDL
MODEL 6
REMARK VINA RESULT:      -7.3      6.850      9.892
REMARK  2 active torsions:
REMARK  status: ('A' for Active; 'I' for Inactive)
REMARK    1  A    between atoms: C5_5  and  N6_21 
REMARK    2  A    between atoms: C18_14  and  N17_19 
ROOT
HETATM    1  O1  MIQ B 502      13.950 -10.646 -12.399  1.00142.91    -0.171 OA
HETATM    2  C2  MIQ B 502      14.155 -12.013 -12.596  1.00141.17     0.195 A 
HETATM    3  C3  MIQ B 502      13.558 -13.170 -11.732  1.00141.71     0.035 A 
HETATM    4  C4  MIQ B 502      12.670 -13.201 -10.545  1.00142.86     0.046 A 
HETATM    5  C5  MIQ B 502      12.289 -14.438  -9.967  1.00139.53     0.031 A 
HETATM    6  C12 MIQ B 502      12.774 -15.684 -10.544  1.00139.38     0.030 A 
HETATM    7  C13 MIQ B 502      13.624 -15.655 -11.682  1.00141.18     0.019 A 
HETATM    8  C14 MIQ B 502      14.019 -14.353 -12.286  1.00138.77     0.033 A 
HETATM    9  C15 MIQ B 502      14.906 -13.929 -13.501  1.00142.10     0.195 A 
HETATM   10  N17 MIQ B 502      14.873 -12.607 -13.534  1.00139.42    -0.288 N 
HETATM   11  O16 MIQ B 502      15.593 -14.778 -14.370  1.00148.93    -0.171 OA
ENDROOT
BRANCH  10  12
HETATM   12  C18 MIQ B 502      15.607 -11.855 -14.535  1.00139.82     0.187 C 
HETATM   13  C19 MIQ B 502      16.480 -10.829 -13.803  1.00140.06     0.247 C 
HETATM   14  O25 MIQ B 502      17.179 -11.191 -12.925  1.00143.95    -0.271 OA
HETATM   15  N20 MIQ B 502      16.476  -9.427 -14.165  1.00140.02    -0.296 N 
HETATM   16  H13 MIQ B 502      17.046  -8.766 -13.675  1.00142.77     0.171 HD
HETATM   17  C21 MIQ B 502      15.607  -9.008 -15.234  1.00142.22     0.224 C 
HETATM   18  C22 MIQ B 502      14.292  -9.751 -15.374  1.00139.52     0.106 C 
HETATM   19  O24 MIQ B 502      15.908  -8.132 -15.968  1.00146.13    -0.273 OA
HETATM   20  C23 MIQ B 502      14.642 -11.219 -15.535  1.00139.15     0.045 C 
ENDBRANCH  10  12
BRANCH   5  21
HETATM   21  N6  MIQ B 502      11.431 -14.454  -8.797  1.00140.95    -0.377 N 
HETATM   22  C7  MIQ B 502      10.768 -13.222  -8.405  1.00142.12     0.149 C 
HETATM   23  C8  MIQ B 502      10.465 -13.188  -6.913  1.00144.10     0.187 C 
HETATM   24  O9  MIQ B 502       9.863 -14.362  -6.454  1.00148.65    -0.388 OA
HETATM   25  C10 MIQ B 502       9.793 -15.489  -7.277  1.00147.44     0.187 C 
HETATM   26  C11 MIQ B 502      10.897 -15.712  -8.305  1.00144.08     0.149 C 
ENDBRANCH   5  21
TORSDOF 2
ENDMDL
MODEL 7
REMARK VINA RESULT:      -7.3      6.777      9.829
REMARK  2 active torsions:
REMARK  status: ('A' for Active; 'I' for Inactive)
REMARK    1  A    between atoms: C5_5  and  N6_21 
REMARK    2  A    between atoms: C18_14  and  N17_19 
ROOT
HETATM    1  O1  MIQ B 502      10.522 -12.846 -11.031  1.00142.91    -0.171 OA
HETATM    2  C2  MIQ B 502      11.730 -13.431 -11.418  1.00141.17     0.195 A 
HETATM    3  C3  MIQ B 502      12.962 -12.687 -12.023  1.00141.71     0.035 A 
HETATM    4  C4  MIQ B 502      13.236 -11.268 -12.352  1.00142.86     0.046 A 
HETATM    5  C5  MIQ B 502      14.485 -10.889 -12.906  1.00139.53     0.031 A 
HETATM    6  C12 MIQ B 502      15.503 -11.899 -13.152  1.00139.38     0.030 A 
HETATM    7  C13 MIQ B 502      15.242 -13.260 -12.836  1.00141.18     0.019 A 
HETATM    8  C14 MIQ B 502      13.930 -13.652 -12.252  1.00138.77     0.033 A 
HETATM    9  C15 MIQ B 502      13.294 -15.002 -11.785  1.00142.10     0.195 A 
HETATM   10  N17 MIQ B 502      12.081 -14.704 -11.350  1.00139.42    -0.288 N 
HETATM   11  O16 MIQ B 502      13.890 -16.264 -11.825  1.00148.93    -0.171 OA
ENDROOT
BRANCH  10  12
HETATM   12  C18 MIQ B 502      11.184 -15.727 -10.848  1.00139.82     0.187 C 
HETATM   13  C19 MIQ B 502      11.960 -16.572  -9.830  1.00140.06     0.247 C 
HETATM   14  O25 MIQ B 502      12.542 -16.031  -8.959  1.00143.95    -0.271 OA
HETATM   15  N20 MIQ B 502      11.993 -18.018  -9.905  1.00140.02    -0.296 N 
HETATM   16  H13 MIQ B 502      12.509 -18.557  -9.237  1.00142.77     0.171 HD
HETATM   17  C21 MIQ B 502      11.282 -18.654 -10.984  1.00142.22     0.224 C 
HETATM   18  C22 MIQ B 502      11.232 -17.905 -12.301  1.00139.52     0.106 C 
HETATM   19  O24 MIQ B 502      10.761 -19.706 -10.845  1.00146.13    -0.273 OA
HETATM   20  C23 MIQ B 502      10.616 -16.550 -12.004  1.00139.15     0.045 C 
ENDBRANCH  10  12
BRANCH   5  21
HETATM   21  N6  MIQ B 502      14.733  -9.497 -13.237  1.00140.95    -0.377 N 
HETATM   22  C7  MIQ B 502      15.547  -8.703 -12.333  1.00142.12     0.149 C 
HETATM   23  C8  MIQ B 502      15.208  -7.220 -12.418  1.00144.10     0.187 C 
HETATM   24  O9  MIQ B 502      15.144  -6.751 -13.731  1.00148.65    -0.388 OA
HETATM   25  C10 MIQ B 502      15.164  -7.646 -14.804  1.00147.44     0.187 C 
HETATM   26  C11 MIQ B 502      14.570  -9.037 -14.605  1.00144.08     0.149 C 
ENDBRANCH   5  21
TORSDOF 2
ENDMDL
MODEL 8
REMARK VINA RESULT:      -7.2      3.621      8.445
REMARK  2 active torsions:
REMARK  status: ('A' for Active; 'I' for Inactive)
REMARK    1  A    between atoms: C5_5  and  N6_21 
REMARK    2  A    between atoms: C18_14  and  N17_19 
ROOT
HETATM    1  O1  MIQ B 502      10.883 -12.027  -9.642  1.00142.91    -0.171 OA
HETATM    2  C2  MIQ B 502      11.405 -13.313  -9.486  1.00141.17     0.195 A 
HETATM    3  C3  MIQ B 502      11.809 -13.986  -8.136  1.00141.71     0.035 A 
HETATM    4  C4  MIQ B 502      11.775 -13.538  -6.724  1.00142.86     0.046 A 
HETATM    5  C5  MIQ B 502      12.220 -14.399  -5.688  1.00139.53     0.031 A 
HETATM    6  C12 MIQ B 502      12.711 -15.730  -6.016  1.00139.38     0.030 A 
HETATM    7  C13 MIQ B 502      12.743 -16.160  -7.370  1.00141.18     0.019 A 
HETATM    8  C14 MIQ B 502      12.273 -15.253  -8.452  1.00138.77     0.033 A 
HETATM    9  C15 MIQ B 502      12.155 -15.367 -10.007  1.00142.10     0.195 A 
HETATM   10  N17 MIQ B 502      11.657 -14.213 -10.421  1.00139.42    -0.288 N 
HETATM   11  O16 MIQ B 502      12.508 -16.464 -10.794  1.00148.93    -0.171 OA
ENDROOT
BRANCH  10  12
HETATM   12  C18 MIQ B 502      11.423 -13.950 -11.829  1.00139.82     0.187 C 
HETATM   13  C19 MIQ B 502      12.138 -12.641 -12.185  1.00140.06     0.247 C 
HETATM   14  O25 MIQ B 502      13.273 -12.507 -11.895  1.00143.95    -0.271 OA
HETATM   15  N20 MIQ B 502      11.459 -11.563 -12.875  1.00140.02    -0.296 N 
HETATM   16  H13 MIQ B 502      11.935 -10.711 -13.096  1.00142.77     0.171 HD
HETATM   17  C21 MIQ B 502      10.070 -11.746 -13.209  1.00142.22     0.224 C 
HETATM   18  C22 MIQ B 502       9.238 -12.567 -12.242  1.00139.52     0.106 C 
HETATM   19  O24 MIQ B 502       9.605 -11.283 -14.192  1.00146.13    -0.273 OA
HETATM   20  C23 MIQ B 502       9.924 -13.916 -12.121  1.00139.15     0.045 C 
ENDBRANCH  10  12
BRANCH   5  21
HETATM   21  N6  MIQ B 502      12.195 -13.942  -4.311  1.00140.95    -0.377 N 
HETATM   22  C7  MIQ B 502      13.003 -12.791  -3.946  1.00142.12     0.149 C 
HETATM   23  C8  MIQ B 502      13.396 -12.814  -2.475  1.00144.10     0.187 C 
HETATM   24  O9  MIQ B 502      12.317 -13.078  -1.629  1.00148.65    -0.388 OA
HETATM   25  C10 MIQ B 502      11.092 -13.499  -2.153  1.00147.44     0.187 C 
HETATM   26  C11 MIQ B 502      11.092 -14.314  -3.442  1.00144.08     0.149 C 
ENDBRANCH   5  21
TORSDOF 2
ENDMDL
MODEL 9
REMARK VINA RESULT:      -7.2      4.268      8.812
REMARK  2 active torsions:
REMARK  status: ('A' for Active; 'I' for Inactive)
REMARK    1  A    between atoms: C5_5  and  N6_21 
REMARK    2  A    between atoms: C18_14  and  N17_19 
ROOT
HETATM    1  O1  MIQ B 502      12.504 -11.999 -10.487  1.00142.91    -0.171 OA
HETATM    2  C2  MIQ B 502      12.542 -13.384 -10.308  1.00141.17     0.195 A 
HETATM    3  C3  MIQ B 502      12.452 -14.141  -8.945  1.00141.71     0.035 A 
HETATM    4  C4  MIQ B 502      12.310 -13.694  -7.539  1.00142.86     0.046 A 
HETATM    5  C5  MIQ B 502      12.254 -14.643  -6.487  1.00139.53     0.031 A 
HETATM    6  C12 MIQ B 502      12.337 -16.064  -6.792  1.00139.38     0.030 A 
HETATM    7  C13 MIQ B 502      12.472 -16.493  -8.140  1.00141.18     0.019 A 
HETATM    8  C14 MIQ B 502      12.528 -15.492  -9.240  1.00138.77     0.033 A 
HETATM    9  C15 MIQ B 502      12.664 -15.575 -10.795  1.00142.10     0.195 A 
HETATM   10  N17 MIQ B 502      12.652 -14.325 -11.230  1.00139.42    -0.288 N 
HETATM   11  O16 MIQ B 502      12.777 -16.734 -11.564  1.00148.93    -0.171 OA
ENDROOT
BRANCH  10  12
HETATM   12  C18 MIQ B 502      12.777 -14.013 -12.641  1.00139.82     0.187 C 
HETATM   13  C19 MIQ B 502      13.940 -13.027 -12.801  1.00140.06     0.247 C 
HETATM   14  O25 MIQ B 502      14.983 -13.282 -12.313  1.00143.95    -0.271 OA
HETATM   15  N20 MIQ B 502      13.796 -11.790 -13.541  1.00140.02    -0.296 N 
HETATM   16  H13 MIQ B 502      14.561 -11.151 -13.633  1.00142.77     0.171 HD
HETATM   17  C21 MIQ B 502      12.510 -11.495 -14.119  1.00142.22     0.224 C 
HETATM   18  C22 MIQ B 502      11.293 -11.976 -13.353  1.00139.52     0.106 C 
HETATM   19  O24 MIQ B 502      12.412 -10.912 -15.142  1.00146.13    -0.273 OA
HETATM   20  C23 MIQ B 502      11.454 -13.476 -13.186  1.00139.15     0.045 C 
ENDBRANCH  10  12
BRANCH   5  21
HETATM   21  N6  MIQ B 502      12.130 -14.191  -5.113  1.00140.95    -0.377 N 
HETATM   22  C7  MIQ B 502      12.391 -12.793  -4.816  1.00142.12     0.149 C 
HETATM   23  C8  MIQ B 502      12.854 -12.594  -3.379  1.00144.10     0.187 C 
HETATM   24  O9  MIQ B 502      12.051 -13.262  -2.452  1.00148.65    -0.388 OA
HETATM   25  C10 MIQ B 502      11.092 -14.182  -2.880  1.00147.44     0.187 C 
HETATM   26  C11 MIQ B 502      11.353 -14.966  -4.162  1.00144.08     0.149 C 
ENDBRANCH   5  21
TORSDOF 2
ENDMDL
