MODEL 1
REMARK VINA RESULT:      -7.2      0.000      0.000
REMARK  2 active torsions:
REMARK  status: ('A' for Active; 'I' for Inactive)
REMARK    1  A    between atoms: C5_5  and  N6_21 
REMARK    2  A    between atoms: C18_14  and  N17_19 
ROOT
HETATM    1  O1  MIQ B 502      -5.596 -10.508 -15.991  1.00142.91    -0.171 OA
HETATM    2  C2  MIQ B 502      -5.985 -11.548 -15.143  1.00141.17     0.195 A 
HETATM    3  C3  MIQ B 502      -5.107 -12.770 -14.721  1.00141.71     0.035 A 
HETATM    4  C4  MIQ B 502      -3.721 -13.188 -15.039  1.00142.86     0.046 A 
HETATM    5  C5  MIQ B 502      -3.188 -14.380 -14.487  1.00139.53     0.031 A 
HETATM    6  C12 MIQ B 502      -4.007 -15.196 -13.603  1.00139.38     0.030 A 
HETATM    7  C13 MIQ B 502      -5.335 -14.795 -13.297  1.00141.18     0.019 A 
HETATM    8  C14 MIQ B 502      -5.889 -13.542 -13.877  1.00138.77     0.033 A 
HETATM    9  C15 MIQ B 502      -7.259 -12.795 -13.774  1.00142.10     0.195 A 
HETATM   10  N17 MIQ B 502      -7.143 -11.715 -14.529  1.00139.42    -0.288 N 
HETATM   11  O16 MIQ B 502      -8.375 -13.194 -13.037  1.00148.93    -0.171 OA
ENDROOT
BRANCH  10  12
HETATM   12  C18 MIQ B 502      -8.242 -10.780 -14.687  1.00139.82     0.187 C 
HETATM   13  C19 MIQ B 502      -8.565 -10.201 -13.304  1.00140.06     0.247 C 
HETATM   14  O25 MIQ B 502      -7.693  -9.749 -12.650  1.00143.95    -0.271 OA
HETATM   15  N20 MIQ B 502      -9.915 -10.187 -12.778  1.00140.02    -0.296 N 
HETATM   16  H13 MIQ B 502     -10.111  -9.811 -11.871  1.00142.77     0.171 HD
HETATM   17  C21 MIQ B 502     -10.961 -10.753 -13.590  1.00142.22     0.224 C 
HETATM   18  C22 MIQ B 502     -10.582 -11.934 -14.463  1.00139.52     0.106 C 
HETATM   19  O24 MIQ B 502     -12.058 -10.314 -13.579  1.00146.13    -0.273 OA
HETATM   20  C23 MIQ B 502      -9.437 -11.469 -15.344  1.00139.15     0.045 C 
ENDBRANCH  10  12
BRANCH   5  21
HETATM   21  N6  MIQ B 502      -1.834 -14.785 -14.819  1.00140.95    -0.377 N 
HETATM   22  C7  MIQ B 502      -1.307 -16.001 -14.224  1.00142.12     0.149 C 
HETATM   23  C8  MIQ B 502       0.212 -15.968 -14.114  1.00144.10     0.187 C 
HETATM   24  O9  MIQ B 502       0.834 -15.565 -15.298  1.00148.65    -0.388 OA
HETATM   25  C10 MIQ B 502       0.080 -15.037 -16.349  1.00147.44     0.187 C 
HETATM   26  C11 MIQ B 502      -1.196 -14.270 -16.019  1.00144.08     0.149 C 
ENDBRANCH   5  21
TORSDOF 2
ENDMDL
MODEL 2
REMARK VINA RESULT:      -7.2      1.814      2.817
REMARK  2 active torsions:
REMARK  status: ('A' for Active; 'I' for Inactive)
REMARK    1  A    between atoms: C5_5  and  N6_21 
REMARK    2  A    between atoms: C18_14  and  N17_19 
ROOT
HETATM    1  O1  MIQ B 502      -5.878 -11.964 -13.517  1.00142.91    -0.171 OA
HETATM    2  C2  MIQ B 502      -5.399 -11.443 -14.720  1.00141.17     0.195 A 
HETATM    3  C3  MIQ B 502      -4.084 -11.866 -15.449  1.00141.71     0.035 A 
HETATM    4  C4  MIQ B 502      -3.022 -12.854 -15.144  1.00142.86     0.046 A 
HETATM    5  C5  MIQ B 502      -1.921 -13.017 -16.022  1.00139.53     0.031 A 
HETATM    6  C12 MIQ B 502      -1.834 -12.209 -17.230  1.00139.38     0.030 A 
HETATM    7  C13 MIQ B 502      -2.852 -11.262 -17.523  1.00141.18     0.019 A 
HETATM    8  C14 MIQ B 502      -4.007 -11.097 -16.599  1.00138.77     0.033 A 
HETATM    9  C15 MIQ B 502      -5.282 -10.192 -16.584  1.00142.10     0.195 A 
HETATM   10  N17 MIQ B 502      -5.942 -10.510 -15.483  1.00139.42    -0.288 N 
HETATM   11  O16 MIQ B 502      -5.643  -9.241 -17.540  1.00148.93    -0.171 OA
ENDROOT
BRANCH  10  12
HETATM   12  C18 MIQ B 502      -7.185  -9.850 -15.128  1.00139.82     0.187 C 
HETATM   13  C19 MIQ B 502      -7.030  -9.294 -13.708  1.00140.06     0.247 C 
HETATM   14  O25 MIQ B 502      -6.090  -8.631 -13.448  1.00143.95    -0.271 OA
HETATM   15  N20 MIQ B 502      -8.011  -9.555 -12.674  1.00140.02    -0.296 N 
HETATM   16  H13 MIQ B 502      -7.895  -9.192 -11.748  1.00142.77     0.171 HD
HETATM   17  C21 MIQ B 502      -9.145 -10.377 -13.012  1.00142.22     0.224 C 
HETATM   18  C22 MIQ B 502      -8.908 -11.483 -14.022  1.00139.52     0.106 C 
HETATM   19  O24 MIQ B 502     -10.208 -10.192 -12.529  1.00146.13    -0.273 OA
HETATM   20  C23 MIQ B 502      -8.360 -10.817 -15.271  1.00139.15     0.045 C 
ENDBRANCH  10  12
BRANCH   5  21
HETATM   21  N6  MIQ B 502      -0.881 -13.978 -15.703  1.00140.95    -0.377 N 
HETATM   22  C7  MIQ B 502      -1.205 -15.085 -14.820  1.00142.12     0.149 C 
HETATM   23  C8  MIQ B 502       0.022 -15.599 -14.078  1.00144.10     0.187 C 
HETATM   24  O9  MIQ B 502       1.117 -15.808 -14.919  1.00148.65    -0.388 OA
HETATM   25  C10 MIQ B 502       1.094 -15.350 -16.239  1.00147.44     0.187 C 
HETATM   26  C11 MIQ B 502       0.284 -14.099 -16.563  1.00144.08     0.149 C 
ENDBRANCH   5  21
TORSDOF 2
ENDMDL
MODEL 3
REMARK VINA RESULT:      -6.8     26.009     28.018
REMARK  2 active torsions:
REMARK  status: ('A' for Active; 'I' for Inactive)
REMARK    1  A    between atoms: C5_5  and  N6_21 
REMARK    2  A    between atoms: C18_14  and  N17_19 
ROOT
HETATM    1  O1  MIQ B 502     -13.575 -14.033  12.808  1.00142.91    -0.171 OA
HETATM    2  C2  MIQ B 502     -12.946 -12.906  12.274  1.00141.17     0.195 A 
HETATM    3  C3  MIQ B 502     -13.605 -11.836  11.346  1.00141.71     0.035 A 
HETATM    4  C4  MIQ B 502     -14.967 -11.672  10.785  1.00142.86     0.046 A 
HETATM    5  C5  MIQ B 502     -15.272 -10.566   9.953  1.00139.53     0.031 A 
HETATM    6  C12 MIQ B 502     -14.240  -9.585   9.648  1.00139.38     0.030 A 
HETATM    7  C13 MIQ B 502     -12.934  -9.740  10.186  1.00141.18     0.019 A 
HETATM    8  C14 MIQ B 502     -12.621 -10.903  11.062  1.00138.77     0.033 A 
HETATM    9  C15 MIQ B 502     -11.344 -11.396  11.818  1.00142.10     0.195 A 
HETATM   10  N17 MIQ B 502     -11.696 -12.511  12.438  1.00139.42    -0.288 N 
HETATM   11  O16 MIQ B 502     -10.091 -10.783  11.830  1.00148.93    -0.171 OA
ENDROOT
BRANCH  10  12
HETATM   12  C18 MIQ B 502     -10.747 -13.264  13.237  1.00139.82     0.187 C 
HETATM   13  C19 MIQ B 502     -10.097 -12.294  14.231  1.00140.06     0.247 C 
HETATM   14  O25 MIQ B 502     -10.785 -11.605  14.897  1.00143.95    -0.271 OA
HETATM   15  N20 MIQ B 502      -8.659 -12.201  14.379  1.00140.02    -0.296 N 
HETATM   16  H13 MIQ B 502      -8.247 -11.559  15.026  1.00142.77     0.171 HD
HETATM   17  C21 MIQ B 502      -7.840 -13.044  13.546  1.00142.22     0.224 C 
HETATM   18  C22 MIQ B 502      -8.364 -13.343  12.155  1.00139.52     0.106 C 
HETATM   19  O24 MIQ B 502      -6.813 -13.484  13.933  1.00146.13    -0.273 OA
HETATM   20  C23 MIQ B 502      -9.735 -13.969  12.335  1.00139.15     0.045 C 
ENDBRANCH  10  12
BRANCH   5  21
HETATM   21  N6  MIQ B 502     -16.606 -10.427   9.399  1.00140.95    -0.377 N 
HETATM   22  C7  MIQ B 502     -17.691 -11.183  10.001  1.00142.12     0.149 C 
HETATM   23  C8  MIQ B 502     -18.811 -11.461   9.007  1.00144.10     0.187 C 
HETATM   24  O9  MIQ B 502     -19.199 -10.325   8.293  1.00148.65    -0.388 OA
HETATM   25  C10 MIQ B 502     -18.443  -9.153   8.364  1.00147.44     0.187 C 
HETATM   26  C11 MIQ B 502     -16.939  -9.267   8.590  1.00144.08     0.149 C 
ENDBRANCH   5  21
TORSDOF 2
ENDMDL
MODEL 4
REMARK VINA RESULT:      -6.7     26.177     27.366
REMARK  2 active torsions:
REMARK  status: ('A' for Active; 'I' for Inactive)
REMARK    1  A    between atoms: C5_5  and  N6_21 
REMARK    2  A    between atoms: C18_14  and  N17_19 
ROOT
HETATM    1  O1  MIQ B 502     -17.041 -12.184  12.654  1.00142.91    -0.171 OA
HETATM    2  C2  MIQ B 502     -16.490 -11.360  11.671  1.00141.17     0.195 A 
HETATM    3  C3  MIQ B 502     -14.972 -11.047  11.474  1.00141.71     0.035 A 
HETATM    4  C4  MIQ B 502     -13.744 -11.474  12.185  1.00142.86     0.046 A 
HETATM    5  C5  MIQ B 502     -12.473 -11.010  11.761  1.00139.53     0.031 A 
HETATM    6  C12 MIQ B 502     -12.376 -10.110  10.620  1.00139.38     0.030 A 
HETATM    7  C13 MIQ B 502     -13.554  -9.701   9.938  1.00141.18     0.019 A 
HETATM    8  C14 MIQ B 502     -14.885 -10.193  10.387  1.00138.77     0.033 A 
HETATM    9  C15 MIQ B 502     -16.356  -9.976   9.905  1.00142.10     0.195 A 
HETATM   10  N17 MIQ B 502     -17.116 -10.691  10.718  1.00139.42    -0.288 N 
HETATM   11  O16 MIQ B 502     -16.777  -9.185   8.835  1.00148.93    -0.171 OA
ENDROOT
BRANCH  10  12
HETATM   12  C18 MIQ B 502     -18.560 -10.717  10.578  1.00139.82     0.187 C 
HETATM   13  C19 MIQ B 502     -18.882 -11.068   9.120  1.00140.06     0.247 C 
HETATM   14  O25 MIQ B 502     -18.375 -12.013   8.629  1.00143.95    -0.271 OA
HETATM   15  N20 MIQ B 502     -19.798 -10.272   8.328  1.00140.02    -0.296 N 
HETATM   16  H13 MIQ B 502     -19.995 -10.508   7.375  1.00142.77     0.171 HD
HETATM   17  C21 MIQ B 502     -20.397  -9.117   8.946  1.00142.22     0.224 C 
HETATM   18  C22 MIQ B 502     -19.551  -8.373   9.961  1.00139.52     0.106 C 
HETATM   19  O24 MIQ B 502     -21.494  -8.772   8.677  1.00146.13    -0.273 OA
HETATM   20  C23 MIQ B 502     -19.162  -9.385  11.023  1.00139.15     0.045 C 
ENDBRANCH  10  12
BRANCH   5  21
HETATM   21  N6  MIQ B 502     -11.279 -11.424  12.475  1.00140.95    -0.377 N 
HETATM   22  C7  MIQ B 502     -10.021 -11.479  11.751  1.00142.12     0.149 C 
HETATM   23  C8  MIQ B 502      -9.056 -12.486  12.363  1.00144.10     0.187 C 
HETATM   24  O9  MIQ B 502      -8.942 -12.357  13.749  1.00148.65    -0.388 OA
HETATM   25  C10 MIQ B 502      -9.821 -11.534  14.457  1.00147.44     0.187 C 
HETATM   26  C11 MIQ B 502     -11.239 -11.352  13.925  1.00144.08     0.149 C 
ENDBRANCH   5  21
TORSDOF 2
ENDMDL
MODEL 5
REMARK VINA RESULT:      -6.6     13.254     15.270
REMARK  2 active torsions:
REMARK  status: ('A' for Active; 'I' for Inactive)
REMARK    1  A    between atoms: C5_5  and  N6_21 
REMARK    2  A    between atoms: C18_14  and  N17_19 
ROOT
HETATM    1  O1  MIQ B 502     -18.742 -12.049  -5.522  1.00142.91    -0.171 OA
HETATM    2  C2  MIQ B 502     -17.678 -11.248  -5.942  1.00141.17     0.195 A 
HETATM    3  C3  MIQ B 502     -17.489 -10.638  -7.368  1.00141.71     0.035 A 
HETATM    4  C4  MIQ B 502     -18.288 -10.695  -8.614  1.00142.86     0.046 A 
HETATM    5  C5  MIQ B 502     -17.847 -10.019  -9.780  1.00139.53     0.031 A 
HETATM    6  C12 MIQ B 502     -16.603  -9.264  -9.751  1.00139.38     0.030 A 
HETATM    7  C13 MIQ B 502     -15.837  -9.208  -8.555  1.00141.18     0.019 A 
HETATM    8  C14 MIQ B 502     -16.306  -9.918  -7.334  1.00138.77     0.033 A 
HETATM    9  C15 MIQ B 502     -15.757 -10.081  -5.879  1.00142.10     0.195 A 
HETATM   10  N17 MIQ B 502     -16.633 -10.840  -5.241  1.00139.42    -0.288 N 
HETATM   11  O16 MIQ B 502     -14.580  -9.537  -5.363  1.00148.93    -0.171 OA
ENDROOT
BRANCH  10  12
HETATM   12  C18 MIQ B 502     -16.440 -11.218  -3.854  1.00139.82     0.187 C 
HETATM   13  C19 MIQ B 502     -16.067  -9.953  -3.072  1.00140.06     0.247 C 
HETATM   14  O25 MIQ B 502     -16.742  -8.991  -3.176  1.00143.95    -0.271 OA
HETATM   15  N20 MIQ B 502     -14.909  -9.906  -2.202  1.00140.02    -0.296 N 
HETATM   16  H13 MIQ B 502     -14.673  -9.072  -1.702  1.00142.77     0.171 HD
HETATM   17  C21 MIQ B 502     -14.094 -11.089  -2.099  1.00142.22     0.224 C 
HETATM   18  C22 MIQ B 502     -13.976 -11.945  -3.346  1.00139.52     0.106 C 
HETATM   19  O24 MIQ B 502     -13.550 -11.379  -1.091  1.00146.13    -0.273 OA
HETATM   20  C23 MIQ B 502     -15.390 -12.323  -3.745  1.00139.15     0.045 C 
ENDBRANCH  10  12
BRANCH   5  21
HETATM   21  N6  MIQ B 502     -18.633 -10.096 -10.998  1.00140.95    -0.377 N 
HETATM   22  C7  MIQ B 502     -18.532 -11.294 -11.815  1.00142.12     0.149 C 
HETATM   23  C8  MIQ B 502     -18.844 -11.011 -13.279  1.00144.10     0.187 C 
HETATM   24  O9  MIQ B 502     -20.012 -10.267 -13.453  1.00148.65    -0.388 OA
HETATM   25  C10 MIQ B 502     -20.645  -9.678 -12.355  1.00147.44     0.187 C 
HETATM   26  C11 MIQ B 502     -19.792  -9.239 -11.170  1.00144.08     0.149 C 
ENDBRANCH   5  21
TORSDOF 2
ENDMDL
MODEL 6
REMARK VINA RESULT:      -6.5     14.896     16.365
REMARK  2 active torsions:
REMARK  status: ('A' for Active; 'I' for Inactive)
REMARK    1  A    between atoms: C5_5  and  N6_21 
REMARK    2  A    between atoms: C18_14  and  N17_19 
ROOT
HETATM    1  O1  MIQ B 502     -12.878 -22.281  -7.629  1.00142.91    -0.171 OA
HETATM    2  C2  MIQ B 502     -12.957 -23.567  -7.089  1.00141.17     0.195 A 
HETATM    3  C3  MIQ B 502     -12.613 -24.900  -7.828  1.00141.71     0.035 A 
HETATM    4  C4  MIQ B 502     -12.138 -25.213  -9.196  1.00142.86     0.046 A 
HETATM    5  C5  MIQ B 502     -11.907 -26.557  -9.585  1.00139.53     0.031 A 
HETATM    6  C12 MIQ B 502     -12.138 -27.634  -8.633  1.00139.38     0.030 A 
HETATM    7  C13 MIQ B 502     -12.593 -27.334  -7.320  1.00141.18     0.019 A 
HETATM    8  C14 MIQ B 502     -12.831 -25.921  -6.918  1.00138.77     0.033 A 
HETATM    9  C15 MIQ B 502     -13.312 -25.218  -5.606  1.00142.10     0.195 A 
HETATM   10  N17 MIQ B 502     -13.323 -23.922  -5.870  1.00139.42    -0.288 N 
HETATM   11  O16 MIQ B 502     -13.660 -25.838  -4.405  1.00148.93    -0.171 OA
ENDROOT
BRANCH  10  12
HETATM   12  C18 MIQ B 502     -13.738 -22.951  -4.875  1.00139.82     0.187 C 
HETATM   13  C19 MIQ B 502     -12.931 -23.216  -3.598  1.00140.06     0.247 C 
HETATM   14  O25 MIQ B 502     -11.757 -23.303  -3.666  1.00143.95    -0.271 OA
HETATM   15  N20 MIQ B 502     -13.571 -23.358  -2.306  1.00140.02    -0.296 N 
HETATM   16  H13 MIQ B 502     -13.034 -23.537  -1.481  1.00142.77     0.171 HD
HETATM   17  C21 MIQ B 502     -15.007 -23.258  -2.250  1.00142.22     0.224 C 
HETATM   18  C22 MIQ B 502     -15.773 -23.779  -3.450  1.00139.52     0.106 C 
HETATM   19  O24 MIQ B 502     -15.558 -22.789  -1.316  1.00146.13    -0.273 OA
HETATM   20  C23 MIQ B 502     -15.248 -23.023  -4.658  1.00139.15     0.045 C 
ENDBRANCH  10  12
BRANCH   5  21
HETATM   21  N6  MIQ B 502     -11.456 -26.851 -10.933  1.00140.95    -0.377 N 
HETATM   22  C7  MIQ B 502     -11.854 -28.109 -11.540  1.00142.12     0.149 C 
HETATM   23  C8  MIQ B 502     -10.856 -28.573 -12.594  1.00144.10     0.187 C 
HETATM   24  O9  MIQ B 502     -10.505 -27.562 -13.491  1.00148.65    -0.388 OA
HETATM   25  C10 MIQ B 502     -10.880 -26.238 -13.248  1.00147.44     0.187 C 
HETATM   26  C11 MIQ B 502     -11.018 -25.773 -11.802  1.00144.08     0.149 C 
ENDBRANCH   5  21
TORSDOF 2
ENDMDL
MODEL 7
REMARK VINA RESULT:      -6.5     15.014     16.738
REMARK  2 active torsions:
REMARK  status: ('A' for Active; 'I' for Inactive)
REMARK    1  A    between atoms: C5_5  and  N6_21 
REMARK    2  A    between atoms: C18_14  and  N17_19 
ROOT
HETATM    1  O1  MIQ B 502     -13.611 -27.273  -5.328  1.00142.91    -0.171 OA
HETATM    2  C2  MIQ B 502     -13.431 -25.918  -5.615  1.00141.17     0.195 A 
HETATM    3  C3  MIQ B 502     -12.917 -25.322  -6.964  1.00141.71     0.035 A 
HETATM    4  C4  MIQ B 502     -12.496 -25.926  -8.251  1.00142.86     0.046 A 
HETATM    5  C5  MIQ B 502     -12.068 -25.103  -9.323  1.00139.53     0.031 A 
HETATM    6  C12 MIQ B 502     -12.043 -23.657  -9.158  1.00139.38     0.030 A 
HETATM    7  C13 MIQ B 502     -12.447 -23.077  -7.925  1.00141.18     0.019 A 
HETATM    8  C14 MIQ B 502     -12.898 -23.946  -6.804  1.00138.77     0.033 A 
HETATM    9  C15 MIQ B 502     -13.404 -23.687  -5.347  1.00142.10     0.195 A 
HETATM   10  N17 MIQ B 502     -13.657 -24.878  -4.831  1.00139.42    -0.288 N 
HETATM   11  O16 MIQ B 502     -13.554 -22.447  -4.723  1.00148.93    -0.171 OA
ENDROOT
BRANCH  10  12
HETATM   12  C18 MIQ B 502     -14.136 -25.028  -3.470  1.00139.82     0.187 C 
HETATM   13  C19 MIQ B 502     -15.378 -24.142  -3.311  1.00140.06     0.247 C 
HETATM   14  O25 MIQ B 502     -16.253 -24.231  -4.098  1.00143.95    -0.271 OA
HETATM   15  N20 MIQ B 502     -15.512 -23.202  -2.217  1.00140.02    -0.296 N 
HETATM   16  H13 MIQ B 502     -16.325 -22.625  -2.129  1.00142.77     0.171 HD
HETATM   17  C21 MIQ B 502     -14.426 -23.105  -1.276  1.00142.22     0.224 C 
HETATM   18  C22 MIQ B 502     -13.028 -23.319  -1.823  1.00139.52     0.106 C 
HETATM   19  O24 MIQ B 502     -14.618 -22.874  -0.133  1.00146.13    -0.273 OA
HETATM   20  C23 MIQ B 502     -13.026 -24.690  -2.476  1.00139.15     0.045 C 
ENDBRANCH  10  12
BRANCH   5  21
HETATM   21  N6  MIQ B 502     -11.644 -25.709 -10.572  1.00140.95    -0.377 N 
HETATM   22  C7  MIQ B 502     -11.137 -24.846 -11.626  1.00142.12     0.149 C 
HETATM   23  C8  MIQ B 502     -11.344 -25.454 -13.007  1.00144.10     0.187 C 
HETATM   24  O9  MIQ B 502     -10.936 -26.788 -13.080  1.00148.65    -0.388 OA
HETATM   25  C10 MIQ B 502     -10.608 -27.492 -11.919  1.00147.44     0.187 C 
HETATM   26  C11 MIQ B 502     -11.313 -27.122 -10.617  1.00144.08     0.149 C 
ENDBRANCH   5  21
TORSDOF 2
ENDMDL
MODEL 8
REMARK VINA RESULT:      -6.3     26.199     28.451
REMARK  2 active torsions:
REMARK  status: ('A' for Active; 'I' for Inactive)
REMARK    1  A    between atoms: C5_5  and  N6_21 
REMARK    2  A    between atoms: C18_14  and  N17_19 
ROOT
HETATM    1  O1  MIQ B 502     -11.495  -9.779  10.500  1.00142.91    -0.171 OA
HETATM    2  C2  MIQ B 502     -12.274 -10.631  11.285  1.00141.17     0.195 A 
HETATM    3  C3  MIQ B 502     -13.830 -10.753  11.250  1.00141.71     0.035 A 
HETATM    4  C4  MIQ B 502     -14.887 -10.081  10.457  1.00142.86     0.046 A 
HETATM    5  C5  MIQ B 502     -16.251 -10.413  10.654  1.00139.53     0.031 A 
HETATM    6  C12 MIQ B 502     -16.615 -11.420  11.641  1.00139.38     0.030 A 
HETATM    7  C13 MIQ B 502     -15.602 -12.065  12.401  1.00141.18     0.019 A 
HETATM    8  C14 MIQ B 502     -14.171 -11.714  12.188  1.00138.77     0.033 A 
HETATM    9  C15 MIQ B 502     -12.818 -12.192  12.808  1.00142.10     0.195 A 
HETATM   10  N17 MIQ B 502     -11.871 -11.498  12.198  1.00139.42    -0.288 N 
HETATM   11  O16 MIQ B 502     -12.650 -13.155  13.805  1.00148.93    -0.171 OA
ENDROOT
BRANCH  10  12
HETATM   12  C18 MIQ B 502     -10.470 -11.670  12.535  1.00139.82     0.187 C 
HETATM   13  C19 MIQ B 502     -10.162 -13.172  12.504  1.00140.06     0.247 C 
HETATM   14  O25 MIQ B 502     -10.468 -13.803  11.555  1.00143.95    -0.271 OA
HETATM   15  N20 MIQ B 502      -9.501 -13.840  13.606  1.00140.02    -0.296 N 
HETATM   16  H13 MIQ B 502      -9.312 -14.822  13.576  1.00142.77     0.171 HD
HETATM   17  C21 MIQ B 502      -9.147 -13.051  14.758  1.00142.22     0.224 C 
HETATM   18  C22 MIQ B 502     -10.080 -11.909  15.114  1.00139.52     0.106 C 
HETATM   19  O24 MIQ B 502      -8.175 -13.281  15.390  1.00146.13    -0.273 OA
HETATM   20  C23 MIQ B 502     -10.164 -11.022  13.885  1.00139.15     0.045 C 
ENDBRANCH  10  12
BRANCH   5  21
HETATM   21  N6  MIQ B 502     -17.277  -9.737   9.881  1.00140.95    -0.377 N 
HETATM   22  C7  MIQ B 502     -18.408  -9.156  10.584  1.00142.12     0.149 C 
HETATM   23  C8  MIQ B 502     -19.647  -9.077   9.702  1.00144.10     0.187 C 
HETATM   24  O9  MIQ B 502     -19.384  -8.533   8.443  1.00148.65    -0.388 OA
HETATM   25  C10 MIQ B 502     -18.067  -8.326   8.023  1.00147.44     0.187 C 
HETATM   26  C11 MIQ B 502     -16.981  -9.263   8.540  1.00144.08     0.149 C 
ENDBRANCH   5  21
TORSDOF 2
ENDMDL
MODEL 9
REMARK VINA RESULT:      -6.3      2.186      8.288
REMARK  2 active torsions:
REMARK  status: ('A' for Active; 'I' for Inactive)
REMARK    1  A    between atoms: C5_5  and  N6_21 
REMARK    2  A    between atoms: C18_14  and  N17_19 
ROOT
HETATM    1  O1  MIQ B 502      -5.106 -11.226 -13.174  1.00142.91    -0.171 OA
HETATM    2  C2  MIQ B 502      -5.402 -12.475 -13.722  1.00141.17     0.195 A 
HETATM    3  C3  MIQ B 502      -6.824 -13.006 -14.093  1.00141.71     0.035 A 
HETATM    4  C4  MIQ B 502      -8.184 -12.426 -14.000  1.00142.86     0.046 A 
HETATM    5  C5  MIQ B 502      -9.312 -13.171 -14.429  1.00139.53     0.031 A 
HETATM    6  C12 MIQ B 502      -9.131 -14.513 -14.963  1.00139.38     0.030 A 
HETATM    7  C13 MIQ B 502      -7.827 -15.069 -15.053  1.00141.18     0.019 A 
HETATM    8  C14 MIQ B 502      -6.646 -14.282 -14.603  1.00138.77     0.033 A 
HETATM    9  C15 MIQ B 502      -5.106 -14.544 -14.550  1.00142.10     0.195 A 
HETATM   10  N17 MIQ B 502      -4.566 -13.448 -14.042  1.00139.42    -0.288 N 
HETATM   11  O16 MIQ B 502      -4.440 -15.702 -14.956  1.00148.93    -0.171 OA
ENDROOT
BRANCH  10  12
HETATM   12  C18 MIQ B 502      -3.135 -13.338 -13.829  1.00139.82     0.187 C 
HETATM   13  C19 MIQ B 502      -2.442 -13.580 -15.175  1.00140.06     0.247 C 
HETATM   14  O25 MIQ B 502      -2.794 -12.971 -16.122  1.00143.95    -0.271 OA
HETATM   15  N20 MIQ B 502      -1.360 -14.532 -15.316  1.00140.02    -0.296 N 
HETATM   16  H13 MIQ B 502      -0.920 -14.686 -16.202  1.00142.77     0.171 HD
HETATM   17  C21 MIQ B 502      -0.954 -15.270 -14.148  1.00142.22     0.224 C 
HETATM   18  C22 MIQ B 502      -2.042 -15.618 -13.150  1.00139.52     0.106 C 
HETATM   19  O24 MIQ B 502       0.173 -15.584 -13.975  1.00146.13    -0.273 OA
HETATM   20  C23 MIQ B 502      -2.683 -14.306 -12.737  1.00139.15     0.045 C 
ENDBRANCH  10  12
BRANCH   5  21
HETATM   21  N6  MIQ B 502     -10.640 -12.595 -14.319  1.00140.95    -0.377 N 
HETATM   22  C7  MIQ B 502     -11.726 -13.440 -13.852  1.00142.12     0.149 C 
HETATM   23  C8  MIQ B 502     -13.077 -12.970 -14.377  1.00144.10     0.187 C 
HETATM   24  O9  MIQ B 502     -13.276 -11.598 -14.214  1.00148.65    -0.388 OA
HETATM   25  C10 MIQ B 502     -12.219 -10.771 -13.825  1.00147.44     0.187 C 
HETATM   26  C11 MIQ B 502     -10.802 -11.154 -14.239  1.00144.08     0.149 C 
ENDBRANCH   5  21
TORSDOF 2
ENDMDL
