MODEL 1
REMARK VINA RESULT:      -8.2      0.000      0.000
REMARK  2 active torsions:
REMARK  status: ('A' for Active; 'I' for Inactive)
REMARK    1  A    between atoms: C5_5  and  N6_21 
REMARK    2  A    between atoms: C18_14  and  N17_19 
ROOT
HETATM    1  O1  MIQ B 502      -0.970   3.582  -1.911  1.00142.91    -0.171 OA
HETATM    2  C2  MIQ B 502      -1.016   4.559  -0.915  1.00141.17     0.195 A 
HETATM    3  C3  MIQ B 502      -1.717   4.427   0.475  1.00141.71     0.035 A 
HETATM    4  C4  MIQ B 502      -2.481   3.340   1.131  1.00142.86     0.046 A 
HETATM    5  C5  MIQ B 502      -3.008   3.520   2.435  1.00139.53     0.031 A 
HETATM    6  C12 MIQ B 502      -2.796   4.781   3.132  1.00139.38     0.030 A 
HETATM    7  C13 MIQ B 502      -2.062   5.823   2.504  1.00141.18     0.019 A 
HETATM    8  C14 MIQ B 502      -1.509   5.627   1.136  1.00138.77     0.033 A 
HETATM    9  C15 MIQ B 502      -0.674   6.508   0.151  1.00142.10     0.195 A 
HETATM   10  N17 MIQ B 502      -0.486   5.770  -0.931  1.00139.42    -0.288 N 
HETATM   11  O16 MIQ B 502      -0.224   7.811   0.372  1.00148.93    -0.171 OA
ENDROOT
BRANCH  10  12
HETATM   12  C18 MIQ B 502       0.245   6.278  -2.076  1.00139.82     0.187 C 
HETATM   13  C19 MIQ B 502       1.640   6.695  -1.594  1.00140.06     0.247 C 
HETATM   14  O25 MIQ B 502       2.283   5.933  -0.963  1.00143.95    -0.271 OA
HETATM   15  N20 MIQ B 502       2.194   7.998  -1.895  1.00140.02    -0.296 N 
HETATM   16  H13 MIQ B 502       3.104   8.261  -1.568  1.00142.77     0.171 HD
HETATM   17  C21 MIQ B 502       1.386   8.915  -2.657  1.00142.22     0.224 C 
HETATM   18  C22 MIQ B 502      -0.113   8.846  -2.438  1.00139.52     0.106 C 
HETATM   19  O24 MIQ B 502       1.870   9.678  -3.419  1.00146.13    -0.273 OA
HETATM   20  C23 MIQ B 502      -0.527   7.417  -2.738  1.00139.15     0.045 C 
ENDBRANCH  10  12
BRANCH   5  21
HETATM   21  N6  MIQ B 502      -3.768   2.453   3.060  1.00140.95    -0.377 N 
HETATM   22  C7  MIQ B 502      -4.476   1.513   2.208  1.00142.12     0.149 C 
HETATM   23  C8  MIQ B 502      -5.681   0.903   2.912  1.00144.10     0.187 C 
HETATM   24  O9  MIQ B 502      -5.383   0.438   4.194  1.00148.65    -0.388 OA
HETATM   25  C10 MIQ B 502      -4.157   0.745   4.791  1.00147.44     0.187 C 
HETATM   26  C11 MIQ B 502      -3.478   2.061   4.428  1.00144.08     0.149 C 
ENDBRANCH   5  21
TORSDOF 2
ENDMDL
MODEL 2
REMARK VINA RESULT:      -7.7      1.848      2.551
REMARK  2 active torsions:
REMARK  status: ('A' for Active; 'I' for Inactive)
REMARK    1  A    between atoms: C5_5  and  N6_21 
REMARK    2  A    between atoms: C18_14  and  N17_19 
ROOT
HETATM    1  O1  MIQ B 502      -3.054   7.595  -1.062  1.00142.91    -0.171 OA
HETATM    2  C2  MIQ B 502      -1.769   7.094  -0.841  1.00141.17     0.195 A 
HETATM    3  C3  MIQ B 502      -1.379   5.969   0.171  1.00141.71     0.035 A 
HETATM    4  C4  MIQ B 502      -2.155   5.145   1.127  1.00142.86     0.046 A 
HETATM    5  C5  MIQ B 502      -1.504   4.176   1.932  1.00139.53     0.031 A 
HETATM    6  C12 MIQ B 502      -0.064   3.991   1.817  1.00139.38     0.030 A 
HETATM    7  C13 MIQ B 502       0.680   4.780   0.899  1.00141.18     0.019 A 
HETATM    8  C14 MIQ B 502      -0.010   5.794   0.055  1.00138.77     0.033 A 
HETATM    9  C15 MIQ B 502       0.453   6.815  -1.035  1.00142.10     0.195 A 
HETATM   10  N17 MIQ B 502      -0.639   7.450  -1.428  1.00139.42    -0.288 N 
HETATM   11  O16 MIQ B 502       1.756   7.014  -1.495  1.00148.93    -0.171 OA
ENDROOT
BRANCH  10  12
HETATM   12  C18 MIQ B 502      -0.588   8.495  -2.433  1.00139.82     0.187 C 
HETATM   13  C19 MIQ B 502      -0.017   7.880  -3.717  1.00140.06     0.247 C 
HETATM   14  O25 MIQ B 502      -0.491   6.886  -4.140  1.00143.95    -0.271 OA
HETATM   15  N20 MIQ B 502       1.085   8.490  -4.432  1.00140.02    -0.296 N 
HETATM   16  H13 MIQ B 502       1.453   8.076  -5.265  1.00142.77     0.171 HD
HETATM   17  C21 MIQ B 502       1.653   9.698  -3.891  1.00142.22     0.224 C 
HETATM   18  C22 MIQ B 502       1.665   9.829  -2.380  1.00139.52     0.106 C 
HETATM   19  O24 MIQ B 502       2.083  10.547  -4.592  1.00146.13    -0.273 OA
HETATM   20  C23 MIQ B 502       0.225   9.684  -1.923  1.00139.15     0.045 C 
ENDBRANCH  10  12
BRANCH   5  21
HETATM   21  N6  MIQ B 502      -2.274   3.386   2.875  1.00140.95    -0.377 N 
HETATM   22  C7  MIQ B 502      -3.684   3.692   3.049  1.00142.12     0.149 C 
HETATM   23  C8  MIQ B 502      -4.187   3.291   4.430  1.00144.10     0.187 C 
HETATM   24  O9  MIQ B 502      -3.808   1.997   4.791  1.00148.65    -0.388 OA
HETATM   25  C10 MIQ B 502      -2.874   1.293   4.027  1.00147.44     0.187 C 
HETATM   26  C11 MIQ B 502      -1.795   2.079   3.288  1.00144.08     0.149 C 
ENDBRANCH   5  21
TORSDOF 2
ENDMDL
MODEL 3
REMARK VINA RESULT:      -7.7      3.841      6.866
REMARK  2 active torsions:
REMARK  status: ('A' for Active; 'I' for Inactive)
REMARK    1  A    between atoms: C5_5  and  N6_21 
REMARK    2  A    between atoms: C18_14  and  N17_19 
ROOT
HETATM    1  O1  MIQ B 502      -1.921   5.465   1.712  1.00142.91    -0.171 OA
HETATM    2  C2  MIQ B 502      -1.115   6.176   0.821  1.00141.17     0.195 A 
HETATM    3  C3  MIQ B 502      -1.169   7.715   0.554  1.00141.71     0.035 A 
HETATM    4  C4  MIQ B 502      -2.000   8.814   1.099  1.00142.86     0.046 A 
HETATM    5  C5  MIQ B 502      -1.810  10.146   0.650  1.00139.53     0.031 A 
HETATM    6  C12 MIQ B 502      -0.793  10.433  -0.351  1.00139.38     0.030 A 
HETATM    7  C13 MIQ B 502       0.005   9.379  -0.872  1.00141.18     0.019 A 
HETATM    8  C14 MIQ B 502      -0.197   7.983  -0.396  1.00138.77     0.033 A 
HETATM    9  C15 MIQ B 502       0.465   6.604  -0.720  1.00142.10     0.195 A 
HETATM   10  N17 MIQ B 502      -0.155   5.715   0.037  1.00139.42    -0.288 N 
HETATM   11  O16 MIQ B 502       1.498   6.366  -1.628  1.00148.93    -0.171 OA
ENDROOT
BRANCH  10  12
HETATM   12  C18 MIQ B 502       0.191   4.306  -0.011  1.00139.82     0.187 C 
HETATM   13  C19 MIQ B 502       1.691   4.183   0.281  1.00140.06     0.247 C 
HETATM   14  O25 MIQ B 502       2.137   4.714   1.236  1.00143.95    -0.271 OA
HETATM   15  N20 MIQ B 502       2.578   3.427  -0.580  1.00140.02    -0.296 N 
HETATM   16  H13 MIQ B 502       3.557   3.360  -0.381  1.00142.77     0.171 HD
HETATM   17  C21 MIQ B 502       2.011   2.798  -1.745  1.00142.22     0.224 C 
HETATM   18  C22 MIQ B 502       0.860   3.520  -2.417  1.00139.52     0.106 C 
HETATM   19  O24 MIQ B 502       2.422   1.767  -2.151  1.00146.13    -0.273 OA
HETATM   20  C23 MIQ B 502      -0.210   3.706  -1.358  1.00139.15     0.045 C 
ENDBRANCH  10  12
BRANCH   5  21
HETATM   21  N6  MIQ B 502      -2.641  11.211   1.181  1.00140.95    -0.377 N 
HETATM   22  C7  MIQ B 502      -2.778  11.332   2.623  1.00142.12     0.149 C 
HETATM   23  C8  MIQ B 502      -4.092  11.995   3.015  1.00144.10     0.187 C 
HETATM   24  O9  MIQ B 502      -4.350  13.161   2.291  1.00148.65    -0.388 OA
HETATM   25  C10 MIQ B 502      -3.568  13.493   1.183  1.00147.44     0.187 C 
HETATM   26  C11 MIQ B 502      -2.954  12.366   0.359  1.00144.08     0.149 C 
ENDBRANCH   5  21
TORSDOF 2
ENDMDL
MODEL 4
REMARK VINA RESULT:      -7.5      1.662      2.309
REMARK  2 active torsions:
REMARK  status: ('A' for Active; 'I' for Inactive)
REMARK    1  A    between atoms: C5_5  and  N6_21 
REMARK    2  A    between atoms: C18_14  and  N17_19 
ROOT
HETATM    1  O1  MIQ B 502      -2.367   5.626  -0.745  1.00142.91    -0.171 OA
HETATM    2  C2  MIQ B 502      -1.552   5.035   0.224  1.00141.17     0.195 A 
HETATM    3  C3  MIQ B 502      -1.988   3.947   1.256  1.00141.71     0.035 A 
HETATM    4  C4  MIQ B 502      -3.268   3.250   1.523  1.00142.86     0.046 A 
HETATM    5  C5  MIQ B 502      -3.356   2.282   2.555  1.00139.53     0.031 A 
HETATM    6  C12 MIQ B 502      -2.181   1.972   3.357  1.00139.38     0.030 A 
HETATM    7  C13 MIQ B 502      -0.953   2.639   3.100  1.00141.18     0.019 A 
HETATM    8  C14 MIQ B 502      -0.866   3.652   2.013  1.00138.77     0.033 A 
HETATM    9  C15 MIQ B 502       0.273   4.562   1.448  1.00142.10     0.195 A 
HETATM   10  N17 MIQ B 502      -0.272   5.260   0.465  1.00139.42    -0.288 N 
HETATM   11  O16 MIQ B 502       1.593   4.624   1.896  1.00148.93    -0.171 OA
ENDROOT
BRANCH  10  12
HETATM   12  C18 MIQ B 502       0.496   6.233  -0.289  1.00139.82     0.187 C 
HETATM   13  C19 MIQ B 502      -0.259   7.566  -0.239  1.00140.06     0.247 C 
HETATM   14  O25 MIQ B 502      -0.606   7.993   0.805  1.00143.95    -0.271 OA
HETATM   15  N20 MIQ B 502      -0.555   8.323  -1.438  1.00140.02    -0.296 N 
HETATM   16  H13 MIQ B 502      -1.055   9.189  -1.392  1.00142.77     0.171 HD
HETATM   17  C21 MIQ B 502      -0.131   7.777  -2.702  1.00142.22     0.224 C 
HETATM   18  C22 MIQ B 502      -0.142   6.265  -2.829  1.00139.52     0.106 C 
HETATM   19  O24 MIQ B 502       0.213   8.474  -3.592  1.00146.13    -0.273 OA
HETATM   20  C23 MIQ B 502       0.738   5.732  -1.713  1.00139.15     0.045 C 
ENDBRANCH  10  12
BRANCH   5  21
HETATM   21  N6  MIQ B 502      -4.621   1.618   2.815  1.00140.95    -0.377 N 
HETATM   22  C7  MIQ B 502      -5.559   1.456   1.718  1.00142.12     0.149 C 
HETATM   23  C8  MIQ B 502      -6.998   1.367   2.208  1.00144.10     0.187 C 
HETATM   24  O9  MIQ B 502      -7.157   0.470   3.267  1.00148.65    -0.388 OA
HETATM   25  C10 MIQ B 502      -6.041  -0.071   3.909  1.00147.44     0.187 C 
HETATM   26  C11 MIQ B 502      -4.764   0.761   3.979  1.00144.08     0.149 C 
ENDBRANCH   5  21
TORSDOF 2
ENDMDL
MODEL 5
REMARK VINA RESULT:      -7.2      4.261      7.124
REMARK  2 active torsions:
REMARK  status: ('A' for Active; 'I' for Inactive)
REMARK    1  A    between atoms: C5_5  and  N6_21 
REMARK    2  A    between atoms: C18_14  and  N17_19 
ROOT
HETATM    1  O1  MIQ B 502      -3.963   6.035   0.102  1.00142.91    -0.171 OA
HETATM    2  C2  MIQ B 502      -2.953   6.671  -0.623  1.00141.17     0.195 A 
HETATM    3  C3  MIQ B 502      -2.477   8.147  -0.441  1.00141.71     0.035 A 
HETATM    4  C4  MIQ B 502      -2.889   9.246   0.465  1.00142.86     0.046 A 
HETATM    5  C5  MIQ B 502      -2.251  10.510   0.394  1.00139.53     0.031 A 
HETATM    6  C12 MIQ B 502      -1.187  10.729  -0.575  1.00139.38     0.030 A 
HETATM    7  C13 MIQ B 502      -0.791   9.676  -1.443  1.00141.18     0.019 A 
HETATM    8  C14 MIQ B 502      -1.462   8.350  -1.362  1.00138.77     0.033 A 
HETATM    9  C15 MIQ B 502      -1.307   6.991  -2.120  1.00142.10     0.195 A 
HETATM   10  N17 MIQ B 502      -2.201   6.173  -1.590  1.00139.42    -0.288 N 
HETATM   11  O16 MIQ B 502      -0.408   6.706  -3.149  1.00148.93    -0.171 OA
ENDROOT
BRANCH  10  12
HETATM   12  C18 MIQ B 502      -2.356   4.810  -2.064  1.00139.82     0.187 C 
HETATM   13  C19 MIQ B 502      -0.961   4.176  -2.127  1.00140.06     0.247 C 
HETATM   14  O25 MIQ B 502      -0.258   4.236  -1.182  1.00143.95    -0.271 OA
HETATM   15  N20 MIQ B 502      -0.483   3.498  -3.314  1.00140.02    -0.296 N 
HETATM   16  H13 MIQ B 502       0.432   3.094  -3.345  1.00142.77     0.171 HD
HETATM   17  C21 MIQ B 502      -1.356   3.447  -4.459  1.00142.22     0.224 C 
HETATM   18  C22 MIQ B 502      -2.266   4.640  -4.675  1.00139.52     0.106 C 
HETATM   19  O24 MIQ B 502      -1.364   2.517  -5.189  1.00146.13    -0.273 OA
HETATM   20  C23 MIQ B 502      -3.085   4.794  -3.406  1.00139.15     0.045 C 
ENDBRANCH  10  12
BRANCH   5  21
HETATM   21  N6  MIQ B 502      -2.674  11.582   1.277  1.00140.95    -0.377 N 
HETATM   22  C7  MIQ B 502      -3.365  12.724   0.702  1.00142.12     0.149 C 
HETATM   23  C8  MIQ B 502      -3.175  13.983   1.538  1.00144.10     0.187 C 
HETATM   24  O9  MIQ B 502      -3.401  13.771   2.899  1.00148.65    -0.388 OA
HETATM   25  C10 MIQ B 502      -3.550  12.475   3.399  1.00147.44     0.187 C 
HETATM   26  C11 MIQ B 502      -2.814  11.336   2.701  1.00144.08     0.149 C 
ENDBRANCH   5  21
TORSDOF 2
ENDMDL
MODEL 6
REMARK VINA RESULT:      -7.1     24.046     26.382
REMARK  2 active torsions:
REMARK  status: ('A' for Active; 'I' for Inactive)
REMARK    1  A    between atoms: C5_5  and  N6_21 
REMARK    2  A    between atoms: C18_14  and  N17_19 
ROOT
HETATM    1  O1  MIQ B 502     -19.426   3.703 -12.822  1.00142.91    -0.171 OA
HETATM    2  C2  MIQ B 502     -20.518   3.263 -13.573  1.00141.17     0.195 A 
HETATM    3  C3  MIQ B 502     -20.568   3.112 -15.127  1.00141.71     0.035 A 
HETATM    4  C4  MIQ B 502     -19.582   3.354 -16.206  1.00142.86     0.046 A 
HETATM    5  C5  MIQ B 502     -19.929   3.117 -17.560  1.00139.53     0.031 A 
HETATM    6  C12 MIQ B 502     -21.262   2.633 -17.891  1.00139.38     0.030 A 
HETATM    7  C13 MIQ B 502     -22.207   2.400 -16.856  1.00141.18     0.019 A 
HETATM    8  C14 MIQ B 502     -21.836   2.648 -15.436  1.00138.77     0.033 A 
HETATM    9  C15 MIQ B 502     -22.578   2.510 -14.066  1.00142.10     0.195 A 
HETATM   10  N17 MIQ B 502     -21.710   2.886 -13.141  1.00139.42    -0.288 N 
HETATM   11  O16 MIQ B 502     -23.890   2.079 -13.866  1.00148.93    -0.171 OA
ENDROOT
BRANCH  10  12
HETATM   12  C18 MIQ B 502     -22.061   2.902 -11.734  1.00139.82     0.187 C 
HETATM   13  C19 MIQ B 502     -22.489   1.482 -11.343  1.00140.06     0.247 C 
HETATM   14  O25 MIQ B 502     -21.785   0.574 -11.611  1.00143.95    -0.271 OA
HETATM   15  N20 MIQ B 502     -23.733   1.223 -10.647  1.00140.02    -0.296 N 
HETATM   16  H13 MIQ B 502     -24.004   0.291 -10.404  1.00142.77     0.171 HD
HETATM   17  C21 MIQ B 502     -24.581   2.347 -10.340  1.00142.22     0.224 C 
HETATM   18  C22 MIQ B 502     -24.582   3.491 -11.336  1.00139.52     0.106 C 
HETATM   19  O24 MIQ B 502     -25.237   2.375  -9.358  1.00146.13    -0.273 OA
HETATM   20  C23 MIQ B 502     -23.141   3.950 -11.467  1.00139.15     0.045 C 
ENDBRANCH  10  12
BRANCH   5  21
HETATM   21  N6  MIQ B 502     -18.958   3.373 -18.609  1.00140.95    -0.377 N 
HETATM   22  C7  MIQ B 502     -18.043   2.308 -18.982  1.00142.12     0.149 C 
HETATM   23  C8  MIQ B 502     -16.742   2.852 -19.559  1.00144.10     0.187 C 
HETATM   24  O9  MIQ B 502     -16.948   3.832 -20.533  1.00148.65    -0.388 OA
HETATM   25  C10 MIQ B 502     -18.220   4.372 -20.735  1.00147.44     0.187 C 
HETATM   26  C11 MIQ B 502     -19.173   4.460 -19.548  1.00144.08     0.149 C 
ENDBRANCH   5  21
TORSDOF 2
ENDMDL
MODEL 7
REMARK VINA RESULT:      -7.1      1.998      2.403
REMARK  2 active torsions:
REMARK  status: ('A' for Active; 'I' for Inactive)
REMARK    1  A    between atoms: C5_5  and  N6_21 
REMARK    2  A    between atoms: C18_14  and  N17_19 
ROOT
HETATM    1  O1  MIQ B 502      -2.188   4.079  -1.579  1.00142.91    -0.171 OA
HETATM    2  C2  MIQ B 502      -2.043   4.821  -0.404  1.00141.17     0.195 A 
HETATM    3  C3  MIQ B 502      -2.486   4.378   1.027  1.00141.71     0.035 A 
HETATM    4  C4  MIQ B 502      -3.134   3.156   1.561  1.00142.86     0.046 A 
HETATM    5  C5  MIQ B 502      -3.417   3.042   2.945  1.00139.53     0.031 A 
HETATM    6  C12 MIQ B 502      -3.068   4.131   3.846  1.00139.38     0.030 A 
HETATM    7  C13 MIQ B 502      -2.446   5.302   3.335  1.00141.18     0.019 A 
HETATM    8  C14 MIQ B 502      -2.149   5.415   1.881  1.00138.77     0.033 A 
HETATM    9  C15 MIQ B 502      -1.493   6.508   0.975  1.00142.10     0.195 A 
HETATM   10  N17 MIQ B 502      -1.510   6.021  -0.255  1.00139.42    -0.288 N 
HETATM   11  O16 MIQ B 502      -0.995   7.745   1.386  1.00148.93    -0.171 OA
ENDROOT
BRANCH  10  12
HETATM   12  C18 MIQ B 502      -0.989   6.780  -1.377  1.00139.82     0.187 C 
HETATM   13  C19 MIQ B 502      -2.184   7.291  -2.191  1.00140.06     0.247 C 
HETATM   14  O25 MIQ B 502      -3.054   7.864  -1.638  1.00143.95    -0.271 OA
HETATM   15  N20 MIQ B 502      -2.272   7.095  -3.623  1.00140.02    -0.296 N 
HETATM   16  H13 MIQ B 502      -3.060   7.427  -4.143  1.00142.77     0.171 HD
HETATM   17  C21 MIQ B 502      -1.202   6.383  -4.274  1.00142.22     0.224 C 
HETATM   18  C22 MIQ B 502      -0.532   5.281  -3.475  1.00139.52     0.106 C 
HETATM   19  O24 MIQ B 502      -0.860   6.650  -5.373  1.00146.13    -0.273 OA
HETATM   20  C23 MIQ B 502      -0.025   5.923  -2.196  1.00139.15     0.045 C 
ENDBRANCH  10  12
BRANCH   5  21
HETATM   21  N6  MIQ B 502      -4.065   1.846   3.452  1.00140.95    -0.377 N 
HETATM   22  C7  MIQ B 502      -4.959   1.114   2.571  1.00142.12     0.149 C 
HETATM   23  C8  MIQ B 502      -6.014   0.338   3.349  1.00144.10     0.187 C 
HETATM   24  O9  MIQ B 502      -5.476  -0.403   4.403  1.00148.65    -0.388 OA
HETATM   25  C10 MIQ B 502      -4.146  -0.219   4.791  1.00147.44     0.187 C 
HETATM   26  C11 MIQ B 502      -3.516   1.157   4.607  1.00144.08     0.149 C 
ENDBRANCH   5  21
TORSDOF 2
ENDMDL
MODEL 8
REMARK VINA RESULT:      -6.9      1.604      2.263
REMARK  2 active torsions:
REMARK  status: ('A' for Active; 'I' for Inactive)
REMARK    1  A    between atoms: C5_5  and  N6_21 
REMARK    2  A    between atoms: C18_14  and  N17_19 
ROOT
HETATM    1  O1  MIQ B 502       1.374   5.499   0.397  1.00142.91    -0.171 OA
HETATM    2  C2  MIQ B 502       0.143   6.082   0.088  1.00141.17     0.195 A 
HETATM    3  C3  MIQ B 502      -1.259   5.576   0.553  1.00141.71     0.035 A 
HETATM    4  C4  MIQ B 502      -1.705   4.437   1.389  1.00142.86     0.046 A 
HETATM    5  C5  MIQ B 502      -3.085   4.231   1.644  1.00139.53     0.031 A 
HETATM    6  C12 MIQ B 502      -4.068   5.147   1.081  1.00139.38     0.030 A 
HETATM    7  C13 MIQ B 502      -3.640   6.240   0.281  1.00141.18     0.019 A 
HETATM    8  C14 MIQ B 502      -2.190   6.452   0.019  1.00138.77     0.033 A 
HETATM    9  C15 MIQ B 502      -1.361   7.507  -0.783  1.00142.10     0.195 A 
HETATM   10  N17 MIQ B 502      -0.092   7.160  -0.640  1.00139.42    -0.288 N 
HETATM   11  O16 MIQ B 502      -1.863   8.592  -1.504  1.00148.93    -0.171 OA
ENDROOT
BRANCH  10  12
HETATM   12  C18 MIQ B 502       0.975   7.915  -1.270  1.00139.82     0.187 C 
HETATM   13  C19 MIQ B 502       0.686   9.405  -1.052  1.00140.06     0.247 C 
HETATM   14  O25 MIQ B 502       0.456   9.793   0.038  1.00143.95    -0.271 OA
HETATM   15  N20 MIQ B 502       0.693  10.353  -2.147  1.00140.02    -0.296 N 
HETATM   16  H13 MIQ B 502       0.496  11.322  -1.993  1.00142.77     0.171 HD
HETATM   17  C21 MIQ B 502       0.966   9.853  -3.470  1.00142.22     0.224 C 
HETATM   18  C22 MIQ B 502       0.476   8.453  -3.784  1.00139.52     0.106 C 
HETATM   19  O24 MIQ B 502       1.549  10.502  -4.268  1.00146.13    -0.273 OA
HETATM   20  C23 MIQ B 502       1.095   7.536  -2.745  1.00139.15     0.045 C 
ENDBRANCH  10  12
BRANCH   5  21
HETATM   21  N6  MIQ B 502      -3.509   3.103   2.452  1.00140.95    -0.377 N 
HETATM   22  C7  MIQ B 502      -3.768   3.318   3.865  1.00142.12     0.149 C 
HETATM   23  C8  MIQ B 502      -3.564   2.048   4.681  1.00144.10     0.187 C 
HETATM   24  O9  MIQ B 502      -4.196   0.936   4.122  1.00148.65    -0.388 OA
HETATM   25  C10 MIQ B 502      -4.736   1.001   2.835  1.00147.44     0.187 C 
HETATM   26  C11 MIQ B 502      -4.083   1.930   1.816  1.00144.08     0.149 C 
ENDBRANCH   5  21
TORSDOF 2
ENDMDL
MODEL 9
REMARK VINA RESULT:      -6.8      4.534      7.297
REMARK  2 active torsions:
REMARK  status: ('A' for Active; 'I' for Inactive)
REMARK    1  A    between atoms: C5_5  and  N6_21 
REMARK    2  A    between atoms: C18_14  and  N17_19 
ROOT
HETATM    1  O1  MIQ B 502      -2.877   8.060  -2.545  1.00142.91    -0.171 OA
HETATM    2  C2  MIQ B 502      -2.223   7.904  -1.321  1.00141.17     0.195 A 
HETATM    3  C3  MIQ B 502      -2.235   8.917  -0.133  1.00141.71     0.035 A 
HETATM    4  C4  MIQ B 502      -2.877  10.237   0.075  1.00142.86     0.046 A 
HETATM    5  C5  MIQ B 502      -2.701  10.936   1.295  1.00139.53     0.031 A 
HETATM    6  C12 MIQ B 502      -1.885  10.353   2.351  1.00139.38     0.030 A 
HETATM    7  C13 MIQ B 502      -1.270   9.087   2.153  1.00141.18     0.019 A 
HETATM    8  C14 MIQ B 502      -1.461   8.357   0.870  1.00138.77     0.033 A 
HETATM    9  C15 MIQ B 502      -0.965   6.988   0.301  1.00142.10     0.195 A 
HETATM   10  N17 MIQ B 502      -1.477   6.891  -0.915  1.00139.42    -0.288 N 
HETATM   11  O16 MIQ B 502      -0.146   6.061   0.948  1.00148.93    -0.171 OA
ENDROOT
BRANCH  10  12
HETATM   12  C18 MIQ B 502      -1.211   5.741  -1.759  1.00139.82     0.187 C 
HETATM   13  C19 MIQ B 502      -0.682   6.259  -3.102  1.00140.06     0.247 C 
HETATM   14  O25 MIQ B 502       0.213   7.027  -3.111  1.00143.95    -0.271 OA
HETATM   15  N20 MIQ B 502      -1.247   5.826  -4.364  1.00140.02    -0.296 N 
HETATM   16  H13 MIQ B 502      -0.896   6.177  -5.234  1.00142.77     0.171 HD
HETATM   17  C21 MIQ B 502      -2.345   4.895  -4.327  1.00142.22     0.224 C 
HETATM   18  C22 MIQ B 502      -3.304   5.018  -3.159  1.00139.52     0.106 C 
HETATM   19  O24 MIQ B 502      -2.487   4.074  -5.165  1.00146.13    -0.273 OA
HETATM   20  C23 MIQ B 502      -2.468   4.882  -1.899  1.00139.15     0.045 C 
ENDBRANCH  10  12
BRANCH   5  21
HETATM   21  N6  MIQ B 502      -3.324  12.235   1.479  1.00140.95    -0.377 N 
HETATM   22  C7  MIQ B 502      -2.889  13.338   0.640  1.00142.12     0.149 C 
HETATM   23  C8  MIQ B 502      -3.102  14.686   1.318  1.00144.10     0.187 C 
HETATM   24  O9  MIQ B 502      -4.378  14.821   1.869  1.00148.65    -0.388 OA
HETATM   25  C10 MIQ B 502      -5.230  13.718   1.960  1.00147.44     0.187 C 
HETATM   26  C11 MIQ B 502      -4.615  12.334   2.136  1.00144.08     0.149 C 
ENDBRANCH   5  21
TORSDOF 2
ENDMDL
