MODEL 1
REMARK VINA RESULT:      -7.1      0.000      0.000
REMARK  2 active torsions:
REMARK  status: ('A' for Active; 'I' for Inactive)
REMARK    1  A    between atoms: C5_5  and  N6_21 
REMARK    2  A    between atoms: C18_14  and  N17_19 
ROOT
HETATM    1  O1  MIQ B 502     -13.100   9.289   7.452  1.00142.91    -0.171 OA
HETATM    2  C2  MIQ B 502     -13.621   8.018   7.200  1.00141.17     0.195 A 
HETATM    3  C3  MIQ B 502     -13.558   6.788   8.161  1.00141.71     0.035 A 
HETATM    4  C4  MIQ B 502     -12.991   6.580   9.514  1.00142.86     0.046 A 
HETATM    5  C5  MIQ B 502     -13.094   5.316  10.148  1.00139.53     0.031 A 
HETATM    6  C12 MIQ B 502     -13.761   4.218   9.465  1.00139.38     0.030 A 
HETATM    7  C13 MIQ B 502     -14.306   4.417   8.168  1.00141.18     0.019 A 
HETATM    8  C14 MIQ B 502     -14.197   5.746   7.508  1.00138.77     0.033 A 
HETATM    9  C15 MIQ B 502     -14.660   6.333   6.135  1.00142.10     0.195 A 
HETATM   10  N17 MIQ B 502     -14.266   7.596   6.126  1.00139.42    -0.288 N 
HETATM   11  O16 MIQ B 502     -15.346   5.656   5.125  1.00148.93    -0.171 OA
ENDROOT
BRANCH  10  12
HETATM   12  C18 MIQ B 502     -14.513   8.458   4.985  1.00139.82     0.187 C 
HETATM   13  C19 MIQ B 502     -16.027   8.493   4.745  1.00140.06     0.247 C 
HETATM   14  O25 MIQ B 502     -16.748   8.738   5.647  1.00143.95    -0.271 OA
HETATM   15  N20 MIQ B 502     -16.600   8.240   3.439  1.00140.02    -0.296 N 
HETATM   16  H13 MIQ B 502     -17.590   8.259   3.297  1.00142.77     0.171 HD
HETATM   17  C21 MIQ B 502     -15.700   7.933   2.357  1.00142.22     0.224 C 
HETATM   18  C22 MIQ B 502     -14.445   7.160   2.712  1.00139.52     0.106 C 
HETATM   19  O24 MIQ B 502     -15.929   8.273   1.248  1.00146.13    -0.273 OA
HETATM   20  C23 MIQ B 502     -13.723   7.973   3.771  1.00139.15     0.045 C 
ENDBRANCH  10  12
BRANCH   5  21
HETATM   21  N6  MIQ B 502     -12.521   5.123  11.468  1.00140.95    -0.377 N 
HETATM   22  C7  MIQ B 502     -12.171   3.775  11.883  1.00142.12     0.149 C 
HETATM   23  C8  MIQ B 502     -12.210   3.618  13.397  1.00144.10     0.187 C 
HETATM   24  O9  MIQ B 502     -11.538   4.642  14.067  1.00148.65    -0.388 OA
HETATM   25  C10 MIQ B 502     -11.106   5.776  13.375  1.00147.44     0.187 C 
HETATM   26  C11 MIQ B 502     -11.907   6.241  12.163  1.00144.08     0.149 C 
ENDBRANCH   5  21
TORSDOF 2
ENDMDL
MODEL 2
REMARK VINA RESULT:      -6.7      1.517      1.961
REMARK  2 active torsions:
REMARK  status: ('A' for Active; 'I' for Inactive)
REMARK    1  A    between atoms: C5_5  and  N6_21 
REMARK    2  A    between atoms: C18_14  and  N17_19 
ROOT
HETATM    1  O1  MIQ B 502     -13.920   9.203   8.442  1.00142.91    -0.171 OA
HETATM    2  C2  MIQ B 502     -13.981   7.812   8.328  1.00141.17     0.195 A 
HETATM    3  C3  MIQ B 502     -13.478   6.777   9.384  1.00141.71     0.035 A 
HETATM    4  C4  MIQ B 502     -12.840   6.908  10.716  1.00142.86     0.046 A 
HETATM    5  C5  MIQ B 502     -12.488   5.753  11.459  1.00139.53     0.031 A 
HETATM    6  C12 MIQ B 502     -12.756   4.431  10.910  1.00139.38     0.030 A 
HETATM    7  C13 MIQ B 502     -13.369   4.305   9.634  1.00141.18     0.019 A 
HETATM    8  C14 MIQ B 502     -13.738   5.522   8.860  1.00138.77     0.033 A 
HETATM    9  C15 MIQ B 502     -14.408   5.779   7.470  1.00142.10     0.195 A 
HETATM   10  N17 MIQ B 502     -14.470   7.093   7.332  1.00139.42    -0.288 N 
HETATM   11  O16 MIQ B 502     -14.847   4.813   6.563  1.00148.93    -0.171 OA
ENDROOT
BRANCH  10  12
HETATM   12  C18 MIQ B 502     -15.026   7.704   6.139  1.00139.82     0.187 C 
HETATM   13  C19 MIQ B 502     -16.443   7.149   5.947  1.00140.06     0.247 C 
HETATM   14  O25 MIQ B 502     -17.200   7.179   6.851  1.00143.95    -0.271 OA
HETATM   15  N20 MIQ B 502     -16.881   6.594   4.683  1.00140.02    -0.296 N 
HETATM   16  H13 MIQ B 502     -17.807   6.229   4.572  1.00142.77     0.171 HD
HETATM   17  C21 MIQ B 502     -15.935   6.560   3.597  1.00142.22     0.224 C 
HETATM   18  C22 MIQ B 502     -14.480   6.345   3.968  1.00139.52     0.106 C 
HETATM   19  O24 MIQ B 502     -16.277   6.698   2.475  1.00146.13    -0.273 OA
HETATM   20  C23 MIQ B 502     -14.114   7.453   4.939  1.00139.15     0.045 C 
ENDBRANCH  10  12
BRANCH   5  21
HETATM   21  N6  MIQ B 502     -11.850   5.896  12.755  1.00140.95    -0.377 N 
HETATM   22  C7  MIQ B 502     -11.822   7.210  13.374  1.00142.12     0.149 C 
HETATM   23  C8  MIQ B 502     -10.642   7.366  14.324  1.00144.10     0.187 C 
HETATM   24  O9  MIQ B 502     -10.505   6.290  15.202  1.00148.65    -0.388 OA
HETATM   25  C10 MIQ B 502     -11.256   5.126  15.017  1.00147.44     0.187 C 
HETATM   26  C11 MIQ B 502     -11.652   4.731  13.599  1.00144.08     0.149 C 
ENDBRANCH   5  21
TORSDOF 2
ENDMDL
MODEL 3
REMARK VINA RESULT:      -6.6      1.537      2.578
REMARK  2 active torsions:
REMARK  status: ('A' for Active; 'I' for Inactive)
REMARK    1  A    between atoms: C5_5  and  N6_21 
REMARK    2  A    between atoms: C18_14  and  N17_19 
ROOT
HETATM    1  O1  MIQ B 502     -15.071   4.788   6.751  1.00142.91    -0.171 OA
HETATM    2  C2  MIQ B 502     -14.391   5.980   7.013  1.00141.17     0.195 A 
HETATM    3  C3  MIQ B 502     -13.574   6.311   8.302  1.00141.71     0.035 A 
HETATM    4  C4  MIQ B 502     -13.275   5.555   9.542  1.00142.86     0.046 A 
HETATM    5  C5  MIQ B 502     -12.482   6.137  10.563  1.00139.53     0.031 A 
HETATM    6  C12 MIQ B 502     -11.956   7.484  10.390  1.00139.38     0.030 A 
HETATM    7  C13 MIQ B 502     -12.241   8.208   9.202  1.00141.18     0.019 A 
HETATM    8  C14 MIQ B 502     -13.073   7.591   8.132  1.00138.77     0.033 A 
HETATM    9  C15 MIQ B 502     -13.582   8.058   6.729  1.00142.10     0.195 A 
HETATM   10  N17 MIQ B 502     -14.291   7.051   6.245  1.00139.42    -0.288 N 
HETATM   11  O16 MIQ B 502     -13.338   9.289   6.118  1.00148.93    -0.171 OA
ENDROOT
BRANCH  10  12
HETATM   12  C18 MIQ B 502     -14.939   7.135   4.949  1.00139.82     0.187 C 
HETATM   13  C19 MIQ B 502     -16.441   6.913   5.162  1.00140.06     0.247 C 
HETATM   14  O25 MIQ B 502     -17.007   7.548   5.979  1.00143.95    -0.271 OA
HETATM   15  N20 MIQ B 502     -17.188   5.947   4.382  1.00140.02    -0.296 N 
HETATM   16  H13 MIQ B 502     -18.167   5.807   4.535  1.00142.77     0.171 HD
HETATM   17  C21 MIQ B 502     -16.472   5.177   3.398  1.00142.22     0.224 C 
HETATM   18  C22 MIQ B 502     -15.034   4.823   3.723  1.00139.52     0.106 C 
HETATM   19  O24 MIQ B 502     -16.982   4.843   2.385  1.00146.13    -0.273 OA
HETATM   20  C23 MIQ B 502     -14.314   6.136   3.977  1.00139.15     0.045 C 
ENDBRANCH  10  12
BRANCH   5  21
HETATM   21  N6  MIQ B 502     -12.210   5.391  11.778  1.00140.95    -0.377 N 
HETATM   22  C7  MIQ B 502     -12.250   6.094  13.048  1.00142.12     0.149 C 
HETATM   23  C8  MIQ B 502     -11.363   5.430  14.094  1.00144.10     0.187 C 
HETATM   24  O9  MIQ B 502     -11.553   4.049  14.170  1.00148.65    -0.388 OA
HETATM   25  C10 MIQ B 502     -12.313   3.385  13.204  1.00147.44     0.187 C 
HETATM   26  C11 MIQ B 502     -12.338   3.944  11.785  1.00144.08     0.149 C 
ENDBRANCH   5  21
TORSDOF 2
ENDMDL
MODEL 4
REMARK VINA RESULT:      -6.5     18.897     21.215
REMARK  2 active torsions:
REMARK  status: ('A' for Active; 'I' for Inactive)
REMARK    1  A    between atoms: C5_5  and  N6_21 
REMARK    2  A    between atoms: C18_14  and  N17_19 
ROOT
HETATM    1  O1  MIQ B 502     -25.360  -3.494  -4.956  1.00142.91    -0.171 OA
HETATM    2  C2  MIQ B 502     -26.589  -3.906  -4.436  1.00141.17     0.195 A 
HETATM    3  C3  MIQ B 502     -26.922  -5.324  -3.871  1.00141.71     0.035 A 
HETATM    4  C4  MIQ B 502     -26.133  -6.569  -3.712  1.00142.86     0.046 A 
HETATM    5  C5  MIQ B 502     -26.727  -7.727  -3.149  1.00139.53     0.031 A 
HETATM    6  C12 MIQ B 502     -28.119  -7.691  -2.725  1.00139.38     0.030 A 
HETATM    7  C13 MIQ B 502     -28.876  -6.497  -2.876  1.00141.18     0.019 A 
HETATM    8  C14 MIQ B 502     -28.246  -5.284  -3.466  1.00138.77     0.033 A 
HETATM    9  C15 MIQ B 502     -28.737  -3.833  -3.780  1.00142.10     0.195 A 
HETATM   10  N17 MIQ B 502     -27.701  -3.203  -4.308  1.00139.42    -0.288 N 
HETATM   11  O16 MIQ B 502     -30.012  -3.315  -3.549  1.00148.93    -0.171 OA
ENDROOT
BRANCH  10  12
HETATM   12  C18 MIQ B 502     -27.795  -1.822  -4.742  1.00139.82     0.187 C 
HETATM   13  C19 MIQ B 502     -27.320  -1.755  -6.198  1.00140.06     0.247 C 
HETATM   14  O25 MIQ B 502     -27.782  -2.498  -6.990  1.00143.95    -0.271 OA
HETATM   15  N20 MIQ B 502     -26.320  -0.801  -6.632  1.00140.02    -0.296 N 
HETATM   16  H13 MIQ B 502     -26.013  -0.772  -7.585  1.00142.77     0.171 HD
HETATM   17  C21 MIQ B 502     -25.763   0.088  -5.646  1.00142.22     0.224 C 
HETATM   18  C22 MIQ B 502     -25.614  -0.462  -4.240  1.00139.52     0.106 C 
HETATM   19  O24 MIQ B 502     -25.442   1.192  -5.919  1.00146.13    -0.273 OA
HETATM   20  C23 MIQ B 502     -26.996  -0.915  -3.806  1.00139.15     0.045 C 
ENDBRANCH  10  12
BRANCH   5  21
HETATM   21  N6  MIQ B 502     -25.947  -8.943  -3.013  1.00140.95    -0.377 N 
HETATM   22  C7  MIQ B 502     -24.737  -8.906  -2.211  1.00142.12     0.149 C 
HETATM   23  C8  MIQ B 502     -23.729  -9.959  -2.654  1.00144.10     0.187 C 
HETATM   24  O9  MIQ B 502     -24.299 -11.223  -2.816  1.00148.65    -0.388 OA
HETATM   25  C10 MIQ B 502     -25.687 -11.382  -2.789  1.00147.44     0.187 C 
HETATM   26  C11 MIQ B 502     -26.562 -10.233  -3.276  1.00144.08     0.149 C 
ENDBRANCH   5  21
TORSDOF 2
ENDMDL
MODEL 5
REMARK VINA RESULT:      -6.5      1.562      2.725
REMARK  2 active torsions:
REMARK  status: ('A' for Active; 'I' for Inactive)
REMARK    1  A    between atoms: C5_5  and  N6_21 
REMARK    2  A    between atoms: C18_14  and  N17_19 
ROOT
HETATM    1  O1  MIQ B 502     -16.086   4.072   8.379  1.00142.91    -0.171 OA
HETATM    2  C2  MIQ B 502     -15.139   5.082   8.190  1.00141.17     0.195 A 
HETATM    3  C3  MIQ B 502     -14.044   5.522   9.213  1.00141.71     0.035 A 
HETATM    4  C4  MIQ B 502     -13.679   5.064  10.575  1.00142.86     0.046 A 
HETATM    5  C5  MIQ B 502     -12.605   5.673  11.272  1.00139.53     0.031 A 
HETATM    6  C12 MIQ B 502     -11.857   6.754  10.645  1.00139.38     0.030 A 
HETATM    7  C13 MIQ B 502     -12.206   7.192   9.340  1.00141.18     0.019 A 
HETATM    8  C14 MIQ B 502     -13.333   6.547   8.612  1.00138.77     0.033 A 
HETATM    9  C15 MIQ B 502     -13.991   6.745   7.207  1.00142.10     0.195 A 
HETATM   10  N17 MIQ B 502     -14.969   5.857   7.133  1.00139.42    -0.288 N 
HETATM   11  O16 MIQ B 502     -13.619   7.674   6.233  1.00148.93    -0.171 OA
ENDROOT
BRANCH  10  12
HETATM   12  C18 MIQ B 502     -15.818   5.761   5.960  1.00139.82     0.187 C 
HETATM   13  C19 MIQ B 502     -14.917   5.469   4.754  1.00140.06     0.247 C 
HETATM   14  O25 MIQ B 502     -14.146   4.579   4.813  1.00143.95    -0.271 OA
HETATM   15  N20 MIQ B 502     -14.991   6.254   3.538  1.00140.02    -0.296 N 
HETATM   16  H13 MIQ B 502     -14.392   6.057   2.760  1.00142.77     0.171 HD
HETATM   17  C21 MIQ B 502     -15.933   7.342   3.494  1.00142.22     0.224 C 
HETATM   18  C22 MIQ B 502     -16.186   8.078   4.795  1.00139.52     0.106 C 
HETATM   19  O24 MIQ B 502     -16.484   7.641   2.492  1.00146.13    -0.273 OA
HETATM   20  C23 MIQ B 502     -16.646   7.035   5.798  1.00139.15     0.045 C 
ENDBRANCH  10  12
BRANCH   5  21
HETATM   21  N6  MIQ B 502     -12.268   5.224  12.611  1.00140.95    -0.377 N 
HETATM   22  C7  MIQ B 502     -12.026   3.809  12.828  1.00142.12     0.149 C 
HETATM   23  C8  MIQ B 502     -12.324   3.395  14.264  1.00144.10     0.187 C 
HETATM   24  O9  MIQ B 502     -11.750   4.251  15.206  1.00148.65    -0.388 OA
HETATM   25  C10 MIQ B 502     -11.180   5.462  14.808  1.00147.44     0.187 C 
HETATM   26  C11 MIQ B 502     -11.753   6.171  13.585  1.00144.08     0.149 C 
ENDBRANCH   5  21
TORSDOF 2
ENDMDL
MODEL 6
REMARK VINA RESULT:      -6.5      2.264      7.980
REMARK  2 active torsions:
REMARK  status: ('A' for Active; 'I' for Inactive)
REMARK    1  A    between atoms: C5_5  and  N6_21 
REMARK    2  A    between atoms: C18_14  and  N17_19 
ROOT
HETATM    1  O1  MIQ B 502     -12.314   6.461   8.206  1.00142.91    -0.171 OA
HETATM    2  C2  MIQ B 502     -13.696   6.515   8.013  1.00141.17     0.195 A 
HETATM    3  C3  MIQ B 502     -14.436   6.532   6.637  1.00141.71     0.035 A 
HETATM    4  C4  MIQ B 502     -13.971   6.498   5.230  1.00142.86     0.046 A 
HETATM    5  C5  MIQ B 502     -14.907   6.525   4.166  1.00139.53     0.031 A 
HETATM    6  C12 MIQ B 502     -16.332   6.587   4.458  1.00139.38     0.030 A 
HETATM    7  C13 MIQ B 502     -16.778   6.618   5.807  1.00141.18     0.019 A 
HETATM    8  C14 MIQ B 502     -15.791   6.587   6.920  1.00138.77     0.033 A 
HETATM    9  C15 MIQ B 502     -15.893   6.603   8.480  1.00142.10     0.195 A 
HETATM   10  N17 MIQ B 502     -14.649   6.556   8.928  1.00139.42    -0.288 N 
HETATM   11  O16 MIQ B 502     -17.062   6.659   9.241  1.00148.93    -0.171 OA
ENDROOT
BRANCH  10  12
HETATM   12  C18 MIQ B 502     -14.355   6.570  10.349  1.00139.82     0.187 C 
HETATM   13  C19 MIQ B 502     -13.405   7.743  10.618  1.00140.06     0.247 C 
HETATM   14  O25 MIQ B 502     -13.685   8.816  10.215  1.00143.95    -0.271 OA
HETATM   15  N20 MIQ B 502     -12.171   7.573  11.359  1.00140.02    -0.296 N 
HETATM   16  H13 MIQ B 502     -11.556   8.346  11.522  1.00142.77     0.171 HD
HETATM   17  C21 MIQ B 502     -11.845   6.252  11.831  1.00142.22     0.224 C 
HETATM   18  C22 MIQ B 502     -12.283   5.090  10.960  1.00139.52     0.106 C 
HETATM   19  O24 MIQ B 502     -11.269   6.085  12.849  1.00146.13    -0.273 OA
HETATM   20  C23 MIQ B 502     -13.785   5.222  10.788  1.00139.15     0.045 C 
ENDBRANCH  10  12
BRANCH   5  21
HETATM   21  N6  MIQ B 502     -14.438   6.507   2.792  1.00140.95    -0.377 N 
HETATM   22  C7  MIQ B 502     -15.128   5.660   1.834  1.00142.12     0.149 C 
HETATM   23  C8  MIQ B 502     -14.216   5.235   0.690  1.00144.10     0.187 C 
HETATM   24  O9  MIQ B 502     -13.501   6.301   0.140  1.00148.65    -0.388 OA
HETATM   25  C10 MIQ B 502     -13.493   7.548   0.770  1.00147.44     0.187 C 
HETATM   26  C11 MIQ B 502     -13.624   7.599   2.289  1.00144.08     0.149 C 
ENDBRANCH   5  21
TORSDOF 2
ENDMDL
MODEL 7
REMARK VINA RESULT:      -6.5     15.451     19.302
REMARK  2 active torsions:
REMARK  status: ('A' for Active; 'I' for Inactive)
REMARK    1  A    between atoms: C5_5  and  N6_21 
REMARK    2  A    between atoms: C18_14  and  N17_19 
ROOT
HETATM    1  O1  MIQ B 502     -14.603  -8.792  13.243  1.00142.91    -0.171 OA
HETATM    2  C2  MIQ B 502     -15.387  -9.367  14.245  1.00141.17     0.195 A 
HETATM    3  C3  MIQ B 502     -16.087 -10.762  14.181  1.00141.71     0.035 A 
HETATM    4  C4  MIQ B 502     -16.144 -11.828  13.152  1.00142.86     0.046 A 
HETATM    5  C5  MIQ B 502     -16.880 -13.016  13.391  1.00139.53     0.031 A 
HETATM    6  C12 MIQ B 502     -17.582 -13.189  14.654  1.00139.38     0.030 A 
HETATM    7  C13 MIQ B 502     -17.526 -12.169  15.642  1.00141.18     0.019 A 
HETATM    8  C14 MIQ B 502     -16.750 -10.925  15.387  1.00138.77     0.033 A 
HETATM    9  C15 MIQ B 502     -16.460  -9.623  16.203  1.00142.10     0.195 A 
HETATM   10  N17 MIQ B 502     -15.693  -8.871  15.432  1.00139.42    -0.288 N 
HETATM   11  O16 MIQ B 502     -16.922  -9.320  17.485  1.00148.93    -0.171 OA
ENDROOT
BRANCH  10  12
HETATM   12  C18 MIQ B 502     -15.234  -7.564  15.863  1.00139.82     0.187 C 
HETATM   13  C19 MIQ B 502     -15.424  -6.591  14.693  1.00140.06     0.247 C 
HETATM   14  O25 MIQ B 502     -16.473  -6.534  14.156  1.00143.95    -0.271 OA
HETATM   15  N20 MIQ B 502     -14.352  -5.734  14.231  1.00140.02    -0.296 N 
HETATM   16  H13 MIQ B 502     -14.488  -5.108  13.461  1.00142.77     0.171 HD
HETATM   17  C21 MIQ B 502     -13.078  -5.829  14.895  1.00142.22     0.224 C 
HETATM   18  C22 MIQ B 502     -12.680  -7.198  15.413  1.00139.52     0.106 C 
HETATM   19  O24 MIQ B 502     -12.381  -4.885  15.033  1.00146.13    -0.273 OA
HETATM   20  C23 MIQ B 502     -13.788  -7.643  16.351  1.00139.15     0.045 C 
ENDBRANCH  10  12
BRANCH   5  21
HETATM   21  N6  MIQ B 502     -16.940 -14.044  12.368  1.00140.95    -0.377 N 
HETATM   22  C7  MIQ B 502     -17.378 -13.672  11.034  1.00142.12     0.149 C 
HETATM   23  C8  MIQ B 502     -17.999 -14.848  10.291  1.00144.10     0.187 C 
HETATM   24  O9  MIQ B 502     -17.224 -16.007  10.363  1.00148.65    -0.388 OA
HETATM   25  C10 MIQ B 502     -16.133 -16.075  11.233  1.00147.44     0.187 C 
HETATM   26  C11 MIQ B 502     -16.182 -15.272  12.529  1.00144.08     0.149 C 
ENDBRANCH   5  21
TORSDOF 2
ENDMDL
MODEL 8
REMARK VINA RESULT:      -6.4      2.336      3.858
REMARK  2 active torsions:
REMARK  status: ('A' for Active; 'I' for Inactive)
REMARK    1  A    between atoms: C5_5  and  N6_21 
REMARK    2  A    between atoms: C18_14  and  N17_19 
ROOT
HETATM    1  O1  MIQ B 502     -14.366   4.595   8.791  1.00142.91    -0.171 OA
HETATM    2  C2  MIQ B 502     -13.653   5.652   9.360  1.00141.17     0.195 A 
HETATM    3  C3  MIQ B 502     -12.976   5.657  10.767  1.00141.71     0.035 A 
HETATM    4  C4  MIQ B 502     -12.872   4.651  11.851  1.00142.86     0.046 A 
HETATM    5  C5  MIQ B 502     -12.171   4.954  13.046  1.00139.53     0.031 A 
HETATM    6  C12 MIQ B 502     -11.551   6.261  13.207  1.00139.38     0.030 A 
HETATM    7  C13 MIQ B 502     -11.650   7.226  12.169  1.00141.18     0.019 A 
HETATM    8  C14 MIQ B 502     -12.384   6.900  10.915  1.00138.77     0.033 A 
HETATM    9  C15 MIQ B 502     -12.695   7.673   9.592  1.00142.10     0.195 A 
HETATM   10  N17 MIQ B 502     -13.400   6.842   8.841  1.00139.42    -0.288 N 
HETATM   11  O16 MIQ B 502     -12.308   8.976   9.274  1.00148.93    -0.171 OA
ENDROOT
BRANCH  10  12
HETATM   12  C18 MIQ B 502     -13.884   7.231   7.530  1.00139.82     0.187 C 
HETATM   13  C19 MIQ B 502     -15.406   7.044   7.518  1.00140.06     0.247 C 
HETATM   14  O25 MIQ B 502     -16.051   7.519   8.384  1.00143.95    -0.271 OA
HETATM   15  N20 MIQ B 502     -16.076   6.305   6.469  1.00140.02    -0.296 N 
HETATM   16  H13 MIQ B 502     -17.070   6.184   6.476  1.00142.77     0.171 HD
HETATM   17  C21 MIQ B 502     -15.266   5.725   5.428  1.00142.22     0.224 C 
HETATM   18  C22 MIQ B 502     -13.887   5.239   5.830  1.00139.52     0.106 C 
HETATM   19  O24 MIQ B 502     -15.657   5.639   4.316  1.00146.13    -0.273 OA
HETATM   20  C23 MIQ B 502     -13.171   6.430   6.441  1.00139.15     0.045 C 
ENDBRANCH  10  12
BRANCH   5  21
HETATM   21  N6  MIQ B 502     -12.089   3.965  14.105  1.00140.95    -0.377 N 
HETATM   22  C7  MIQ B 502     -11.479   4.346  15.366  1.00142.12     0.149 C 
HETATM   23  C8  MIQ B 502     -10.885   3.148  16.096  1.00144.10     0.187 C 
HETATM   24  O9  MIQ B 502     -11.761   2.063  16.161  1.00148.65    -0.388 OA
HETATM   25  C10 MIQ B 502     -12.941   2.060  15.414  1.00147.44     0.187 C 
HETATM   26  C11 MIQ B 502     -12.964   2.805  14.083  1.00144.08     0.149 C 
ENDBRANCH   5  21
TORSDOF 2
ENDMDL
MODEL 9
REMARK VINA RESULT:      -6.3     19.567     22.173
REMARK  2 active torsions:
REMARK  status: ('A' for Active; 'I' for Inactive)
REMARK    1  A    between atoms: C5_5  and  N6_21 
REMARK    2  A    between atoms: C18_14  and  N17_19 
ROOT
HETATM    1  O1  MIQ B 502     -28.390  -3.799  -4.356  1.00142.91    -0.171 OA
HETATM    2  C2  MIQ B 502     -27.517  -4.857  -4.096  1.00141.17     0.195 A 
HETATM    3  C3  MIQ B 502     -27.877  -6.192  -3.369  1.00141.71     0.035 A 
HETATM    4  C4  MIQ B 502     -29.129  -6.727  -2.781  1.00142.86     0.046 A 
HETATM    5  C5  MIQ B 502     -29.145  -8.008  -2.175  1.00139.53     0.031 A 
HETATM    6  C12 MIQ B 502     -27.926  -8.803  -2.131  1.00139.38     0.030 A 
HETATM    7  C13 MIQ B 502     -26.726  -8.291  -2.695  1.00141.18     0.019 A 
HETATM    8  C14 MIQ B 502     -26.716  -6.946  -3.333  1.00138.77     0.033 A 
HETATM    9  C15 MIQ B 502     -25.628  -6.074  -4.041  1.00142.10     0.195 A 
HETATM   10  N17 MIQ B 502     -26.235  -4.956  -4.403  1.00139.42    -0.288 N 
HETATM   11  O16 MIQ B 502     -24.289  -6.411  -4.244  1.00148.93    -0.171 OA
ENDROOT
BRANCH  10  12
HETATM   12  C18 MIQ B 502     -25.520  -3.892  -5.083  1.00139.82     0.187 C 
HETATM   13  C19 MIQ B 502     -24.703  -4.526  -6.215  1.00140.06     0.247 C 
HETATM   14  O25 MIQ B 502     -25.239  -5.251  -6.975  1.00143.95    -0.271 OA
HETATM   15  N20 MIQ B 502     -23.290  -4.254  -6.382  1.00140.02    -0.296 N 
HETATM   16  H13 MIQ B 502     -22.766  -4.680  -7.121  1.00142.77     0.171 HD
HETATM   17  C21 MIQ B 502     -22.656  -3.373  -5.435  1.00142.22     0.224 C 
HETATM   18  C22 MIQ B 502     -23.179  -3.413  -4.012  1.00139.52     0.106 C 
HETATM   19  O24 MIQ B 502     -21.776  -2.652  -5.755  1.00146.13    -0.273 OA
HETATM   20  C23 MIQ B 502     -24.664  -3.108  -4.089  1.00139.15     0.045 C 
ENDBRANCH  10  12
BRANCH   5  21
HETATM   21  N6  MIQ B 502     -30.374  -8.513  -1.590  1.00140.95    -0.377 N 
HETATM   22  C7  MIQ B 502     -31.641  -8.041  -2.120  1.00142.12     0.149 C 
HETATM   23  C8  MIQ B 502     -32.753  -8.105  -1.081  1.00144.10     0.187 C 
HETATM   24  O9  MIQ B 502     -32.804  -9.332  -0.416  1.00148.65    -0.388 OA
HETATM   25  C10 MIQ B 502     -31.774 -10.263  -0.568  1.00147.44     0.187 C 
HETATM   26  C11 MIQ B 502     -30.361  -9.752  -0.832  1.00144.08     0.149 C 
ENDBRANCH   5  21
TORSDOF 2
ENDMDL
