MODEL 1
REMARK VINA RESULT:      -6.8      0.000      0.000
REMARK  2 active torsions:
REMARK  status: ('A' for Active; 'I' for Inactive)
REMARK    1  A    between atoms: C5_5  and  N6_21 
REMARK    2  A    between atoms: C18_14  and  N17_19 
ROOT
HETATM    1  O1  MIQ B 502       3.770  12.068  21.827  1.00142.91    -0.171 OA
HETATM    2  C2  MIQ B 502       4.514  12.418  20.698  1.00141.17     0.195 A 
HETATM    3  C3  MIQ B 502       6.055  12.667  20.649  1.00141.71     0.035 A 
HETATM    4  C4  MIQ B 502       7.128  12.617  21.671  1.00142.86     0.046 A 
HETATM    5  C5  MIQ B 502       8.471  12.898  21.314  1.00139.53     0.031 A 
HETATM    6  C12 MIQ B 502       8.797  13.237  19.936  1.00139.38     0.030 A 
HETATM    7  C13 MIQ B 502       7.769  13.284  18.956  1.00141.18     0.019 A 
HETATM    8  C14 MIQ B 502       6.361  12.985  19.336  1.00138.77     0.033 A 
HETATM    9  C15 MIQ B 502       5.001  12.934  18.565  1.00142.10     0.195 A 
HETATM   10  N17 MIQ B 502       4.086  12.604  19.461  1.00139.42    -0.288 N 
HETATM   11  O16 MIQ B 502       4.801  13.188  17.207  1.00148.93    -0.171 OA
ENDROOT
BRANCH  10  12
HETATM   12  C18 MIQ B 502       2.686  12.477  19.101  1.00139.82     0.187 C 
HETATM   13  C19 MIQ B 502       1.874  13.351  20.065  1.00140.06     0.247 C 
HETATM   14  O25 MIQ B 502       2.187  14.477  20.224  1.00143.95    -0.271 OA
HETATM   15  N20 MIQ B 502       0.727  12.833  20.783  1.00140.02    -0.296 N 
HETATM   16  H13 MIQ B 502       0.209  13.412  21.415  1.00142.77     0.171 HD
HETATM   17  C21 MIQ B 502       0.371  11.452  20.580  1.00142.22     0.224 C 
HETATM   18  C22 MIQ B 502       1.511  10.485  20.329  1.00139.52     0.106 C 
HETATM   19  O24 MIQ B 502      -0.756  11.095  20.603  1.00146.13    -0.273 OA
HETATM   20  C23 MIQ B 502       2.263  11.009  19.119  1.00139.15     0.045 C 
ENDBRANCH  10  12
BRANCH   5  21
HETATM   21  N6  MIQ B 502       9.509  12.860  22.328  1.00140.95    -0.377 N 
HETATM   22  C7  MIQ B 502      10.813  13.415  22.008  1.00142.12     0.149 C 
HETATM   23  C8  MIQ B 502      11.923  12.768  22.826  1.00144.10     0.187 C 
HETATM   24  O9  MIQ B 502      11.623  12.696  24.188  1.00148.65    -0.388 OA
HETATM   25  C10 MIQ B 502      10.335  12.987  24.645  1.00147.44     0.187 C 
HETATM   26  C11 MIQ B 502       9.152  12.697  23.726  1.00144.08     0.149 C 
ENDBRANCH   5  21
TORSDOF 2
ENDMDL
MODEL 2
REMARK VINA RESULT:      -6.5      2.951      8.063
REMARK  2 active torsions:
REMARK  status: ('A' for Active; 'I' for Inactive)
REMARK    1  A    between atoms: C5_5  and  N6_21 
REMARK    2  A    between atoms: C18_14  and  N17_19 
ROOT
HETATM    1  O1  MIQ B 502       9.199  12.708  20.912  1.00142.91    -0.171 OA
HETATM    2  C2  MIQ B 502       8.065  13.391  21.359  1.00141.17     0.195 A 
HETATM    3  C3  MIQ B 502       6.719  13.549  20.583  1.00141.71     0.035 A 
HETATM    4  C4  MIQ B 502       6.243  13.079  19.261  1.00142.86     0.046 A 
HETATM    5  C5  MIQ B 502       4.932  13.389  18.819  1.00139.53     0.031 A 
HETATM    6  C12 MIQ B 502       4.049  14.173  19.671  1.00139.38     0.030 A 
HETATM    7  C13 MIQ B 502       4.504  14.623  20.939  1.00141.18     0.019 A 
HETATM    8  C14 MIQ B 502       5.881  14.293  21.399  1.00138.77     0.033 A 
HETATM    9  C15 MIQ B 502       6.712  14.597  22.688  1.00142.10     0.195 A 
HETATM   10  N17 MIQ B 502       7.891  14.026  22.505  1.00139.42    -0.288 N 
HETATM   11  O16 MIQ B 502       6.291  15.326  23.801  1.00148.93    -0.171 OA
ENDROOT
BRANCH  10  12
HETATM   12  C18 MIQ B 502       8.940  14.117  23.504  1.00139.82     0.187 C 
HETATM   13  C19 MIQ B 502      10.163  14.762  22.842  1.00140.06     0.247 C 
HETATM   14  O25 MIQ B 502      10.031  15.774  22.250  1.00143.95    -0.271 OA
HETATM   15  N20 MIQ B 502      11.481  14.166  22.928  1.00140.02    -0.296 N 
HETATM   16  H13 MIQ B 502      12.270  14.594  22.485  1.00142.77     0.171 HD
HETATM   17  C21 MIQ B 502      11.615  12.926  23.647  1.00142.22     0.224 C 
HETATM   18  C22 MIQ B 502      10.439  11.971  23.584  1.00139.52     0.106 C 
HETATM   19  O24 MIQ B 502      12.592  12.670  24.260  1.00146.13    -0.273 OA
HETATM   20  C23 MIQ B 502       9.232  12.738  24.094  1.00139.15     0.045 C 
ENDBRANCH  10  12
BRANCH   5  21
HETATM   21  N6  MIQ B 502       4.484  12.934  17.515  1.00140.95    -0.377 N 
HETATM   22  C7  MIQ B 502       4.922  13.663  16.338  1.00142.12     0.149 C 
HETATM   23  C8  MIQ B 502       3.935  13.526  15.185  1.00144.10     0.187 C 
HETATM   24  O9  MIQ B 502       3.544  12.205  14.958  1.00148.65    -0.388 OA
HETATM   25  C10 MIQ B 502       3.874  11.202  15.873  1.00147.44     0.187 C 
HETATM   26  C11 MIQ B 502       4.004  11.574  17.347  1.00144.08     0.149 C 
ENDBRANCH   5  21
TORSDOF 2
ENDMDL
MODEL 3
REMARK VINA RESULT:      -6.5      5.055      6.194
REMARK  2 active torsions:
REMARK  status: ('A' for Active; 'I' for Inactive)
REMARK    1  A    between atoms: C5_5  and  N6_21 
REMARK    2  A    between atoms: C18_14  and  N17_19 
ROOT
HETATM    1  O1  MIQ B 502       0.922  15.441  19.841  1.00142.91    -0.171 OA
HETATM    2  C2  MIQ B 502       1.440  14.156  19.669  1.00141.17     0.195 A 
HETATM    3  C3  MIQ B 502       2.538  13.734  18.642  1.00141.71     0.035 A 
HETATM    4  C4  MIQ B 502       3.315  14.474  17.620  1.00142.86     0.046 A 
HETATM    5  C5  MIQ B 502       4.269  13.799  16.817  1.00139.53     0.031 A 
HETATM    6  C12 MIQ B 502       4.486  12.371  16.999  1.00139.38     0.030 A 
HETATM    7  C13 MIQ B 502       3.741  11.661  17.980  1.00141.18     0.019 A 
HETATM    8  C14 MIQ B 502       2.743  12.376  18.821  1.00138.77     0.033 A 
HETATM    9  C15 MIQ B 502       1.767  11.952  19.967  1.00142.10     0.195 A 
HETATM   10  N17 MIQ B 502       1.125  13.052  20.325  1.00139.42    -0.288 N 
HETATM   11  O16 MIQ B 502       1.608  10.671  20.499  1.00148.93    -0.171 OA
ENDROOT
BRANCH  10  12
HETATM   12  C18 MIQ B 502       0.114  13.034  21.366  1.00139.82     0.187 C 
HETATM   13  C19 MIQ B 502       0.754  12.441  22.628  1.00140.06     0.247 C 
HETATM   14  O25 MIQ B 502       1.778  12.880  23.015  1.00143.95    -0.271 OA
HETATM   15  N20 MIQ B 502       0.132  11.359  23.363  1.00140.02    -0.296 N 
HETATM   16  H13 MIQ B 502       0.563  10.976  24.181  1.00142.77     0.171 HD
HETATM   17  C21 MIQ B 502      -1.113  10.832  22.864  1.00142.22     0.224 C 
HETATM   18  C22 MIQ B 502      -1.296  10.827  21.359  1.00139.52     0.106 C 
HETATM   19  O24 MIQ B 502      -1.950  10.430  23.595  1.00146.13    -0.273 OA
HETATM   20  C23 MIQ B 502      -1.119  12.262  20.898  1.00139.15     0.045 C 
ENDBRANCH  10  12
BRANCH   5  21
HETATM   21  N6  MIQ B 502       5.013  14.533  15.810  1.00140.95    -0.377 N 
HETATM   22  C7  MIQ B 502       4.274  15.302  14.824  1.00142.12     0.149 C 
HETATM   23  C8  MIQ B 502       5.055  15.464  13.526  1.00144.10     0.187 C 
HETATM   24  O9  MIQ B 502       6.374  15.871  13.733  1.00148.65    -0.388 OA
HETATM   25  C10 MIQ B 502       6.918  15.880  15.020  1.00147.44     0.187 C 
HETATM   26  C11 MIQ B 502       6.410  14.860  16.034  1.00144.08     0.149 C 
ENDBRANCH   5  21
TORSDOF 2
ENDMDL
MODEL 4
REMARK VINA RESULT:      -6.4      4.525      7.636
REMARK  2 active torsions:
REMARK  status: ('A' for Active; 'I' for Inactive)
REMARK    1  A    between atoms: C5_5  and  N6_21 
REMARK    2  A    between atoms: C18_14  and  N17_19 
ROOT
HETATM    1  O1  MIQ B 502       4.056  15.112  18.381  1.00142.91    -0.171 OA
HETATM    2  C2  MIQ B 502       3.990  13.789  17.938  1.00141.17     0.195 A 
HETATM    3  C3  MIQ B 502       3.132  12.647  18.569  1.00141.71     0.035 A 
HETATM    4  C4  MIQ B 502       2.200  12.590  19.720  1.00142.86     0.046 A 
HETATM    5  C5  MIQ B 502       1.551  11.375  20.057  1.00139.53     0.031 A 
HETATM    6  C12 MIQ B 502       1.802  10.179  19.266  1.00139.38     0.030 A 
HETATM    7  C13 MIQ B 502       2.694  10.233  18.162  1.00141.18     0.019 A 
HETATM    8  C14 MIQ B 502       3.371  11.512  17.812  1.00138.77     0.033 A 
HETATM    9  C15 MIQ B 502       4.383  11.952  16.704  1.00142.10     0.195 A 
HETATM   10  N17 MIQ B 502       4.618  13.237  16.914  1.00139.42    -0.288 N 
HETATM   11  O16 MIQ B 502       4.926  11.148  15.700  1.00148.93    -0.171 OA
ENDROOT
BRANCH  10  12
HETATM   12  C18 MIQ B 502       5.535  13.986  16.075  1.00139.82     0.187 C 
HETATM   13  C19 MIQ B 502       6.567  14.655  16.992  1.00140.06     0.247 C 
HETATM   14  O25 MIQ B 502       7.136  14.002  17.792  1.00143.95    -0.271 OA
HETATM   15  N20 MIQ B 502       6.867  16.069  16.898  1.00140.02    -0.296 N 
HETATM   16  H13 MIQ B 502       7.538  16.496  17.507  1.00142.77     0.171 HD
HETATM   17  C21 MIQ B 502       6.152  16.848  15.920  1.00142.22     0.224 C 
HETATM   18  C22 MIQ B 502       4.721  16.435  15.636  1.00139.52     0.106 C 
HETATM   19  O24 MIQ B 502       6.659  17.759  15.365  1.00146.13    -0.273 OA
HETATM   20  C23 MIQ B 502       4.768  14.981  15.206  1.00139.15     0.045 C 
ENDBRANCH  10  12
BRANCH   5  21
HETATM   21  N6  MIQ B 502       0.652  11.330  21.196  1.00140.95    -0.377 N 
HETATM   22  C7  MIQ B 502       0.224  12.583  21.793  1.00142.12     0.149 C 
HETATM   23  C8  MIQ B 502      -0.137  12.419  23.264  1.00144.10     0.187 C 
HETATM   24  O9  MIQ B 502      -0.976  11.328  23.499  1.00148.65    -0.388 OA
HETATM   25  C10 MIQ B 502      -1.225  10.396  22.488  1.00147.44     0.187 C 
HETATM   26  C11 MIQ B 502      -0.139  10.139  21.449  1.00144.08     0.149 C 
ENDBRANCH   5  21
TORSDOF 2
ENDMDL
MODEL 5
REMARK VINA RESULT:      -6.4      5.081      6.360
REMARK  2 active torsions:
REMARK  status: ('A' for Active; 'I' for Inactive)
REMARK    1  A    between atoms: C5_5  and  N6_21 
REMARK    2  A    between atoms: C18_14  and  N17_19 
ROOT
HETATM    1  O1  MIQ B 502       1.989  14.453  20.293  1.00142.91    -0.171 OA
HETATM    2  C2  MIQ B 502       2.277  13.235  19.673  1.00141.17     0.195 A 
HETATM    3  C3  MIQ B 502       3.066  13.044  18.338  1.00141.71     0.035 A 
HETATM    4  C4  MIQ B 502       3.706  13.985  17.389  1.00142.86     0.046 A 
HETATM    5  C5  MIQ B 502       4.368  13.499  16.234  1.00139.53     0.031 A 
HETATM    6  C12 MIQ B 502       4.419  12.066  15.980  1.00139.38     0.030 A 
HETATM    7  C13 MIQ B 502       3.806  11.163  16.890  1.00141.18     0.019 A 
HETATM    8  C14 MIQ B 502       3.115  11.680  18.103  1.00138.77     0.033 A 
HETATM    9  C15 MIQ B 502       2.352  11.020  19.298  1.00142.10     0.195 A 
HETATM   10  N17 MIQ B 502       1.957  12.016  20.073  1.00139.42    -0.288 N 
HETATM   11  O16 MIQ B 502       2.133   9.656  19.499  1.00148.93    -0.171 OA
ENDROOT
BRANCH  10  12
HETATM   12  C18 MIQ B 502       1.195  11.777  21.285  1.00139.82     0.187 C 
HETATM   13  C19 MIQ B 502      -0.104  12.586  21.188  1.00140.06     0.247 C 
HETATM   14  O25 MIQ B 502      -0.773  12.488  20.221  1.00143.95    -0.271 OA
HETATM   15  N20 MIQ B 502      -0.538  13.464  22.255  1.00140.02    -0.296 N 
HETATM   16  H13 MIQ B 502      -1.385  13.992  22.176  1.00142.77     0.171 HD
HETATM   17  C21 MIQ B 502       0.300  13.575  23.421  1.00142.22     0.224 C 
HETATM   18  C22 MIQ B 502       1.796  13.462  23.197  1.00139.52     0.106 C 
HETATM   19  O24 MIQ B 502      -0.158  13.740  24.497  1.00146.13    -0.273 OA
HETATM   20  C23 MIQ B 502       2.030  12.126  22.516  1.00139.15     0.045 C 
ENDBRANCH  10  12
BRANCH   5  21
HETATM   21  N6  MIQ B 502       4.978  14.433  15.305  1.00140.95    -0.377 N 
HETATM   22  C7  MIQ B 502       4.131  15.090  14.325  1.00142.12     0.149 C 
HETATM   23  C8  MIQ B 502       4.909  15.491  13.078  1.00144.10     0.187 C 
HETATM   24  O9  MIQ B 502       6.104  16.150  13.372  1.00148.65    -0.388 OA
HETATM   25  C10 MIQ B 502       6.585  16.193  14.684  1.00147.44     0.187 C 
HETATM   26  C11 MIQ B 502       6.265  15.028  15.616  1.00144.08     0.149 C 
ENDBRANCH   5  21
TORSDOF 2
ENDMDL
MODEL 6
REMARK VINA RESULT:      -6.4      2.343      8.228
REMARK  2 active torsions:
REMARK  status: ('A' for Active; 'I' for Inactive)
REMARK    1  A    between atoms: C5_5  and  N6_21 
REMARK    2  A    between atoms: C18_14  and  N17_19 
ROOT
HETATM    1  O1  MIQ B 502       8.826  12.050  21.719  1.00142.91    -0.171 OA
HETATM    2  C2  MIQ B 502       7.954  13.079  22.083  1.00141.17     0.195 A 
HETATM    3  C3  MIQ B 502       6.415  13.120  21.819  1.00141.71     0.035 A 
HETATM    4  C4  MIQ B 502       5.467  12.184  21.170  1.00142.86     0.046 A 
HETATM    5  C5  MIQ B 502       4.090  12.506  21.080  1.00139.53     0.031 A 
HETATM    6  C12 MIQ B 502       3.605  13.764  21.631  1.00139.38     0.030 A 
HETATM    7  C13 MIQ B 502       4.513  14.661  22.255  1.00141.18     0.019 A 
HETATM    8  C14 MIQ B 502       5.958  14.316  22.348  1.00138.77     0.033 A 
HETATM    9  C15 MIQ B 502       7.220  15.021  22.944  1.00142.10     0.195 A 
HETATM   10  N17 MIQ B 502       8.236  14.205  22.716  1.00139.42    -0.288 N 
HETATM   11  O16 MIQ B 502       7.261  16.261  23.582  1.00148.93    -0.171 OA
ENDROOT
BRANCH  10  12
HETATM   12  C18 MIQ B 502       9.586  14.544  23.123  1.00139.82     0.187 C 
HETATM   13  C19 MIQ B 502      10.498  14.383  21.901  1.00140.06     0.247 C 
HETATM   14  O25 MIQ B 502      10.200  14.906  20.887  1.00143.95    -0.271 OA
HETATM   15  N20 MIQ B 502      11.722  13.610  21.958  1.00140.02    -0.296 N 
HETATM   16  H13 MIQ B 502      12.305  13.506  21.151  1.00142.77     0.171 HD
HETATM   17  C21 MIQ B 502      12.060  12.972  23.204  1.00142.22     0.224 C 
HETATM   18  C22 MIQ B 502      10.903  12.481  24.053  1.00139.52     0.106 C 
HETATM   19  O24 MIQ B 502      13.183  12.844  23.548  1.00146.13    -0.273 OA
HETATM   20  C23 MIQ B 502      10.016  13.685  24.311  1.00139.15     0.045 C 
ENDBRANCH  10  12
BRANCH   5  21
HETATM   21  N6  MIQ B 502       3.175  11.587  20.428  1.00140.95    -0.377 N 
HETATM   22  C7  MIQ B 502       1.749  11.746  20.658  1.00142.12     0.149 C 
HETATM   23  C8  MIQ B 502       0.996  10.433  20.488  1.00144.10     0.187 C 
HETATM   24  O9  MIQ B 502       1.340   9.757  19.316  1.00148.65    -0.388 OA
HETATM   25  C10 MIQ B 502       2.431  10.177  18.551  1.00147.44     0.187 C 
HETATM   26  C11 MIQ B 502       3.607  10.840  19.260  1.00144.08     0.149 C 
ENDBRANCH   5  21
TORSDOF 2
ENDMDL
MODEL 7
REMARK VINA RESULT:      -6.3      2.365      4.317
REMARK  2 active torsions:
REMARK  status: ('A' for Active; 'I' for Inactive)
REMARK    1  A    between atoms: C5_5  and  N6_21 
REMARK    2  A    between atoms: C18_14  and  N17_19 
ROOT
HETATM    1  O1  MIQ B 502       6.870  14.398  16.973  1.00142.91    -0.171 OA
HETATM    2  C2  MIQ B 502       6.191  13.824  18.050  1.00141.17     0.195 A 
HETATM    3  C3  MIQ B 502       6.825  13.373  19.404  1.00141.71     0.035 A 
HETATM    4  C4  MIQ B 502       8.205  13.403  19.944  1.00142.86     0.046 A 
HETATM    5  C5  MIQ B 502       8.477  12.909  21.245  1.00139.53     0.031 A 
HETATM    6  C12 MIQ B 502       7.394  12.371  22.054  1.00139.38     0.030 A 
HETATM    7  C13 MIQ B 502       6.070  12.344  21.538  1.00141.18     0.019 A 
HETATM    8  C14 MIQ B 502       5.790  12.866  20.173  1.00138.77     0.033 A 
HETATM    9  C15 MIQ B 502       4.507  13.003  19.290  1.00142.10     0.195 A 
HETATM   10  N17 MIQ B 502       4.902  13.552  18.153  1.00139.42    -0.288 N 
HETATM   11  O16 MIQ B 502       3.210  12.620  19.636  1.00148.93    -0.171 OA
ENDROOT
BRANCH  10  12
HETATM   12  C18 MIQ B 502       3.968  13.817  17.075  1.00139.82     0.187 C 
HETATM   13  C19 MIQ B 502       4.455  13.056  15.836  1.00140.06     0.247 C 
HETATM   14  O25 MIQ B 502       4.706  11.907  15.928  1.00143.95    -0.271 OA
HETATM   15  N20 MIQ B 502       4.610  13.707  14.552  1.00140.02    -0.296 N 
HETATM   16  H13 MIQ B 502       4.935  13.201  13.752  1.00142.77     0.171 HD
HETATM   17  C21 MIQ B 502       4.307  15.113  14.467  1.00142.22     0.224 C 
HETATM   18  C22 MIQ B 502       4.607  15.950  15.696  1.00139.52     0.106 C 
HETATM   19  O24 MIQ B 502       3.842  15.587  13.489  1.00146.13    -0.273 OA
HETATM   20  C23 MIQ B 502       3.837  15.322  16.844  1.00139.15     0.045 C 
ENDBRANCH  10  12
BRANCH   5  21
HETATM   21  N6  MIQ B 502       9.836  12.930  21.754  1.00140.95    -0.377 N 
HETATM   22  C7  MIQ B 502      10.666  14.089  21.472  1.00142.12     0.149 C 
HETATM   23  C8  MIQ B 502      12.149  13.740  21.470  1.00144.10     0.187 C 
HETATM   24  O9  MIQ B 502      12.532  12.988  22.583  1.00148.65    -0.388 OA
HETATM   25  C10 MIQ B 502      11.567  12.450  23.439  1.00147.44     0.187 C 
HETATM   26  C11 MIQ B 502      10.210  12.065  22.860  1.00144.08     0.149 C 
ENDBRANCH   5  21
TORSDOF 2
ENDMDL
MODEL 8
REMARK VINA RESULT:      -6.2      4.157      8.664
REMARK  2 active torsions:
REMARK  status: ('A' for Active; 'I' for Inactive)
REMARK    1  A    between atoms: C5_5  and  N6_21 
REMARK    2  A    between atoms: C18_14  and  N17_19 
ROOT
HETATM    1  O1  MIQ B 502       2.462  14.171  18.577  1.00142.91    -0.171 OA
HETATM    2  C2  MIQ B 502       2.295  12.839  18.963  1.00141.17     0.195 A 
HETATM    3  C3  MIQ B 502       1.108  12.263  19.799  1.00141.71     0.035 A 
HETATM    4  C4  MIQ B 502      -0.107  12.868  20.395  1.00142.86     0.046 A 
HETATM    5  C5  MIQ B 502      -1.026  12.066  21.118  1.00139.53     0.031 A 
HETATM    6  C12 MIQ B 502      -0.774  10.640  21.274  1.00139.38     0.030 A 
HETATM    7  C13 MIQ B 502       0.390  10.060  20.702  1.00141.18     0.019 A 
HETATM    8  C14 MIQ B 502       1.350  10.906  19.942  1.00138.77     0.033 A 
HETATM    9  C15 MIQ B 502       2.694  10.638  19.190  1.00142.10     0.195 A 
HETATM   10  N17 MIQ B 502       3.081  11.807  18.706  1.00139.42    -0.288 N 
HETATM   11  O16 MIQ B 502       3.351   9.413  19.062  1.00148.93    -0.171 OA
ENDROOT
BRANCH  10  12
HETATM   12  C18 MIQ B 502       4.313  11.945  17.952  1.00139.82     0.187 C 
HETATM   13  C19 MIQ B 502       5.134  13.067  18.600  1.00140.06     0.247 C 
HETATM   14  O25 MIQ B 502       5.330  13.040  19.763  1.00143.95    -0.271 OA
HETATM   15  N20 MIQ B 502       5.683  14.158  17.821  1.00140.02    -0.296 N 
HETATM   16  H13 MIQ B 502       6.212  14.888  18.257  1.00142.77     0.171 HD
HETATM   17  C21 MIQ B 502       5.422  14.175  16.405  1.00142.22     0.224 C 
HETATM   18  C22 MIQ B 502       4.086  13.620  15.952  1.00139.52     0.106 C 
HETATM   19  O24 MIQ B 502       6.215  14.595  15.636  1.00146.13    -0.273 OA
HETATM   20  C23 MIQ B 502       4.009  12.197  16.477  1.00139.15     0.045 C 
ENDBRANCH  10  12
BRANCH   5  21
HETATM   21  N6  MIQ B 502      -2.204  12.674  21.709  1.00140.95    -0.377 N 
HETATM   22  C7  MIQ B 502      -3.473  12.550  21.013  1.00142.12     0.149 C 
HETATM   23  C8  MIQ B 502      -4.418  13.698  21.344  1.00144.10     0.187 C 
HETATM   24  O9  MIQ B 502      -4.510  13.949  22.714  1.00148.65    -0.388 OA
HETATM   25  C10 MIQ B 502      -3.628  13.335  23.607  1.00147.44     0.187 C 
HETATM   26  C11 MIQ B 502      -2.221  12.996  23.125  1.00144.08     0.149 C 
ENDBRANCH   5  21
TORSDOF 2
ENDMDL
MODEL 9
REMARK VINA RESULT:      -6.2      4.604      7.458
REMARK  2 active torsions:
REMARK  status: ('A' for Active; 'I' for Inactive)
REMARK    1  A    between atoms: C5_5  and  N6_21 
REMARK    2  A    between atoms: C18_14  and  N17_19 
ROOT
HETATM    1  O1  MIQ B 502       3.841  14.639  18.623  1.00142.91    -0.171 OA
HETATM    2  C2  MIQ B 502       3.393  13.318  18.555  1.00141.17     0.195 A 
HETATM    3  C3  MIQ B 502       2.447  12.612  19.577  1.00141.71     0.035 A 
HETATM    4  C4  MIQ B 502       1.776  13.058  20.822  1.00142.86     0.046 A 
HETATM    5  C5  MIQ B 502       0.953  12.164  21.552  1.00139.53     0.031 A 
HETATM    6  C12 MIQ B 502       0.766  10.801  21.076  1.00139.38     0.030 A 
HETATM    7  C13 MIQ B 502       1.408  10.373  19.882  1.00141.18     0.019 A 
HETATM    8  C14 MIQ B 502       2.269  11.317  19.118  1.00138.77     0.033 A 
HETATM    9  C15 MIQ B 502       3.109  11.219  17.804  1.00142.10     0.195 A 
HETATM   10  N17 MIQ B 502       3.664  12.408  17.635  1.00139.42    -0.288 N 
HETATM   11  O16 MIQ B 502       3.246  10.100  16.980  1.00148.93    -0.171 OA
ENDROOT
BRANCH  10  12
HETATM   12  C18 MIQ B 502       4.537  12.684  16.510  1.00139.82     0.187 C 
HETATM   13  C19 MIQ B 502       5.800  13.363  17.053  1.00140.06     0.247 C 
HETATM   14  O25 MIQ B 502       6.382  12.863  17.950  1.00143.95    -0.271 OA
HETATM   15  N20 MIQ B 502       6.304  14.599  16.492  1.00140.02    -0.296 N 
HETATM   16  H13 MIQ B 502       7.127  15.036  16.861  1.00142.77     0.171 HD
HETATM   17  C21 MIQ B 502       5.571  15.195  15.405  1.00142.22     0.224 C 
HETATM   18  C22 MIQ B 502       4.065  15.019  15.422  1.00139.52     0.106 C 
HETATM   19  O24 MIQ B 502       6.119  15.787  14.542  1.00146.13    -0.273 OA
HETATM   20  C23 MIQ B 502       3.806  13.524  15.463  1.00139.15     0.045 C 
ENDBRANCH  10  12
BRANCH   5  21
HETATM   21  N6  MIQ B 502       0.315  12.609  22.777  1.00140.95    -0.377 N 
HETATM   22  C7  MIQ B 502      -0.813  11.849  23.289  1.00142.12     0.149 C 
HETATM   23  C8  MIQ B 502      -1.748  12.713  24.126  1.00144.10     0.187 C 
HETATM   24  O9  MIQ B 502      -1.073  13.488  25.070  1.00148.65    -0.388 OA
HETATM   25  C10 MIQ B 502       0.321  13.590  25.037  1.00147.44     0.187 C 
HETATM   26  C11 MIQ B 502       1.027  13.487  23.689  1.00144.08     0.149 C 
ENDBRANCH   5  21
TORSDOF 2
ENDMDL
