MODEL 1
REMARK VINA RESULT:      -6.3      0.000      0.000
REMARK  2 active torsions:
REMARK  status: ('A' for Active; 'I' for Inactive)
REMARK    1  A    between atoms: C5_5  and  N6_21 
REMARK    2  A    between atoms: C18_14  and  N17_19 
ROOT
HETATM    1  O1  MIQ B 502     -19.980   6.378 -11.812  1.00142.91    -0.171 OA
HETATM    2  C2  MIQ B 502     -21.226   5.848 -12.153  1.00141.17     0.195 A 
HETATM    3  C3  MIQ B 502     -21.581   5.110 -13.484  1.00141.71     0.035 A 
HETATM    4  C4  MIQ B 502     -20.801   4.760 -14.695  1.00142.86     0.046 A 
HETATM    5  C5  MIQ B 502     -21.416   4.068 -15.768  1.00139.53     0.031 A 
HETATM    6  C12 MIQ B 502     -22.821   3.698 -15.679  1.00139.38     0.030 A 
HETATM    7  C13 MIQ B 502     -23.569   4.032 -14.518  1.00141.18     0.019 A 
HETATM    8  C14 MIQ B 502     -22.918   4.757 -13.393  1.00138.77     0.033 A 
HETATM    9  C15 MIQ B 502     -23.395   5.278 -11.998  1.00142.10     0.195 A 
HETATM   10  N17 MIQ B 502     -22.341   5.852 -11.442  1.00139.42    -0.288 N 
HETATM   11  O16 MIQ B 502     -24.676   5.161 -11.456  1.00148.93    -0.171 OA
ENDROOT
BRANCH  10  12
HETATM   12  C18 MIQ B 502     -22.418   6.469 -10.131  1.00139.82     0.187 C 
HETATM   13  C19 MIQ B 502     -22.036   7.946 -10.287  1.00140.06     0.247 C 
HETATM   14  O25 MIQ B 502     -22.574   8.596 -11.111  1.00143.95    -0.271 OA
HETATM   15  N20 MIQ B 502     -21.036   8.570  -9.444  1.00140.02    -0.296 N 
HETATM   16  H13 MIQ B 502     -20.792   9.533  -9.560  1.00142.77     0.171 HD
HETATM   17  C21 MIQ B 502     -20.387   7.753  -8.451  1.00142.22     0.224 C 
HETATM   18  C22 MIQ B 502     -20.165   6.296  -8.807  1.00139.52     0.106 C 
HETATM   19  O24 MIQ B 502     -20.049   8.198  -7.410  1.00146.13    -0.273 OA
HETATM   20  C23 MIQ B 502     -21.530   5.720  -9.138  1.00139.15     0.045 C 
ENDBRANCH  10  12
BRANCH   5  21
HETATM   21  N6  MIQ B 502     -20.644   3.745 -16.954  1.00140.95    -0.377 N 
HETATM   22  C7  MIQ B 502     -19.946   2.471 -17.003  1.00142.12     0.149 C 
HETATM   23  C8  MIQ B 502     -18.729   2.525 -17.917  1.00144.10     0.187 C 
HETATM   24  O9  MIQ B 502     -19.005   3.102 -19.158  1.00148.65    -0.388 OA
HETATM   25  C10 MIQ B 502     -20.222   3.751 -19.381  1.00147.44     0.187 C 
HETATM   26  C11 MIQ B 502     -20.911   4.435 -18.204  1.00144.08     0.149 C 
ENDBRANCH   5  21
TORSDOF 2
ENDMDL
MODEL 2
REMARK VINA RESULT:      -5.9      5.055      6.754
REMARK  2 active torsions:
REMARK  status: ('A' for Active; 'I' for Inactive)
REMARK    1  A    between atoms: C5_5  and  N6_21 
REMARK    2  A    between atoms: C18_14  and  N17_19 
ROOT
HETATM    1  O1  MIQ B 502     -22.286   7.305 -11.863  1.00142.91    -0.171 OA
HETATM    2  C2  MIQ B 502     -23.092   8.097 -11.042  1.00141.17     0.195 A 
HETATM    3  C3  MIQ B 502     -24.163   9.128 -11.520  1.00141.71     0.035 A 
HETATM    4  C4  MIQ B 502     -24.635   9.562 -12.856  1.00142.86     0.046 A 
HETATM    5  C5  MIQ B 502     -25.652  10.544 -12.973  1.00139.53     0.031 A 
HETATM    6  C12 MIQ B 502     -26.234  11.128 -11.774  1.00139.38     0.030 A 
HETATM    7  C13 MIQ B 502     -25.783  10.711 -10.492  1.00141.18     0.019 A 
HETATM    8  C14 MIQ B 502     -24.717   9.678 -10.375  1.00138.77     0.033 A 
HETATM    9  C15 MIQ B 502     -23.986   8.984  -9.180  1.00142.10     0.195 A 
HETATM   10  N17 MIQ B 502     -23.123   8.139  -9.721  1.00139.42    -0.288 N 
HETATM   11  O16 MIQ B 502     -24.201   9.215  -7.821  1.00148.93    -0.171 OA
ENDROOT
BRANCH  10  12
HETATM   12  C18 MIQ B 502     -22.248   7.322  -8.901  1.00139.82     0.187 C 
HETATM   13  C19 MIQ B 502     -20.806   7.580  -9.357  1.00140.06     0.247 C 
HETATM   14  O25 MIQ B 502     -20.419   8.691  -9.442  1.00143.95    -0.271 OA
HETATM   15  N20 MIQ B 502     -19.902   6.495  -9.680  1.00140.02    -0.296 N 
HETATM   16  H13 MIQ B 502     -18.965   6.677  -9.982  1.00142.77     0.171 HD
HETATM   17  C21 MIQ B 502     -20.401   5.148  -9.577  1.00142.22     0.224 C 
HETATM   18  C22 MIQ B 502     -21.865   4.937  -9.911  1.00139.52     0.106 C 
HETATM   19  O24 MIQ B 502     -19.703   4.254  -9.244  1.00146.13    -0.273 OA
HETATM   20  C23 MIQ B 502     -22.654   5.852  -8.992  1.00139.15     0.045 C 
ENDBRANCH  10  12
BRANCH   5  21
HETATM   21  N6  MIQ B 502     -26.094  10.970 -14.289  1.00140.95    -0.377 N 
HETATM   22  C7  MIQ B 502     -25.289  10.609 -15.443  1.00142.12     0.149 C 
HETATM   23  C8  MIQ B 502     -25.464  11.596 -16.590  1.00144.10     0.187 C 
HETATM   24  O9  MIQ B 502     -26.804  11.881 -16.862  1.00148.65    -0.388 OA
HETATM   25  C10 MIQ B 502     -27.809  11.458 -15.988  1.00147.44     0.187 C 
HETATM   26  C11 MIQ B 502     -27.482  11.340 -14.503  1.00144.08     0.149 C 
ENDBRANCH   5  21
TORSDOF 2
ENDMDL
MODEL 3
REMARK VINA RESULT:      -5.9     18.309     21.104
REMARK  2 active torsions:
REMARK  status: ('A' for Active; 'I' for Inactive)
REMARK    1  A    between atoms: C5_5  and  N6_21 
REMARK    2  A    between atoms: C18_14  and  N17_19 
ROOT
HETATM    1  O1  MIQ B 502      -2.828  13.674 -20.460  1.00142.91    -0.171 OA
HETATM    2  C2  MIQ B 502      -3.963  13.393 -21.224  1.00141.17     0.195 A 
HETATM    3  C3  MIQ B 502      -5.446  13.505 -20.746  1.00141.71     0.035 A 
HETATM    4  C4  MIQ B 502      -6.077  13.905 -19.466  1.00142.86     0.046 A 
HETATM    5  C5  MIQ B 502      -7.488  13.908 -19.332  1.00139.53     0.031 A 
HETATM    6  C12 MIQ B 502      -8.322  13.516 -20.460  1.00139.38     0.030 A 
HETATM    7  C13 MIQ B 502      -7.717  13.133 -21.688  1.00141.18     0.019 A 
HETATM    8  C14 MIQ B 502      -6.235  13.134 -21.823  1.00138.77     0.033 A 
HETATM    9  C15 MIQ B 502      -5.236  12.791 -22.976  1.00142.10     0.195 A 
HETATM   10  N17 MIQ B 502      -4.025  12.989 -22.481  1.00139.42    -0.288 N 
HETATM   11  O16 MIQ B 502      -5.561  12.362 -24.263  1.00148.93    -0.171 OA
ENDROOT
BRANCH  10  12
HETATM   12  C18 MIQ B 502      -2.834  12.751 -23.275  1.00139.82     0.187 C 
HETATM   13  C19 MIQ B 502      -1.933  11.789 -22.491  1.00140.06     0.247 C 
HETATM   14  O25 MIQ B 502      -2.390  10.786 -22.071  1.00143.95    -0.271 OA
HETATM   15  N20 MIQ B 502      -0.533  12.075 -22.255  1.00140.02    -0.296 N 
HETATM   16  H13 MIQ B 502       0.043  11.442 -21.736  1.00142.77     0.171 HD
HETATM   17  C21 MIQ B 502      -0.001  13.311 -22.769  1.00142.22     0.224 C 
HETATM   18  C22 MIQ B 502      -0.944  14.499 -22.796  1.00139.52     0.106 C 
HETATM   19  O24 MIQ B 502       1.113  13.391 -23.154  1.00146.13    -0.273 OA
HETATM   20  C23 MIQ B 502      -2.149  14.074 -23.615  1.00139.15     0.045 C 
ENDBRANCH  10  12
BRANCH   5  21
HETATM   21  N6  MIQ B 502      -8.092  14.288 -18.068  1.00140.95    -0.377 N 
HETATM   22  C7  MIQ B 502      -7.221  14.662 -16.967  1.00142.12     0.149 C 
HETATM   23  C8  MIQ B 502      -7.873  14.407 -15.614  1.00144.10     0.187 C 
HETATM   24  O9  MIQ B 502      -9.177  14.899 -15.538  1.00148.65    -0.388 OA
HETATM   25  C10 MIQ B 502      -9.832  15.352 -16.686  1.00147.44     0.187 C 
HETATM   26  C11 MIQ B 502      -9.481  14.712 -18.026  1.00144.08     0.149 C 
ENDBRANCH   5  21
TORSDOF 2
ENDMDL
MODEL 4
REMARK VINA RESULT:      -5.9      5.023      8.569
REMARK  2 active torsions:
REMARK  status: ('A' for Active; 'I' for Inactive)
REMARK    1  A    between atoms: C5_5  and  N6_21 
REMARK    2  A    between atoms: C18_14  and  N17_19 
ROOT
HETATM    1  O1  MIQ B 502     -19.569   1.032 -16.912  1.00142.91    -0.171 OA
HETATM    2  C2  MIQ B 502     -20.177   1.037 -18.169  1.00141.17     0.195 A 
HETATM    3  C3  MIQ B 502     -20.424  -0.208 -19.079  1.00141.71     0.035 A 
HETATM    4  C4  MIQ B 502     -20.133  -1.654 -18.929  1.00142.86     0.046 A 
HETATM    5  C5  MIQ B 502     -20.488  -2.567 -19.954  1.00139.53     0.031 A 
HETATM    6  C12 MIQ B 502     -21.143  -2.080 -21.160  1.00139.38     0.030 A 
HETATM    7  C13 MIQ B 502     -21.424  -0.695 -21.303  1.00141.18     0.019 A 
HETATM    8  C14 MIQ B 502     -21.050   0.259 -20.223  1.00138.77     0.033 A 
HETATM    9  C15 MIQ B 502     -21.193   1.803 -20.022  1.00142.10     0.195 A 
HETATM   10  N17 MIQ B 502     -20.664   2.067 -18.839  1.00139.42    -0.288 N 
HETATM   11  O16 MIQ B 502     -21.761   2.713 -20.915  1.00148.93    -0.171 OA
ENDROOT
BRANCH  10  12
HETATM   12  C18 MIQ B 502     -20.606   3.422 -18.321  1.00139.82     0.187 C 
HETATM   13  C19 MIQ B 502     -19.181   3.667 -17.809  1.00140.06     0.247 C 
HETATM   14  O25 MIQ B 502     -18.267   3.426 -18.515  1.00143.95    -0.271 OA
HETATM   15  N20 MIQ B 502     -18.925   4.192 -16.484  1.00140.02    -0.296 N 
HETATM   16  H13 MIQ B 502     -17.990   4.341 -16.160  1.00142.77     0.171 HD
HETATM   17  C21 MIQ B 502     -20.057   4.468 -15.638  1.00142.22     0.224 C 
HETATM   18  C22 MIQ B 502     -21.259   3.556 -15.788  1.00139.52     0.106 C 
HETATM   19  O24 MIQ B 502     -20.049   5.365 -14.868  1.00146.13    -0.273 OA
HETATM   20  C23 MIQ B 502     -21.674   3.626 -17.247  1.00139.15     0.045 C 
ENDBRANCH  10  12
BRANCH   5  21
HETATM   21  N6  MIQ B 502     -20.184  -3.978 -19.800  1.00140.95    -0.377 N 
HETATM   22  C7  MIQ B 502     -18.876  -4.355 -19.293  1.00142.12     0.149 C 
HETATM   23  C8  MIQ B 502     -18.458  -5.739 -19.772  1.00144.10     0.187 C 
HETATM   24  O9  MIQ B 502     -19.460  -6.697 -19.608  1.00148.65    -0.388 OA
HETATM   25  C10 MIQ B 502     -20.757  -6.311 -19.258  1.00147.44     0.187 C 
HETATM   26  C11 MIQ B 502     -21.262  -4.948 -19.719  1.00144.08     0.149 C 
ENDBRANCH   5  21
TORSDOF 2
ENDMDL
MODEL 5
REMARK VINA RESULT:      -5.9     30.258     32.416
REMARK  2 active torsions:
REMARK  status: ('A' for Active; 'I' for Inactive)
REMARK    1  A    between atoms: C5_5  and  N6_21 
REMARK    2  A    between atoms: C18_14  and  N17_19 
ROOT
HETATM    1  O1  MIQ B 502       9.525  11.439 -18.265  1.00142.91    -0.171 OA
HETATM    2  C2  MIQ B 502       9.030  11.308 -16.966  1.00141.17     0.195 A 
HETATM    3  C3  MIQ B 502       9.853  10.901 -15.702  1.00141.71     0.035 A 
HETATM    4  C4  MIQ B 502      11.278  10.559 -15.481  1.00142.86     0.046 A 
HETATM    5  C5  MIQ B 502      11.742  10.223 -14.184  1.00139.53     0.031 A 
HETATM    6  C12 MIQ B 502      10.812  10.215 -13.064  1.00139.38     0.030 A 
HETATM    7  C13 MIQ B 502       9.446  10.544 -13.275  1.00141.18     0.019 A 
HETATM    8  C14 MIQ B 502       8.965  10.898 -14.639  1.00138.77     0.033 A 
HETATM    9  C15 MIQ B 502       7.583  11.306 -15.245  1.00142.10     0.195 A 
HETATM   10  N17 MIQ B 502       7.794  11.499 -16.537  1.00139.42    -0.288 N 
HETATM   11  O16 MIQ B 502       6.375  11.436 -14.559  1.00148.93    -0.171 OA
ENDROOT
BRANCH  10  12
HETATM   12  C18 MIQ B 502       6.716  11.878 -17.432  1.00139.82     0.187 C 
HETATM   13  C19 MIQ B 502       6.776  10.954 -18.654  1.00140.06     0.247 C 
HETATM   14  O25 MIQ B 502       6.823   9.787 -18.492  1.00143.95    -0.271 OA
HETATM   15  N20 MIQ B 502       6.771  11.475 -20.006  1.00140.02    -0.296 N 
HETATM   16  H13 MIQ B 502       6.817  10.861 -20.796  1.00142.77     0.171 HD
HETATM   17  C21 MIQ B 502       6.723  12.904 -20.178  1.00142.22     0.224 C 
HETATM   18  C22 MIQ B 502       7.430  13.740 -19.129  1.00139.52     0.106 C 
HETATM   19  O24 MIQ B 502       6.157  13.398 -21.090  1.00146.13    -0.273 OA
HETATM   20  C23 MIQ B 502       6.821  13.359 -17.792  1.00139.15     0.045 C 
ENDBRANCH  10  12
BRANCH   5  21
HETATM   21  N6  MIQ B 502      13.138   9.876 -13.985  1.00140.95    -0.377 N 
HETATM   22  C7  MIQ B 502      13.771  10.238 -12.729  1.00142.12     0.149 C 
HETATM   23  C8  MIQ B 502      15.276  10.419 -12.882  1.00144.10     0.187 C 
HETATM   24  O9  MIQ B 502      15.881   9.368 -13.574  1.00148.65    -0.388 OA
HETATM   25  C10 MIQ B 502      15.103   8.412 -14.231  1.00147.44     0.187 C 
HETATM   26  C11 MIQ B 502      13.748   8.833 -14.791  1.00144.08     0.149 C 
ENDBRANCH   5  21
TORSDOF 2
ENDMDL
MODEL 6
REMARK VINA RESULT:      -5.9     20.494     22.285
REMARK  2 active torsions:
REMARK  status: ('A' for Active; 'I' for Inactive)
REMARK    1  A    between atoms: C5_5  and  N6_21 
REMARK    2  A    between atoms: C18_14  and  N17_19 
ROOT
HETATM    1  O1  MIQ B 502      -4.265  10.790 -22.766  1.00142.91    -0.171 OA
HETATM    2  C2  MIQ B 502      -3.298  11.057 -23.737  1.00141.17     0.195 A 
HETATM    3  C3  MIQ B 502      -3.071  10.255 -25.058  1.00141.71     0.035 A 
HETATM    4  C4  MIQ B 502      -3.734   9.073 -25.660  1.00142.86     0.046 A 
HETATM    5  C5  MIQ B 502      -3.293   8.561 -26.906  1.00139.53     0.031 A 
HETATM    6  C12 MIQ B 502      -2.183   9.200 -27.598  1.00139.38     0.030 A 
HETATM    7  C13 MIQ B 502      -1.547  10.333 -27.022  1.00141.18     0.019 A 
HETATM    8  C14 MIQ B 502      -2.016  10.868 -25.714  1.00138.77     0.033 A 
HETATM    9  C15 MIQ B 502      -1.587  12.059 -24.796  1.00142.10     0.195 A 
HETATM   10  N17 MIQ B 502      -2.395  12.023 -23.750  1.00139.42    -0.288 N 
HETATM   11  O16 MIQ B 502      -0.556  12.969 -25.036  1.00148.93    -0.171 OA
ENDROOT
BRANCH  10  12
HETATM   12  C18 MIQ B 502      -2.277  12.983 -22.668  1.00139.82     0.187 C 
HETATM   13  C19 MIQ B 502      -2.092  12.198 -21.364  1.00140.06     0.247 C 
HETATM   14  O25 MIQ B 502      -1.258  11.365 -21.307  1.00143.95    -0.271 OA
HETATM   15  N20 MIQ B 502      -2.909  12.454 -20.196  1.00140.02    -0.296 N 
HETATM   16  H13 MIQ B 502      -2.782  11.929 -19.352  1.00142.77     0.171 HD
HETATM   17  C21 MIQ B 502      -3.927  13.468 -20.294  1.00142.22     0.224 C 
HETATM   18  C22 MIQ B 502      -4.598  13.632 -21.644  1.00139.52     0.106 C 
HETATM   19  O24 MIQ B 502      -4.218  14.142 -19.368  1.00146.13    -0.273 OA
HETATM   20  C23 MIQ B 502      -3.491  13.910 -22.645  1.00139.15     0.045 C 
ENDBRANCH  10  12
BRANCH   5  21
HETATM   21  N6  MIQ B 502      -3.942   7.394 -27.476  1.00140.95    -0.377 N 
HETATM   22  C7  MIQ B 502      -5.251   7.013 -26.974  1.00142.12     0.149 C 
HETATM   23  C8  MIQ B 502      -5.513   5.522 -27.145  1.00144.10     0.187 C 
HETATM   24  O9  MIQ B 502      -5.207   5.060 -28.426  1.00148.65    -0.388 OA
HETATM   25  C10 MIQ B 502      -4.519   5.876 -29.328  1.00147.44     0.187 C 
HETATM   26  C11 MIQ B 502      -3.530   6.898 -28.777  1.00144.08     0.149 C 
ENDBRANCH   5  21
TORSDOF 2
ENDMDL
MODEL 7
REMARK VINA RESULT:      -5.8      2.478      8.665
REMARK  2 active torsions:
REMARK  status: ('A' for Active; 'I' for Inactive)
REMARK    1  A    between atoms: C5_5  and  N6_21 
REMARK    2  A    between atoms: C18_14  and  N17_19 
ROOT
HETATM    1  O1  MIQ B 502     -18.833   3.804 -16.713  1.00142.91    -0.171 OA
HETATM    2  C2  MIQ B 502     -20.218   3.824 -16.888  1.00141.17     0.195 A 
HETATM    3  C3  MIQ B 502     -21.288   3.967 -15.759  1.00141.71     0.035 A 
HETATM    4  C4  MIQ B 502     -21.203   4.116 -14.287  1.00142.86     0.046 A 
HETATM    5  C5  MIQ B 502     -22.383   4.227 -13.508  1.00139.53     0.031 A 
HETATM    6  C12 MIQ B 502     -23.684   4.196 -14.160  1.00139.38     0.030 A 
HETATM    7  C13 MIQ B 502     -23.766   4.054 -15.571  1.00141.18     0.019 A 
HETATM    8  C14 MIQ B 502     -22.524   3.940 -16.384  1.00138.77     0.033 A 
HETATM    9  C15 MIQ B 502     -22.220   3.780 -17.909  1.00142.10     0.195 A 
HETATM   10  N17 MIQ B 502     -20.902   3.735 -18.016  1.00139.42    -0.288 N 
HETATM   11  O16 MIQ B 502     -23.153   3.700 -18.944  1.00148.93    -0.171 OA
ENDROOT
BRANCH  10  12
HETATM   12  C18 MIQ B 502     -20.251   3.574 -19.302  1.00139.82     0.187 C 
HETATM   13  C19 MIQ B 502     -20.790   4.662 -20.239  1.00140.06     0.247 C 
HETATM   14  O25 MIQ B 502     -20.784   5.786 -19.880  1.00143.95    -0.271 OA
HETATM   15  N20 MIQ B 502     -21.303   4.350 -21.557  1.00140.02    -0.296 N 
HETATM   16  H13 MIQ B 502     -21.659   5.069 -22.156  1.00142.77     0.171 HD
HETATM   17  C21 MIQ B 502     -21.311   2.970 -21.969  1.00142.22     0.224 C 
HETATM   18  C22 MIQ B 502     -21.546   1.937 -20.884  1.00139.52     0.106 C 
HETATM   19  O24 MIQ B 502     -21.136   2.661 -23.096  1.00146.13    -0.273 OA
HETATM   20  C23 MIQ B 502     -20.471   2.159 -19.836  1.00139.15     0.045 C 
ENDBRANCH  10  12
BRANCH   5  21
HETATM   21  N6  MIQ B 502     -22.285   4.357 -12.066  1.00140.95    -0.377 N 
HETATM   22  C7  MIQ B 502     -21.172   5.109 -11.510  1.00142.12     0.149 C 
HETATM   23  C8  MIQ B 502     -20.822   4.648 -10.101  1.00144.10     0.187 C 
HETATM   24  O9  MIQ B 502     -21.940   4.536  -9.272  1.00148.65    -0.388 OA
HETATM   25  C10 MIQ B 502     -23.228   4.622  -9.806  1.00147.44     0.187 C 
HETATM   26  C11 MIQ B 502     -23.459   4.147 -11.237  1.00144.08     0.149 C 
ENDBRANCH   5  21
TORSDOF 2
ENDMDL
MODEL 8
REMARK VINA RESULT:      -5.8     30.183     32.277
REMARK  2 active torsions:
REMARK  status: ('A' for Active; 'I' for Inactive)
REMARK    1  A    between atoms: C5_5  and  N6_21 
REMARK    2  A    between atoms: C18_14  and  N17_19 
ROOT
HETATM    1  O1  MIQ B 502       9.355  12.057 -17.687  1.00142.91    -0.171 OA
HETATM    2  C2  MIQ B 502       8.723  12.013 -16.443  1.00141.17     0.195 A 
HETATM    3  C3  MIQ B 502       9.430  11.973 -15.050  1.00141.71     0.035 A 
HETATM    4  C4  MIQ B 502      10.851  11.971 -14.629  1.00142.86     0.046 A 
HETATM    5  C5  MIQ B 502      11.190  11.929 -13.253  1.00139.53     0.031 A 
HETATM    6  C12 MIQ B 502      10.135  11.890 -12.250  1.00139.38     0.030 A 
HETATM    7  C13 MIQ B 502       8.773  11.893 -12.653  1.00141.18     0.019 A 
HETATM    8  C14 MIQ B 502       8.423  11.939 -14.099  1.00138.77     0.033 A 
HETATM    9  C15 MIQ B 502       7.083  11.959 -14.906  1.00142.10     0.195 A 
HETATM   10  N17 MIQ B 502       7.427  12.003 -16.183  1.00139.42    -0.288 N 
HETATM   11  O16 MIQ B 502       5.791  11.933 -14.380  1.00148.93    -0.171 OA
ENDROOT
BRANCH  10  12
HETATM   12  C18 MIQ B 502       6.428  12.017 -17.235  1.00139.82     0.187 C 
HETATM   13  C19 MIQ B 502       6.830  10.965 -18.276  1.00140.06     0.247 C 
HETATM   14  O25 MIQ B 502       7.078   9.868 -17.919  1.00143.95    -0.271 OA
HETATM   15  N20 MIQ B 502       6.908  11.278 -19.688  1.00140.02    -0.296 N 
HETATM   16  H13 MIQ B 502       7.178  10.583 -20.356  1.00142.77     0.171 HD
HETATM   17  C21 MIQ B 502       6.610  12.626 -20.097  1.00142.22     0.224 C 
HETATM   18  C22 MIQ B 502       6.993  13.731 -19.132  1.00139.52     0.106 C 
HETATM   19  O24 MIQ B 502       6.088  12.856 -21.132  1.00146.13    -0.273 OA
HETATM   20  C23 MIQ B 502       6.293  13.422 -17.822  1.00139.15     0.045 C 
ENDBRANCH  10  12
BRANCH   5  21
HETATM   21  N6  MIQ B 502      12.586  11.912 -12.855  1.00140.95    -0.377 N 
HETATM   22  C7  MIQ B 502      13.315  10.658 -12.932  1.00142.12     0.149 C 
HETATM   23  C8  MIQ B 502      14.468  10.609 -11.939  1.00144.10     0.187 C 
HETATM   24  O9  MIQ B 502      15.257  11.761 -11.964  1.00148.65    -0.388 OA
HETATM   25  C10 MIQ B 502      14.840  12.889 -12.674  1.00147.44     0.187 C 
HETATM   26  C11 MIQ B 502      13.343  13.151 -12.814  1.00144.08     0.149 C 
ENDBRANCH   5  21
TORSDOF 2
ENDMDL
MODEL 9
REMARK VINA RESULT:      -5.8      1.643      2.210
REMARK  2 active torsions:
REMARK  status: ('A' for Active; 'I' for Inactive)
REMARK    1  A    between atoms: C5_5  and  N6_21 
REMARK    2  A    between atoms: C18_14  and  N17_19 
ROOT
HETATM    1  O1  MIQ B 502     -19.904   6.375 -11.798  1.00142.91    -0.171 OA
HETATM    2  C2  MIQ B 502     -21.167   5.912 -12.172  1.00141.17     0.195 A 
HETATM    3  C3  MIQ B 502     -21.518   5.155 -13.492  1.00141.71     0.035 A 
HETATM    4  C4  MIQ B 502     -20.717   4.718 -14.660  1.00142.86     0.046 A 
HETATM    5  C5  MIQ B 502     -21.334   4.030 -15.736  1.00139.53     0.031 A 
HETATM    6  C12 MIQ B 502     -22.762   3.750 -15.690  1.00139.38     0.030 A 
HETATM    7  C13 MIQ B 502     -23.530   4.167 -14.570  1.00141.18     0.019 A 
HETATM    8  C14 MIQ B 502     -22.877   4.888 -13.443  1.00138.77     0.033 A 
HETATM    9  C15 MIQ B 502     -23.372   5.482 -12.084  1.00142.10     0.195 A 
HETATM   10  N17 MIQ B 502     -22.305   6.008 -11.505  1.00139.42    -0.288 N 
HETATM   11  O16 MIQ B 502     -24.677   5.462 -11.589  1.00148.93    -0.171 OA
ENDROOT
BRANCH  10  12
HETATM   12  C18 MIQ B 502     -22.391   6.671 -10.217  1.00139.82     0.187 C 
HETATM   13  C19 MIQ B 502     -23.180   5.756  -9.272  1.00140.06     0.247 C 
HETATM   14  O25 MIQ B 502     -22.861   4.626  -9.165  1.00143.95    -0.271 OA
HETATM   15  N20 MIQ B 502     -24.306   6.243  -8.502  1.00140.02    -0.296 N 
HETATM   16  H13 MIQ B 502     -24.817   5.634  -7.893  1.00142.77     0.171 HD
HETATM   17  C21 MIQ B 502     -24.684   7.624  -8.658  1.00142.22     0.224 C 
HETATM   18  C22 MIQ B 502     -24.484   8.234 -10.032  1.00139.52     0.106 C 
HETATM   19  O24 MIQ B 502     -25.122   8.251  -7.756  1.00146.13    -0.273 OA
HETATM   20  C23 MIQ B 502     -23.016   8.056 -10.374  1.00139.15     0.045 C 
ENDBRANCH  10  12
BRANCH   5  21
HETATM   21  N6  MIQ B 502     -20.540   3.622 -16.880  1.00140.95    -0.377 N 
HETATM   22  C7  MIQ B 502     -19.936   2.300 -16.871  1.00142.12     0.149 C 
HETATM   23  C8  MIQ B 502     -18.682   2.242 -17.733  1.00144.10     0.187 C 
HETATM   24  O9  MIQ B 502     -18.865   2.806 -18.997  1.00148.65    -0.388 OA
HETATM   25  C10 MIQ B 502     -20.021   3.536 -19.286  1.00147.44     0.187 C 
HETATM   26  C11 MIQ B 502     -20.704   4.297 -18.155  1.00144.08     0.149 C 
ENDBRANCH   5  21
TORSDOF 2
ENDMDL
