MODEL 1
REMARK VINA RESULT:      -7.1      0.000      0.000
REMARK  2 active torsions:
REMARK  status: ('A' for Active; 'I' for Inactive)
REMARK    1  A    between atoms: C5_5  and  N6_21 
REMARK    2  A    between atoms: C18_14  and  N17_19 
ROOT
HETATM    1  O1  MIQ B 502       1.155 -14.584  12.305  1.00142.91    -0.171 OA
HETATM    2  C2  MIQ B 502       1.868 -13.420  12.010  1.00141.17     0.195 A 
HETATM    3  C3  MIQ B 502       2.572 -12.484  13.043  1.00141.71     0.035 A 
HETATM    4  C4  MIQ B 502       2.707 -12.514  14.519  1.00142.86     0.046 A 
HETATM    5  C5  MIQ B 502       3.428 -11.496  15.194  1.00139.53     0.031 A 
HETATM    6  C12 MIQ B 502       4.037 -10.416  14.431  1.00139.38     0.030 A 
HETATM    7  C13 MIQ B 502       3.908 -10.387  13.017  1.00141.18     0.019 A 
HETATM    8  C14 MIQ B 502       3.153 -11.460  12.314  1.00138.77     0.033 A 
HETATM    9  C15 MIQ B 502       2.808 -11.763  10.819  1.00142.10     0.195 A 
HETATM   10  N17 MIQ B 502       2.098 -12.879  10.827  1.00139.42    -0.288 N 
HETATM   11  O16 MIQ B 502       3.176 -11.004   9.706  1.00148.93    -0.171 OA
ENDROOT
BRANCH  10  12
HETATM   12  C18 MIQ B 502       1.585 -13.458   9.599  1.00139.82     0.187 C 
HETATM   13  C19 MIQ B 502       0.095 -13.753   9.808  1.00140.06     0.247 C 
HETATM   14  O25 MIQ B 502      -0.609 -12.900  10.220  1.00143.95    -0.271 OA
HETATM   15  N20 MIQ B 502      -0.477 -15.050   9.509  1.00140.02    -0.296 N 
HETATM   16  H13 MIQ B 502      -1.450 -15.231   9.656  1.00142.77     0.171 HD
HETATM   17  C21 MIQ B 502       0.404 -16.078   9.018  1.00142.22     0.224 C 
HETATM   18  C22 MIQ B 502       1.826 -16.066   9.544  1.00139.52     0.106 C 
HETATM   19  O24 MIQ B 502       0.035 -16.887   8.239  1.00146.13    -0.273 OA
HETATM   20  C23 MIQ B 502       2.395 -14.697   9.218  1.00139.15     0.045 C 
ENDBRANCH  10  12
BRANCH   5  21
HETATM   21  N6  MIQ B 502       3.540 -11.530  16.640  1.00140.95    -0.377 N 
HETATM   22  C7  MIQ B 502       2.422 -12.045  17.412  1.00142.12     0.149 C 
HETATM   23  C8  MIQ B 502       2.381 -11.456  18.816  1.00144.10     0.187 C 
HETATM   24  O9  MIQ B 502       3.619 -11.497  19.460  1.00148.65    -0.388 OA
HETATM   25  C10 MIQ B 502       4.774 -11.836  18.750  1.00147.44     0.187 C 
HETATM   26  C11 MIQ B 502       4.849 -11.484  17.268  1.00144.08     0.149 C 
ENDBRANCH   5  21
TORSDOF 2
ENDMDL
MODEL 2
REMARK VINA RESULT:      -6.7      9.352     12.727
REMARK  2 active torsions:
REMARK  status: ('A' for Active; 'I' for Inactive)
REMARK    1  A    between atoms: C5_5  and  N6_21 
REMARK    2  A    between atoms: C18_14  and  N17_19 
ROOT
HETATM    1  O1  MIQ B 502      -0.924  -9.686  24.787  1.00142.91    -0.171 OA
HETATM    2  C2  MIQ B 502      -1.050  -8.862  23.666  1.00141.17     0.195 A 
HETATM    3  C3  MIQ B 502       0.051  -8.594  22.590  1.00141.71     0.035 A 
HETATM    4  C4  MIQ B 502       1.442  -9.073  22.415  1.00142.86     0.046 A 
HETATM    5  C5  MIQ B 502       2.214  -8.643  21.306  1.00139.53     0.031 A 
HETATM    6  C12 MIQ B 502       1.635  -7.727  20.334  1.00139.38     0.030 A 
HETATM    7  C13 MIQ B 502       0.300  -7.268  20.501  1.00141.18     0.019 A 
HETATM    8  C14 MIQ B 502      -0.506  -7.725  21.666  1.00138.77     0.033 A 
HETATM    9  C15 MIQ B 502      -1.960  -7.452  22.171  1.00142.10     0.195 A 
HETATM   10  N17 MIQ B 502      -2.100  -8.156  23.282  1.00139.42    -0.288 N 
HETATM   11  O16 MIQ B 502      -2.913  -6.628  21.569  1.00148.93    -0.171 OA
ENDROOT
BRANCH  10  12
HETATM   12  C18 MIQ B 502      -3.335  -8.133  24.044  1.00139.82     0.187 C 
HETATM   13  C19 MIQ B 502      -2.983  -7.782  25.494  1.00140.06     0.247 C 
HETATM   14  O25 MIQ B 502      -2.314  -6.835  25.711  1.00143.95    -0.271 OA
HETATM   15  N20 MIQ B 502      -3.454  -8.578  26.609  1.00140.02    -0.296 N 
HETATM   16  H13 MIQ B 502      -3.212  -8.341  27.551  1.00142.77     0.171 HD
HETATM   17  C21 MIQ B 502      -4.261  -9.735  26.318  1.00142.22     0.224 C 
HETATM   18  C22 MIQ B 502      -3.947 -10.479  25.034  1.00139.52     0.106 C 
HETATM   19  O24 MIQ B 502      -5.127 -10.082  27.043  1.00146.13    -0.273 OA
HETATM   20  C23 MIQ B 502      -4.067  -9.467  23.909  1.00139.15     0.045 C 
ENDBRANCH  10  12
BRANCH   5  21
HETATM   21  N6  MIQ B 502       3.581  -9.109  21.155  1.00140.95    -0.377 N 
HETATM   22  C7  MIQ B 502       3.986  -9.669  19.877  1.00142.12     0.149 C 
HETATM   23  C8  MIQ B 502       5.135 -10.658  20.029  1.00144.10     0.187 C 
HETATM   24  O9  MIQ B 502       6.174 -10.167  20.823  1.00148.65    -0.388 OA
HETATM   25  C10 MIQ B 502       6.008  -8.990  21.557  1.00147.44     0.187 C 
HETATM   26  C11 MIQ B 502       4.613  -8.635  22.060  1.00144.08     0.149 C 
ENDBRANCH   5  21
TORSDOF 2
ENDMDL
MODEL 3
REMARK VINA RESULT:      -6.6     11.454     15.189
REMARK  2 active torsions:
REMARK  status: ('A' for Active; 'I' for Inactive)
REMARK    1  A    between atoms: C5_5  and  N6_21 
REMARK    2  A    between atoms: C18_14  and  N17_19 
ROOT
HETATM    1  O1  MIQ B 502      -6.171 -19.854   7.778  1.00142.91    -0.171 OA
HETATM    2  C2  MIQ B 502      -7.179 -20.080   6.838  1.00141.17     0.195 A 
HETATM    3  C3  MIQ B 502      -8.652 -20.499   7.147  1.00141.71     0.035 A 
HETATM    4  C4  MIQ B 502      -9.393 -20.765   8.402  1.00142.86     0.046 A 
HETATM    5  C5  MIQ B 502     -10.761 -21.137   8.361  1.00139.53     0.031 A 
HETATM    6  C12 MIQ B 502     -11.440 -21.256   7.079  1.00139.38     0.030 A 
HETATM    7  C13 MIQ B 502     -10.729 -21.000   5.875  1.00141.18     0.019 A 
HETATM    8  C14 MIQ B 502      -9.294 -20.608   5.924  1.00138.77     0.033 A 
HETATM    9  C15 MIQ B 502      -8.214 -20.253   4.850  1.00142.10     0.195 A 
HETATM   10  N17 MIQ B 502      -7.106 -19.985   5.521  1.00139.42    -0.288 N 
HETATM   11  O16 MIQ B 502      -8.389 -20.230   3.466  1.00148.93    -0.171 OA
ENDROOT
BRANCH  10  12
HETATM   12  C18 MIQ B 502      -5.876 -19.626   4.840  1.00139.82     0.187 C 
HETATM   13  C19 MIQ B 502      -4.759 -20.523   5.389  1.00140.06     0.247 C 
HETATM   14  O25 MIQ B 502      -4.921 -21.691   5.420  1.00143.95    -0.271 OA
HETATM   15  N20 MIQ B 502      -3.506 -19.976   5.866  1.00140.02    -0.296 N 
HETATM   16  H13 MIQ B 502      -2.787 -20.571   6.228  1.00142.77     0.171 HD
HETATM   17  C21 MIQ B 502      -3.336 -18.546   5.827  1.00142.22     0.224 C 
HETATM   18  C22 MIQ B 502      -4.577 -17.706   6.058  1.00139.52     0.106 C 
HETATM   19  O24 MIQ B 502      -2.281 -18.055   5.621  1.00146.13    -0.273 OA
HETATM   20  C23 MIQ B 502      -5.589 -18.136   5.011  1.00139.15     0.045 C 
ENDBRANCH  10  12
BRANCH   5  21
HETATM   21  N6  MIQ B 502     -11.471 -21.409   9.598  1.00140.95    -0.377 N 
HETATM   22  C7  MIQ B 502     -10.778 -22.128  10.653  1.00142.12     0.149 C 
HETATM   23  C8  MIQ B 502     -11.744 -22.886  11.554  1.00144.10     0.187 C 
HETATM   24  O9  MIQ B 502     -12.823 -22.105  11.973  1.00148.65    -0.388 OA
HETATM   25  C10 MIQ B 502     -13.053 -20.851  11.401  1.00147.44     0.187 C 
HETATM   26  C11 MIQ B 502     -12.641 -20.625   9.950  1.00144.08     0.149 C 
ENDBRANCH   5  21
TORSDOF 2
ENDMDL
MODEL 4
REMARK VINA RESULT:      -6.6      2.190      2.837
REMARK  2 active torsions:
REMARK  status: ('A' for Active; 'I' for Inactive)
REMARK    1  A    between atoms: C5_5  and  N6_21 
REMARK    2  A    between atoms: C18_14  and  N17_19 
ROOT
HETATM    1  O1  MIQ B 502       3.446 -15.342  14.084  1.00142.91    -0.171 OA
HETATM    2  C2  MIQ B 502       3.361 -14.120  13.413  1.00141.17     0.195 A 
HETATM    3  C3  MIQ B 502       4.034 -12.779  13.849  1.00141.71     0.035 A 
HETATM    4  C4  MIQ B 502       4.896 -12.397  14.992  1.00142.86     0.046 A 
HETATM    5  C5  MIQ B 502       5.366 -11.065  15.121  1.00139.53     0.031 A 
HETATM    6  C12 MIQ B 502       5.000 -10.070  14.124  1.00139.38     0.030 A 
HETATM    7  C13 MIQ B 502       4.174 -10.436  13.027  1.00141.18     0.019 A 
HETATM    8  C14 MIQ B 502       3.685 -11.836  12.896  1.00138.77     0.033 A 
HETATM    9  C15 MIQ B 502       2.792 -12.596  11.862  1.00142.10     0.195 A 
HETATM   10  N17 MIQ B 502       2.715 -13.844  12.293  1.00139.42    -0.288 N 
HETATM   11  O16 MIQ B 502       2.197 -12.059  10.719  1.00148.93    -0.171 OA
ENDROOT
BRANCH  10  12
HETATM   12  C18 MIQ B 502       1.942 -14.845  11.581  1.00139.82     0.187 C 
HETATM   13  C19 MIQ B 502       2.431 -14.865  10.127  1.00140.06     0.247 C 
HETATM   14  O25 MIQ B 502       3.586 -14.963   9.909  1.00143.95    -0.271 OA
HETATM   15  N20 MIQ B 502       1.512 -14.774   9.011  1.00140.02    -0.296 N 
HETATM   16  H13 MIQ B 502       1.844 -14.782   8.067  1.00142.77     0.171 HD
HETATM   17  C21 MIQ B 502       0.107 -14.645   9.303  1.00142.22     0.224 C 
HETATM   18  C22 MIQ B 502      -0.260 -13.869  10.554  1.00139.52     0.106 C 
HETATM   19  O24 MIQ B 502      -0.716 -15.124   8.604  1.00146.13    -0.273 OA
HETATM   20  C23 MIQ B 502       0.448 -14.554  11.709  1.00139.15     0.045 C 
ENDBRANCH  10  12
BRANCH   5  21
HETATM   21  N6  MIQ B 502       6.198 -10.701  16.254  1.00140.95    -0.377 N 
HETATM   22  C7  MIQ B 502       6.445  -9.293  16.510  1.00142.12     0.149 C 
HETATM   23  C8  MIQ B 502       7.761  -9.070  17.244  1.00144.10     0.187 C 
HETATM   24  O9  MIQ B 502       7.918  -9.913  18.346  1.00148.65    -0.388 OA
HETATM   25  C10 MIQ B 502       7.038 -10.978  18.553  1.00147.44     0.187 C 
HETATM   26  C11 MIQ B 502       6.402 -11.646  17.338  1.00144.08     0.149 C 
ENDBRANCH   5  21
TORSDOF 2
ENDMDL
MODEL 5
REMARK VINA RESULT:      -6.6      4.892      6.312
REMARK  2 active torsions:
REMARK  status: ('A' for Active; 'I' for Inactive)
REMARK    1  A    between atoms: C5_5  and  N6_21 
REMARK    2  A    between atoms: C18_14  and  N17_19 
ROOT
HETATM    1  O1  MIQ B 502       3.724 -16.015  10.209  1.00142.91    -0.171 OA
HETATM    2  C2  MIQ B 502       3.756 -15.528  11.517  1.00141.17     0.195 A 
HETATM    3  C3  MIQ B 502       3.918 -16.381  12.816  1.00141.71     0.035 A 
HETATM    4  C4  MIQ B 502       4.076 -17.833  13.067  1.00142.86     0.046 A 
HETATM    5  C5  MIQ B 502       4.205 -18.321  14.392  1.00139.53     0.031 A 
HETATM    6  C12 MIQ B 502       4.181 -17.390  15.511  1.00139.38     0.030 A 
HETATM    7  C13 MIQ B 502       4.030 -15.998  15.270  1.00141.18     0.019 A 
HETATM    8  C14 MIQ B 502       3.898 -15.491  13.877  1.00138.77     0.033 A 
HETATM    9  C15 MIQ B 502       3.724 -14.076  13.233  1.00142.10     0.195 A 
HETATM   10  N17 MIQ B 502       3.665 -14.274  11.927  1.00139.42    -0.288 N 
HETATM   11  O16 MIQ B 502       3.645 -12.856  13.907  1.00148.93    -0.171 OA
ENDROOT
BRANCH  10  12
HETATM   12  C18 MIQ B 502       3.488 -13.170  11.001  1.00139.82     0.187 C 
HETATM   13  C19 MIQ B 502       2.264 -13.481  10.132  1.00140.06     0.247 C 
HETATM   14  O25 MIQ B 502       1.250 -13.786  10.653  1.00143.95    -0.271 OA
HETATM   15  N20 MIQ B 502       2.314 -13.405   8.686  1.00140.02    -0.296 N 
HETATM   16  H13 MIQ B 502       1.509 -13.617   8.130  1.00142.77     0.171 HD
HETATM   17  C21 MIQ B 502       3.566 -13.041   8.073  1.00142.22     0.224 C 
HETATM   18  C22 MIQ B 502       4.828 -13.503   8.776  1.00139.52     0.106 C 
HETATM   19  O24 MIQ B 502       3.604 -12.410   7.075  1.00146.13    -0.273 OA
HETATM   20  C23 MIQ B 502       4.762 -12.949  10.188  1.00139.15     0.045 C 
ENDBRANCH  10  12
BRANCH   5  21
HETATM   21  N6  MIQ B 502       4.345 -19.747  14.625  1.00140.95    -0.377 N 
HETATM   22  C7  MIQ B 502       3.731 -20.668  13.683  1.00142.12     0.149 C 
HETATM   23  C8  MIQ B 502       3.390 -22.003  14.333  1.00144.10     0.187 C 
HETATM   24  O9  MIQ B 502       4.446 -22.529  15.081  1.00148.65    -0.388 OA
HETATM   25  C10 MIQ B 502       5.575 -21.752  15.354  1.00147.44     0.187 C 
HETATM   26  C11 MIQ B 502       5.409 -20.242  15.481  1.00144.08     0.149 C 
ENDBRANCH   5  21
TORSDOF 2
ENDMDL
MODEL 6
REMARK VINA RESULT:      -6.6      6.344     10.742
REMARK  2 active torsions:
REMARK  status: ('A' for Active; 'I' for Inactive)
REMARK    1  A    between atoms: C5_5  and  N6_21 
REMARK    2  A    between atoms: C18_14  and  N17_19 
ROOT
HETATM    1  O1  MIQ B 502       2.410 -10.063  22.531  1.00142.91    -0.171 OA
HETATM    2  C2  MIQ B 502       1.791  -9.886  21.292  1.00141.17     0.195 A 
HETATM    3  C3  MIQ B 502       2.050 -10.729  20.003  1.00141.71     0.035 A 
HETATM    4  C4  MIQ B 502       2.937 -11.876  19.696  1.00142.86     0.046 A 
HETATM    5  C5  MIQ B 502       2.951 -12.445  18.398  1.00139.53     0.031 A 
HETATM    6  C12 MIQ B 502       2.087 -11.899  17.361  1.00139.38     0.030 A 
HETATM    7  C13 MIQ B 502       1.235 -10.800  17.654  1.00141.18     0.019 A 
HETATM    8  C14 MIQ B 502       1.224 -10.208  19.020  1.00138.77     0.033 A 
HETATM    9  C15 MIQ B 502       0.447  -9.036  19.703  1.00142.10     0.195 A 
HETATM   10  N17 MIQ B 502       0.875  -8.994  20.954  1.00139.42    -0.288 N 
HETATM   11  O16 MIQ B 502      -0.502  -8.203  19.108  1.00148.93    -0.171 OA
ENDROOT
BRANCH  10  12
HETATM   12  C18 MIQ B 502       0.378  -8.005  21.892  1.00139.82     0.187 C 
HETATM   13  C19 MIQ B 502       1.588  -7.354  22.572  1.00140.06     0.247 C 
HETATM   14  O25 MIQ B 502       2.463  -6.927  21.905  1.00143.95    -0.271 OA
HETATM   15  N20 MIQ B 502       1.687  -7.243  24.013  1.00140.02    -0.296 N 
HETATM   16  H13 MIQ B 502       2.486  -6.822  24.445  1.00142.77     0.171 HD
HETATM   17  C21 MIQ B 502       0.612  -7.781  24.806  1.00142.22     0.224 C 
HETATM   18  C22 MIQ B 502      -0.083  -9.015  24.264  1.00139.52     0.106 C 
HETATM   19  O24 MIQ B 502       0.286  -7.280  25.826  1.00146.13    -0.273 OA
HETATM   20  C23 MIQ B 502      -0.592  -8.651  22.881  1.00139.15     0.045 C 
ENDBRANCH  10  12
BRANCH   5  21
HETATM   21  N6  MIQ B 502       3.836 -13.558  18.108  1.00140.95    -0.377 N 
HETATM   22  C7  MIQ B 502       4.291 -13.746  16.741  1.00142.12     0.149 C 
HETATM   23  C8  MIQ B 502       4.631 -15.202  16.450  1.00144.10     0.187 C 
HETATM   24  O9  MIQ B 502       5.439 -15.778  17.432  1.00148.65    -0.388 OA
HETATM   25  C10 MIQ B 502       5.674 -15.110  18.637  1.00147.44     0.187 C 
HETATM   26  C11 MIQ B 502       4.592 -14.182  19.179  1.00144.08     0.149 C 
ENDBRANCH   5  21
TORSDOF 2
ENDMDL
MODEL 7
REMARK VINA RESULT:      -6.6      5.658     11.908
REMARK  2 active torsions:
REMARK  status: ('A' for Active; 'I' for Inactive)
REMARK    1  A    between atoms: C5_5  and  N6_21 
REMARK    2  A    between atoms: C18_14  and  N17_19 
ROOT
HETATM    1  O1  MIQ B 502       0.054  -7.290  20.010  1.00142.91    -0.171 OA
HETATM    2  C2  MIQ B 502       0.362  -8.295  20.929  1.00141.17     0.195 A 
HETATM    3  C3  MIQ B 502       1.147  -9.611  20.628  1.00141.71     0.035 A 
HETATM    4  C4  MIQ B 502       1.762 -10.173  19.402  1.00142.86     0.046 A 
HETATM    5  C5  MIQ B 502       2.427 -11.425  19.442  1.00139.53     0.031 A 
HETATM    6  C12 MIQ B 502       2.505 -12.161  20.695  1.00139.38     0.030 A 
HETATM    7  C13 MIQ B 502       1.916 -11.623  21.871  1.00141.18     0.019 A 
HETATM    8  C14 MIQ B 502       1.222 -10.307  21.823  1.00138.77     0.033 A 
HETATM    9  C15 MIQ B 502       0.480  -9.417  22.873  1.00142.10     0.195 A 
HETATM   10  N17 MIQ B 502       0.069  -8.344  22.217  1.00139.42    -0.288 N 
HETATM   11  O16 MIQ B 502       0.290  -9.703  24.226  1.00148.93    -0.171 OA
ENDROOT
BRANCH  10  12
HETATM   12  C18 MIQ B 502      -0.680  -7.292  22.879  1.00139.82     0.187 C 
HETATM   13  C19 MIQ B 502       0.124  -6.847  24.107  1.00140.06     0.247 C 
HETATM   14  O25 MIQ B 502       1.262  -6.563  23.978  1.00143.95    -0.271 OA
HETATM   15  N20 MIQ B 502      -0.476  -6.759  25.422  1.00140.02    -0.296 N 
HETATM   16  H13 MIQ B 502       0.061  -6.473  26.217  1.00142.77     0.171 HD
HETATM   17  C21 MIQ B 502      -1.864  -7.121  25.556  1.00142.22     0.224 C 
HETATM   18  C22 MIQ B 502      -2.370  -8.226  24.649  1.00139.52     0.106 C 
HETATM   19  O24 MIQ B 502      -2.572  -6.579  26.332  1.00146.13    -0.273 OA
HETATM   20  C23 MIQ B 502      -2.086  -7.779  23.226  1.00139.15     0.045 C 
ENDBRANCH  10  12
BRANCH   5  21
HETATM   21  N6  MIQ B 502       3.012 -11.969  18.230  1.00140.95    -0.377 N 
HETATM   22  C7  MIQ B 502       4.048 -12.981  18.353  1.00142.12     0.149 C 
HETATM   23  C8  MIQ B 502       4.983 -12.986  17.151  1.00144.10     0.187 C 
HETATM   24  O9  MIQ B 502       4.302 -12.974  15.932  1.00148.65    -0.388 OA
HETATM   25  C10 MIQ B 502       2.924 -12.744  15.894  1.00147.44     0.187 C 
HETATM   26  C11 MIQ B 502       2.302 -11.857  16.968  1.00144.08     0.149 C 
ENDBRANCH   5  21
TORSDOF 2
ENDMDL
MODEL 8
REMARK VINA RESULT:      -6.5      1.945      2.947
REMARK  2 active torsions:
REMARK  status: ('A' for Active; 'I' for Inactive)
REMARK    1  A    between atoms: C5_5  and  N6_21 
REMARK    2  A    between atoms: C18_14  and  N17_19 
ROOT
HETATM    1  O1  MIQ B 502       4.173 -10.865  10.932  1.00142.91    -0.171 OA
HETATM    2  C2  MIQ B 502       3.529 -11.658  11.884  1.00141.17     0.195 A 
HETATM    3  C3  MIQ B 502       3.864 -11.725  13.408  1.00141.71     0.035 A 
HETATM    4  C4  MIQ B 502       4.865 -11.043  14.262  1.00142.86     0.046 A 
HETATM    5  C5  MIQ B 502       4.928 -11.318  15.652  1.00139.53     0.031 A 
HETATM    6  C12 MIQ B 502       4.003 -12.274  16.242  1.00139.38     0.030 A 
HETATM    7  C13 MIQ B 502       3.042 -12.928  15.423  1.00141.18     0.019 A 
HETATM    8  C14 MIQ B 502       2.979 -12.634  13.966  1.00138.77     0.033 A 
HETATM    9  C15 MIQ B 502       2.089 -13.133  12.781  1.00142.10     0.195 A 
HETATM   10  N17 MIQ B 502       2.521 -12.495  11.706  1.00139.42    -0.288 N 
HETATM   11  O16 MIQ B 502       1.052 -14.065  12.850  1.00148.93    -0.171 OA
ENDROOT
BRANCH  10  12
HETATM   12  C18 MIQ B 502       1.930 -12.724  10.401  1.00139.82     0.187 C 
HETATM   13  C19 MIQ B 502       0.430 -12.423  10.508  1.00140.06     0.247 C 
HETATM   14  O25 MIQ B 502       0.080 -11.398  10.976  1.00143.95    -0.271 OA
HETATM   15  N20 MIQ B 502      -0.573 -13.360  10.044  1.00140.02    -0.296 N 
HETATM   16  H13 MIQ B 502      -1.549 -13.154  10.125  1.00142.77     0.171 HD
HETATM   17  C21 MIQ B 502      -0.121 -14.609   9.486  1.00142.22     0.224 C 
HETATM   18  C22 MIQ B 502       1.144 -15.201  10.075  1.00139.52     0.106 C 
HETATM   19  O24 MIQ B 502      -0.707 -15.141   8.608  1.00146.13    -0.273 OA
HETATM   20  C23 MIQ B 502       2.225 -14.146   9.925  1.00139.15     0.045 C 
ENDBRANCH  10  12
BRANCH   5  21
HETATM   21  N6  MIQ B 502       5.923 -10.654  16.473  1.00140.95    -0.377 N 
HETATM   22  C7  MIQ B 502       6.717 -11.457  17.388  1.00142.12     0.149 C 
HETATM   23  C8  MIQ B 502       7.207 -10.644  18.580  1.00144.10     0.187 C 
HETATM   24  O9  MIQ B 502       7.776  -9.424  18.208  1.00148.65    -0.388 OA
HETATM   25  C10 MIQ B 502       7.661  -8.960  16.896  1.00147.44     0.187 C 
HETATM   26  C11 MIQ B 502       6.424  -9.345  16.092  1.00144.08     0.149 C 
ENDBRANCH   5  21
TORSDOF 2
ENDMDL
MODEL 9
REMARK VINA RESULT:      -6.5      3.000      8.323
REMARK  2 active torsions:
REMARK  status: ('A' for Active; 'I' for Inactive)
REMARK    1  A    between atoms: C5_5  and  N6_21 
REMARK    2  A    between atoms: C18_14  and  N17_19 
ROOT
HETATM    1  O1  MIQ B 502       2.878 -11.873  15.995  1.00142.91    -0.171 OA
HETATM    2  C2  MIQ B 502       3.528 -12.992  15.471  1.00141.17     0.195 A 
HETATM    3  C3  MIQ B 502       3.149 -13.747  14.157  1.00141.71     0.035 A 
HETATM    4  C4  MIQ B 502       2.092 -13.550  13.137  1.00142.86     0.046 A 
HETATM    5  C5  MIQ B 502       2.000 -14.423  12.023  1.00139.53     0.031 A 
HETATM    6  C12 MIQ B 502       2.950 -15.517  11.882  1.00139.38     0.030 A 
HETATM    7  C13 MIQ B 502       3.964 -15.706  12.859  1.00141.18     0.019 A 
HETATM    8  C14 MIQ B 502       4.057 -14.785  14.025  1.00138.77     0.033 A 
HETATM    9  C15 MIQ B 502       5.005 -14.673  15.264  1.00142.10     0.195 A 
HETATM   10  N17 MIQ B 502       4.578 -13.631  15.958  1.00139.42    -0.288 N 
HETATM   11  O16 MIQ B 502       6.081 -15.508  15.571  1.00148.93    -0.171 OA
ENDROOT
BRANCH  10  12
HETATM   12  C18 MIQ B 502       5.219 -13.232  17.197  1.00139.82     0.187 C 
HETATM   13  C19 MIQ B 502       6.714 -13.046  16.911  1.00140.06     0.247 C 
HETATM   14  O25 MIQ B 502       7.047 -12.369  16.005  1.00143.95    -0.271 OA
HETATM   15  N20 MIQ B 502       7.732 -13.675  17.728  1.00140.02    -0.296 N 
HETATM   16  H13 MIQ B 502       8.704 -13.551  17.527  1.00142.77     0.171 HD
HETATM   17  C21 MIQ B 502       7.300 -14.506  18.822  1.00142.22     0.224 C 
HETATM   18  C22 MIQ B 502       6.011 -15.281  18.622  1.00139.52     0.106 C 
HETATM   19  O24 MIQ B 502       7.918 -14.575  19.827  1.00146.13    -0.273 OA
HETATM   20  C23 MIQ B 502       4.939 -14.257  18.295  1.00139.15     0.045 C 
ENDBRANCH  10  12
BRANCH   5  21
HETATM   21  N6  MIQ B 502       0.951 -14.227  11.040  1.00140.95    -0.377 N 
HETATM   22  C7  MIQ B 502       0.588 -12.869  10.672  1.00142.12     0.149 C 
HETATM   23  C8  MIQ B 502      -0.853 -12.777  10.187  1.00144.10     0.187 C 
HETATM   24  O9  MIQ B 502      -1.174 -13.757   9.246  1.00148.65    -0.388 OA
HETATM   25  C10 MIQ B 502      -0.296 -14.815   8.998  1.00147.44     0.187 C 
HETATM   26  C11 MIQ B 502       0.593 -15.307  10.136  1.00144.08     0.149 C 
ENDBRANCH   5  21
TORSDOF 2
ENDMDL
