MODEL 1
REMARK VINA RESULT:      -6.4      0.000      0.000
REMARK  2 active torsions:
REMARK  status: ('A' for Active; 'I' for Inactive)
REMARK    1  A    between atoms: C5_5  and  N6_21 
REMARK    2  A    between atoms: C18_14  and  N17_19 
ROOT
HETATM    1  O1  MIQ B 502       2.695  25.669  27.847  1.00142.91    -0.171 OA
HETATM    2  C2  MIQ B 502       2.762  26.835  27.081  1.00141.17     0.195 A 
HETATM    3  C3  MIQ B 502       1.743  27.278  25.983  1.00141.71     0.035 A 
HETATM    4  C4  MIQ B 502       0.499  26.677  25.447  1.00142.86     0.046 A 
HETATM    5  C5  MIQ B 502      -0.230  27.334  24.423  1.00139.53     0.031 A 
HETATM    6  C12 MIQ B 502       0.247  28.606  23.898  1.00139.38     0.030 A 
HETATM    7  C13 MIQ B 502       1.439  29.182  24.414  1.00141.18     0.019 A 
HETATM    8  C14 MIQ B 502       2.199  28.489  25.490  1.00138.77     0.033 A 
HETATM    9  C15 MIQ B 502       3.508  28.801  26.286  1.00142.10     0.195 A 
HETATM   10  N17 MIQ B 502       3.674  27.791  27.124  1.00139.42    -0.288 N 
HETATM   11  O16 MIQ B 502       4.331  29.918  26.136  1.00148.93    -0.171 OA
ENDROOT
BRANCH  10  12
HETATM   12  C18 MIQ B 502       4.811  27.733  28.024  1.00139.82     0.187 C 
HETATM   13  C19 MIQ B 502       5.466  26.356  27.863  1.00140.06     0.247 C 
HETATM   14  O25 MIQ B 502       5.740  25.971  26.782  1.00143.95    -0.271 OA
HETATM   15  N20 MIQ B 502       5.763  25.513  29.003  1.00140.02    -0.296 N 
HETATM   16  H13 MIQ B 502       6.185  24.613  28.884  1.00142.77     0.171 HD
HETATM   17  C21 MIQ B 502       5.410  26.000  30.312  1.00142.22     0.224 C 
HETATM   18  C22 MIQ B 502       4.163  26.858  30.406  1.00139.52     0.106 C 
HETATM   19  O24 MIQ B 502       6.064  25.746  31.263  1.00146.13    -0.273 OA
HETATM   20  C23 MIQ B 502       4.371  28.025  29.457  1.00139.15     0.045 C 
ENDBRANCH  10  12
BRANCH   5  21
HETATM   21  N6  MIQ B 502      -1.439  26.727  23.897  1.00140.95    -0.377 N 
HETATM   22  C7  MIQ B 502      -2.067  27.327  22.732  1.00142.12     0.149 C 
HETATM   23  C8  MIQ B 502      -3.562  27.043  22.682  1.00144.10     0.187 C 
HETATM   24  O9  MIQ B 502      -3.868  25.698  22.898  1.00148.65    -0.388 OA
HETATM   25  C10 MIQ B 502      -2.883  24.811  23.339  1.00147.44     0.187 C 
HETATM   26  C11 MIQ B 502      -1.759  25.348  24.220  1.00144.08     0.149 C 
ENDBRANCH   5  21
TORSDOF 2
ENDMDL
MODEL 2
REMARK VINA RESULT:      -6.3      0.734      1.147
REMARK  2 active torsions:
REMARK  status: ('A' for Active; 'I' for Inactive)
REMARK    1  A    between atoms: C5_5  and  N6_21 
REMARK    2  A    between atoms: C18_14  and  N17_19 
ROOT
HETATM    1  O1  MIQ B 502       3.029  25.349  28.155  1.00142.91    -0.171 OA
HETATM    2  C2  MIQ B 502       3.151  26.533  27.424  1.00141.17     0.195 A 
HETATM    3  C3  MIQ B 502       2.153  27.055  26.342  1.00141.71     0.035 A 
HETATM    4  C4  MIQ B 502       0.880  26.531  25.792  1.00142.86     0.046 A 
HETATM    5  C5  MIQ B 502       0.182  27.251  24.790  1.00139.53     0.031 A 
HETATM    6  C12 MIQ B 502       0.718  28.513  24.301  1.00139.38     0.030 A 
HETATM    7  C13 MIQ B 502       1.937  29.017  24.829  1.00141.18     0.019 A 
HETATM    8  C14 MIQ B 502       2.665  28.257  25.882  1.00138.77     0.033 A 
HETATM    9  C15 MIQ B 502       3.989  28.483  26.684  1.00142.10     0.195 A 
HETATM   10  N17 MIQ B 502       4.108  27.442  27.492  1.00139.42    -0.288 N 
HETATM   11  O16 MIQ B 502       4.864  29.563  26.564  1.00148.93    -0.171 OA
ENDROOT
BRANCH  10  12
HETATM   12  C18 MIQ B 502       5.242  27.304  28.386  1.00139.82     0.187 C 
HETATM   13  C19 MIQ B 502       5.886  25.938  28.117  1.00140.06     0.247 C 
HETATM   14  O25 MIQ B 502       6.159  25.638  27.010  1.00143.95    -0.271 OA
HETATM   15  N20 MIQ B 502       6.174  25.006  29.188  1.00140.02    -0.296 N 
HETATM   16  H13 MIQ B 502       6.589  24.115  28.998  1.00142.77     0.171 HD
HETATM   17  C21 MIQ B 502       5.822  25.390  30.530  1.00142.22     0.224 C 
HETATM   18  C22 MIQ B 502       4.582  26.249  30.690  1.00139.52     0.106 C 
HETATM   19  O24 MIQ B 502       6.471  25.057  31.459  1.00146.13    -0.273 OA
HETATM   20  C23 MIQ B 502       4.801  27.485  29.837  1.00139.15     0.045 C 
ENDBRANCH  10  12
BRANCH   5  21
HETATM   21  N6  MIQ B 502      -1.055  26.719  24.249  1.00140.95    -0.377 N 
HETATM   22  C7  MIQ B 502      -1.248  25.279  24.244  1.00142.12     0.149 C 
HETATM   23  C8  MIQ B 502      -2.195  24.836  23.137  1.00144.10     0.187 C 
HETATM   24  O9  MIQ B 502      -3.366  25.595  23.086  1.00148.65    -0.388 OA
HETATM   25  C10 MIQ B 502      -3.484  26.764  23.842  1.00147.44     0.187 C 
HETATM   26  C11 MIQ B 502      -2.225  27.572  24.137  1.00144.08     0.149 C 
ENDBRANCH   5  21
TORSDOF 2
ENDMDL
MODEL 3
REMARK VINA RESULT:      -6.1      2.149      8.133
REMARK  2 active torsions:
REMARK  status: ('A' for Active; 'I' for Inactive)
REMARK    1  A    between atoms: C5_5  and  N6_21 
REMARK    2  A    between atoms: C18_14  and  N17_19 
ROOT
HETATM    1  O1  MIQ B 502      -1.597  26.822  24.660  1.00142.91    -0.171 OA
HETATM    2  C2  MIQ B 502      -0.694  27.849  24.378  1.00141.17     0.195 A 
HETATM    3  C3  MIQ B 502       0.745  27.999  24.966  1.00141.71     0.035 A 
HETATM    4  C4  MIQ B 502       1.548  27.190  25.914  1.00142.86     0.046 A 
HETATM    5  C5  MIQ B 502       2.862  27.591  26.265  1.00139.53     0.031 A 
HETATM    6  C12 MIQ B 502       3.424  28.805  25.690  1.00139.38     0.030 A 
HETATM    7  C13 MIQ B 502       2.655  29.580  24.781  1.00141.18     0.019 A 
HETATM    8  C14 MIQ B 502       1.278  29.153  24.414  1.00138.77     0.033 A 
HETATM    9  C15 MIQ B 502       0.163  29.722  23.478  1.00142.10     0.195 A 
HETATM   10  N17 MIQ B 502      -0.856  28.884  23.571  1.00139.42    -0.288 N 
HETATM   11  O16 MIQ B 502       0.233  30.883  22.705  1.00148.93    -0.171 OA
ENDROOT
BRANCH  10  12
HETATM   12  C18 MIQ B 502      -2.090  29.107  22.840  1.00139.82     0.187 C 
HETATM   13  C19 MIQ B 502      -3.240  29.112  23.855  1.00140.06     0.247 C 
HETATM   14  O25 MIQ B 502      -3.163  29.802  24.809  1.00143.95    -0.271 OA
HETATM   15  N20 MIQ B 502      -4.424  28.298  23.671  1.00140.02    -0.296 N 
HETATM   16  H13 MIQ B 502      -5.165  28.306  24.344  1.00142.77     0.171 HD
HETATM   17  C21 MIQ B 502      -4.490  27.457  22.504  1.00142.22     0.224 C 
HETATM   18  C22 MIQ B 502      -3.180  26.876  22.008  1.00139.52     0.106 C 
HETATM   19  O24 MIQ B 502      -5.515  27.237  21.959  1.00146.13    -0.273 OA
HETATM   20  C23 MIQ B 502      -2.258  28.053  21.747  1.00139.15     0.045 C 
ENDBRANCH  10  12
BRANCH   5  21
HETATM   21  N6  MIQ B 502       3.631  26.797  27.205  1.00140.95    -0.377 N 
HETATM   22  C7  MIQ B 502       2.955  25.742  27.939  1.00142.12     0.149 C 
HETATM   23  C8  MIQ B 502       3.634  25.450  29.271  1.00144.10     0.187 C 
HETATM   24  O9  MIQ B 502       5.018  25.304  29.155  1.00148.65    -0.388 OA
HETATM   25  C10 MIQ B 502       5.667  25.636  27.963  1.00147.44     0.187 C 
HETATM   26  C11 MIQ B 502       5.079  26.745  27.096  1.00144.08     0.149 C 
ENDBRANCH   5  21
TORSDOF 2
ENDMDL
MODEL 4
REMARK VINA RESULT:      -6.1     14.793     17.795
REMARK  2 active torsions:
REMARK  status: ('A' for Active; 'I' for Inactive)
REMARK    1  A    between atoms: C5_5  and  N6_21 
REMARK    2  A    between atoms: C18_14  and  N17_19 
ROOT
HETATM    1  O1  MIQ B 502      -1.197  24.920  11.173  1.00142.91    -0.171 OA
HETATM    2  C2  MIQ B 502      -0.235  24.264  10.402  1.00141.17     0.195 A 
HETATM    3  C3  MIQ B 502       1.280  24.633  10.306  1.00141.71     0.035 A 
HETATM    4  C4  MIQ B 502       2.114  25.685  10.935  1.00142.86     0.046 A 
HETATM    5  C5  MIQ B 502       3.499  25.769  10.646  1.00139.53     0.031 A 
HETATM    6  C12 MIQ B 502       4.105  24.815   9.728  1.00139.38     0.030 A 
HETATM    7  C13 MIQ B 502       3.306  23.806   9.126  1.00141.18     0.019 A 
HETATM    8  C14 MIQ B 502       1.852  23.721   9.435  1.00138.77     0.033 A 
HETATM    9  C15 MIQ B 502       0.687  22.781   8.986  1.00142.10     0.195 A 
HETATM   10  N17 MIQ B 502      -0.394  23.215   9.613  1.00139.42    -0.288 N 
HETATM   11  O16 MIQ B 502       0.774  21.704   8.102  1.00148.93    -0.171 OA
ENDROOT
BRANCH  10  12
HETATM   12  C18 MIQ B 502      -1.686  22.582   9.422  1.00139.82     0.187 C 
HETATM   13  C19 MIQ B 502      -2.692  23.676   9.042  1.00140.06     0.247 C 
HETATM   14  O25 MIQ B 502      -2.431  24.418   8.163  1.00143.95    -0.271 OA
HETATM   15  N20 MIQ B 502      -3.958  23.821   9.730  1.00140.02    -0.296 N 
HETATM   16  H13 MIQ B 502      -4.603  24.543   9.477  1.00142.77     0.171 HD
HETATM   17  C21 MIQ B 502      -4.249  22.909  10.807  1.00142.22     0.224 C 
HETATM   18  C22 MIQ B 502      -3.072  22.440  11.639  1.00139.52     0.106 C 
HETATM   19  O24 MIQ B 502      -5.352  22.543  11.025  1.00146.13    -0.273 OA
HETATM   20  C23 MIQ B 502      -2.088  21.805  10.674  1.00139.15     0.045 C 
ENDBRANCH  10  12
BRANCH   5  21
HETATM   21  N6  MIQ B 502       4.301  26.813  11.258  1.00140.95    -0.377 N 
HETATM   22  C7  MIQ B 502       3.633  27.816  12.069  1.00142.12     0.149 C 
HETATM   23  C8  MIQ B 502       4.403  29.130  12.097  1.00144.10     0.187 C 
HETATM   24  O9  MIQ B 502       5.763  28.957  12.361  1.00148.65    -0.388 OA
HETATM   25  C10 MIQ B 502       6.329  27.680  12.354  1.00147.44     0.187 C 
HETATM   26  C11 MIQ B 502       5.730  26.622  11.434  1.00144.08     0.149 C 
ENDBRANCH   5  21
TORSDOF 2
ENDMDL
MODEL 5
REMARK VINA RESULT:      -6.0      2.087      8.110
REMARK  2 active torsions:
REMARK  status: ('A' for Active; 'I' for Inactive)
REMARK    1  A    between atoms: C5_5  and  N6_21 
REMARK    2  A    between atoms: C18_14  and  N17_19 
ROOT
HETATM    1  O1  MIQ B 502      -1.566  26.588  24.678  1.00142.91    -0.171 OA
HETATM    2  C2  MIQ B 502      -0.683  27.641  24.427  1.00141.17     0.195 A 
HETATM    3  C3  MIQ B 502       0.760  27.793  25.007  1.00141.71     0.035 A 
HETATM    4  C4  MIQ B 502       1.586  26.962  25.915  1.00142.86     0.046 A 
HETATM    5  C5  MIQ B 502       2.896  27.373  26.269  1.00139.53     0.031 A 
HETATM    6  C12 MIQ B 502       3.432  28.617  25.736  1.00139.38     0.030 A 
HETATM    7  C13 MIQ B 502       2.640  29.413  24.864  1.00141.18     0.019 A 
HETATM    8  C14 MIQ B 502       1.267  28.976  24.495  1.00138.77     0.033 A 
HETATM    9  C15 MIQ B 502       0.133  29.561  23.591  1.00142.10     0.195 A 
HETATM   10  N17 MIQ B 502      -0.871  28.702  23.662  1.00139.42    -0.288 N 
HETATM   11  O16 MIQ B 502       0.175  30.750  22.862  1.00148.93    -0.171 OA
ENDROOT
BRANCH  10  12
HETATM   12  C18 MIQ B 502      -2.115  28.931  22.951  1.00139.82     0.187 C 
HETATM   13  C19 MIQ B 502      -3.253  28.897  23.979  1.00140.06     0.247 C 
HETATM   14  O25 MIQ B 502      -3.172  29.562  24.950  1.00143.95    -0.271 OA
HETATM   15  N20 MIQ B 502      -4.431  28.076  23.788  1.00140.02    -0.296 N 
HETATM   16  H13 MIQ B 502      -5.164  28.058  24.470  1.00142.77     0.171 HD
HETATM   17  C21 MIQ B 502      -4.502  27.265  22.600  1.00142.22     0.224 C 
HETATM   18  C22 MIQ B 502      -3.192  26.711  22.073  1.00139.52     0.106 C 
HETATM   19  O24 MIQ B 502      -5.531  27.048  22.061  1.00146.13    -0.273 OA
HETATM   20  C23 MIQ B 502      -2.285  27.904  21.832  1.00139.15     0.045 C 
ENDBRANCH  10  12
BRANCH   5  21
HETATM   21  N6  MIQ B 502       3.688  26.557  27.171  1.00140.95    -0.377 N 
HETATM   22  C7  MIQ B 502       5.057  26.957  27.448  1.00142.12     0.149 C 
HETATM   23  C8  MIQ B 502       5.930  25.769  27.832  1.00144.10     0.187 C 
HETATM   24  O9  MIQ B 502       5.340  24.950  28.797  1.00148.65    -0.388 OA
HETATM   25  C10 MIQ B 502       4.000  25.127  29.152  1.00147.44     0.187 C 
HETATM   26  C11 MIQ B 502       3.030  25.655  28.100  1.00144.08     0.149 C 
ENDBRANCH   5  21
TORSDOF 2
ENDMDL
MODEL 6
REMARK VINA RESULT:      -6.0      2.037      8.702
REMARK  2 active torsions:
REMARK  status: ('A' for Active; 'I' for Inactive)
REMARK    1  A    between atoms: C5_5  and  N6_21 
REMARK    2  A    between atoms: C18_14  and  N17_19 
ROOT
HETATM    1  O1  MIQ B 502      -0.711  24.904  23.634  1.00142.91    -0.171 OA
HETATM    2  C2  MIQ B 502      -1.000  26.253  23.850  1.00141.17     0.195 A 
HETATM    3  C3  MIQ B 502      -0.117  27.269  24.642  1.00141.71     0.035 A 
HETATM    4  C4  MIQ B 502       1.181  27.156  25.349  1.00142.86     0.046 A 
HETATM    5  C5  MIQ B 502       1.748  28.286  25.991  1.00139.53     0.031 A 
HETATM    6  C12 MIQ B 502       1.050  29.563  25.955  1.00139.38     0.030 A 
HETATM    7  C13 MIQ B 502      -0.194  29.672  25.277  1.00141.18     0.019 A 
HETATM    8  C14 MIQ B 502      -0.782  28.483  24.602  1.00138.77     0.033 A 
HETATM    9  C15 MIQ B 502      -2.086  28.219  23.780  1.00142.10     0.195 A 
HETATM   10  N17 MIQ B 502      -2.050  26.942  23.438  1.00139.42    -0.288 N 
HETATM   11  O16 MIQ B 502      -3.083  29.147  23.474  1.00148.93    -0.171 OA
ENDROOT
BRANCH  10  12
HETATM   12  C18 MIQ B 502      -3.120  26.333  22.670  1.00139.82     0.187 C 
HETATM   13  C19 MIQ B 502      -3.389  27.225  21.453  1.00140.06     0.247 C 
HETATM   14  O25 MIQ B 502      -2.486  27.552  20.767  1.00143.95    -0.271 OA
HETATM   15  N20 MIQ B 502      -4.724  27.676  21.116  1.00140.02    -0.296 N 
HETATM   16  H13 MIQ B 502      -4.885  28.264  20.322  1.00142.77     0.171 HD
HETATM   17  C21 MIQ B 502      -5.808  27.273  21.973  1.00142.22     0.224 C 
HETATM   18  C22 MIQ B 502      -5.491  27.126  23.449  1.00139.52     0.106 C 
HETATM   19  O24 MIQ B 502      -6.889  27.063  21.545  1.00146.13    -0.273 OA
HETATM   20  C23 MIQ B 502      -4.353  26.127  23.548  1.00139.15     0.045 C 
ENDBRANCH  10  12
BRANCH   5  21
HETATM   21  N6  MIQ B 502       3.013  28.158  26.693  1.00140.95    -0.377 N 
HETATM   22  C7  MIQ B 502       3.399  26.850  27.194  1.00142.12     0.149 C 
HETATM   23  C8  MIQ B 502       4.331  26.955  28.395  1.00144.10     0.187 C 
HETATM   24  O9  MIQ B 502       5.383  27.850  28.190  1.00148.65    -0.388 OA
HETATM   25  C10 MIQ B 502       5.384  28.698  27.080  1.00147.44     0.187 C 
HETATM   26  C11 MIQ B 502       4.046  29.163  26.514  1.00144.08     0.149 C 
ENDBRANCH   5  21
TORSDOF 2
ENDMDL
MODEL 7
REMARK VINA RESULT:      -5.9      3.504      6.139
REMARK  2 active torsions:
REMARK  status: ('A' for Active; 'I' for Inactive)
REMARK    1  A    between atoms: C5_5  and  N6_21 
REMARK    2  A    between atoms: C18_14  and  N17_19 
ROOT
HETATM    1  O1  MIQ B 502       8.344  26.140  27.068  1.00142.91    -0.171 OA
HETATM    2  C2  MIQ B 502       7.443  25.386  27.823  1.00141.17     0.195 A 
HETATM    3  C3  MIQ B 502       5.892  25.571  27.862  1.00141.71     0.035 A 
HETATM    4  C4  MIQ B 502       4.960  26.503  27.185  1.00142.86     0.046 A 
HETATM    5  C5  MIQ B 502       3.565  26.425  27.428  1.00139.53     0.031 A 
HETATM    6  C12 MIQ B 502       3.048  25.422  28.348  1.00139.38     0.030 A 
HETATM    7  C13 MIQ B 502       3.941  24.528  28.997  1.00141.18     0.019 A 
HETATM    8  C14 MIQ B 502       5.404  24.613  28.736  1.00138.77     0.033 A 
HETATM    9  C15 MIQ B 502       6.659  23.828  29.241  1.00142.10     0.195 A 
HETATM   10  N17 MIQ B 502       7.700  24.379  28.639  1.00139.42    -0.288 N 
HETATM   11  O16 MIQ B 502       6.671  22.765  30.146  1.00148.93    -0.171 OA
ENDROOT
BRANCH  10  12
HETATM   12  C18 MIQ B 502       9.051  23.910  28.884  1.00139.82     0.187 C 
HETATM   13  C19 MIQ B 502       9.905  25.123  29.273  1.00140.06     0.247 C 
HETATM   14  O25 MIQ B 502       9.526  25.843  30.128  1.00143.95    -0.271 OA
HETATM   15  N20 MIQ B 502      11.167  25.409  28.623  1.00140.02    -0.296 N 
HETATM   16  H13 MIQ B 502      11.712  26.208  28.882  1.00142.77     0.171 HD
HETATM   17  C21 MIQ B 502      11.603  24.521  27.576  1.00142.22     0.224 C 
HETATM   18  C22 MIQ B 502      10.519  23.899  26.716  1.00139.52     0.106 C 
HETATM   19  O24 MIQ B 502      12.748  24.287  27.401  1.00146.13    -0.273 OA
HETATM   20  C23 MIQ B 502       9.586  23.166  27.662  1.00139.15     0.045 C 
ENDBRANCH  10  12
BRANCH   5  21
HETATM   21  N6  MIQ B 502       2.665  27.353  26.769  1.00140.95    -0.377 N 
HETATM   22  C7  MIQ B 502       3.143  28.693  26.474  1.00142.12     0.149 C 
HETATM   23  C8  MIQ B 502       2.004  29.702  26.407  1.00144.10     0.187 C 
HETATM   24  O9  MIQ B 502       0.935  29.263  25.622  1.00148.65    -0.388 OA
HETATM   25  C10 MIQ B 502       0.882  27.941  25.174  1.00147.44     0.187 C 
HETATM   26  C11 MIQ B 502       1.516  26.853  26.035  1.00144.08     0.149 C 
ENDBRANCH   5  21
TORSDOF 2
ENDMDL
MODEL 8
REMARK VINA RESULT:      -5.9      2.717      9.237
REMARK  2 active torsions:
REMARK  status: ('A' for Active; 'I' for Inactive)
REMARK    1  A    between atoms: C5_5  and  N6_21 
REMARK    2  A    between atoms: C18_14  and  N17_19 
ROOT
HETATM    1  O1  MIQ B 502      -0.104  30.799  22.228  1.00142.91    -0.171 OA
HETATM    2  C2  MIQ B 502      -0.596  29.553  22.625  1.00141.17     0.195 A 
HETATM    3  C3  MIQ B 502       0.015  28.628  23.725  1.00141.71     0.035 A 
HETATM    4  C4  MIQ B 502       1.190  28.748  24.620  1.00142.86     0.046 A 
HETATM    5  C5  MIQ B 502       1.498  27.714  25.541  1.00139.53     0.031 A 
HETATM    6  C12 MIQ B 502       0.654  26.530  25.606  1.00139.38     0.030 A 
HETATM    7  C13 MIQ B 502      -0.473  26.415  24.748  1.00141.18     0.019 A 
HETATM    8  C14 MIQ B 502      -0.793  27.504  23.786  1.00138.77     0.033 A 
HETATM    9  C15 MIQ B 502      -1.912  27.734  22.718  1.00142.10     0.195 A 
HETATM   10  N17 MIQ B 502      -1.658  28.911  22.171  1.00139.42    -0.288 N 
HETATM   11  O16 MIQ B 502      -2.962  26.867  22.408  1.00148.93    -0.171 OA
ENDROOT
BRANCH  10  12
HETATM   12  C18 MIQ B 502      -2.494  29.451  21.114  1.00139.82     0.187 C 
HETATM   13  C19 MIQ B 502      -3.953  29.359  21.579  1.00140.06     0.247 C 
HETATM   14  O25 MIQ B 502      -4.248  29.788  22.637  1.00143.95    -0.271 OA
HETATM   15  N20 MIQ B 502      -4.982  28.764  20.751  1.00140.02    -0.296 N 
HETATM   16  H13 MIQ B 502      -5.929  28.704  21.069  1.00142.77     0.171 HD
HETATM   17  C21 MIQ B 502      -4.594  28.237  19.468  1.00142.22     0.224 C 
HETATM   18  C22 MIQ B 502      -3.207  27.632  19.370  1.00139.52     0.106 C 
HETATM   19  O24 MIQ B 502      -5.321  28.280  18.537  1.00146.13    -0.273 OA
HETATM   20  C23 MIQ B 502      -2.234  28.714  19.801  1.00139.15     0.045 C 
ENDBRANCH  10  12
BRANCH   5  21
HETATM   21  N6  MIQ B 502       2.660  27.838  26.401  1.00140.95    -0.377 N 
HETATM   22  C7  MIQ B 502       3.083  26.680  27.169  1.00142.12     0.149 C 
HETATM   23  C8  MIQ B 502       3.829  27.078  28.436  1.00144.10     0.187 C 
HETATM   24  O9  MIQ B 502       4.819  28.035  28.205  1.00148.65    -0.388 OA
HETATM   25  C10 MIQ B 502       4.902  28.685  26.971  1.00147.44     0.187 C 
HETATM   26  C11 MIQ B 502       3.620  28.905  26.175  1.00144.08     0.149 C 
ENDBRANCH   5  21
TORSDOF 2
ENDMDL
MODEL 9
REMARK VINA RESULT:      -5.9      2.379      3.838
REMARK  2 active torsions:
REMARK  status: ('A' for Active; 'I' for Inactive)
REMARK    1  A    between atoms: C5_5  and  N6_21 
REMARK    2  A    between atoms: C18_14  and  N17_19 
ROOT
HETATM    1  O1  MIQ B 502       3.284  24.230  28.756  1.00142.91    -0.171 OA
HETATM    2  C2  MIQ B 502       4.082  25.362  28.578  1.00141.17     0.195 A 
HETATM    3  C3  MIQ B 502       3.775  26.569  27.635  1.00141.71     0.035 A 
HETATM    4  C4  MIQ B 502       2.655  26.885  26.717  1.00142.86     0.046 A 
HETATM    5  C5  MIQ B 502       2.656  28.093  25.975  1.00139.53     0.031 A 
HETATM    6  C12 MIQ B 502       3.762  29.028  26.118  1.00139.38     0.030 A 
HETATM    7  C13 MIQ B 502       4.835  28.726  26.999  1.00141.18     0.019 A 
HETATM    8  C14 MIQ B 502       4.828  27.457  27.777  1.00138.77     0.033 A 
HETATM    9  C15 MIQ B 502       5.795  26.798  28.814  1.00142.10     0.195 A 
HETATM   10  N17 MIQ B 502       5.235  25.650  29.158  1.00139.42    -0.288 N 
HETATM   11  O16 MIQ B 502       7.005  27.319  29.277  1.00148.93    -0.171 OA
ENDROOT
BRANCH  10  12
HETATM   12  C18 MIQ B 502       5.869  24.752  30.104  1.00139.82     0.187 C 
HETATM   13  C19 MIQ B 502       6.092  23.409  29.397  1.00140.06     0.247 C 
HETATM   14  O25 MIQ B 502       6.629  23.393  28.347  1.00143.95    -0.271 OA
HETATM   15  N20 MIQ B 502       5.665  22.156  29.986  1.00140.02    -0.296 N 
HETATM   16  H13 MIQ B 502       5.811  21.287  29.511  1.00142.77     0.171 HD
HETATM   17  C21 MIQ B 502       5.002  22.202  31.263  1.00142.22     0.224 C 
HETATM   18  C22 MIQ B 502       4.132  23.414  31.536  1.00139.52     0.106 C 
HETATM   19  O24 MIQ B 502       5.136  21.339  32.060  1.00146.13    -0.273 OA
HETATM   20  C23 MIQ B 502       5.023  24.631  31.371  1.00139.15     0.045 C 
ENDBRANCH  10  12
BRANCH   5  21
HETATM   21  N6  MIQ B 502       1.560  28.383  25.068  1.00140.95    -0.377 N 
HETATM   22  C7  MIQ B 502       0.410  27.495  25.062  1.00142.12     0.149 C 
HETATM   23  C8  MIQ B 502      -0.307  27.502  23.718  1.00144.10     0.187 C 
HETATM   24  O9  MIQ B 502      -0.545  28.791  23.236  1.00148.65    -0.388 OA
HETATM   25  C10 MIQ B 502       0.044  29.897  23.853  1.00147.44     0.187 C 
HETATM   26  C11 MIQ B 502       1.402  29.720  24.524  1.00144.08     0.149 C 
ENDBRANCH   5  21
TORSDOF 2
ENDMDL
