MODEL 1
REMARK VINA RESULT:      -6.4      0.000      0.000
REMARK  2 active torsions:
REMARK  status: ('A' for Active; 'I' for Inactive)
REMARK    1  A    between atoms: C5_5  and  N6_21 
REMARK    2  A    between atoms: C18_14  and  N17_19 
ROOT
HETATM    1  O1  MIQ B 502      16.735   3.707   1.473  1.00142.91    -0.171 OA
HETATM    2  C2  MIQ B 502      16.704   2.498   0.774  1.00141.17     0.195 A 
HETATM    3  C3  MIQ B 502      16.090   1.154   1.282  1.00141.71     0.035 A 
HETATM    4  C4  MIQ B 502      15.408   0.755   2.536  1.00142.86     0.046 A 
HETATM    5  C5  MIQ B 502      14.948  -0.574   2.709  1.00139.53     0.031 A 
HETATM    6  C12 MIQ B 502      15.147  -1.552   1.649  1.00139.38     0.030 A 
HETATM    7  C13 MIQ B 502      15.800  -1.170   0.446  1.00141.18     0.019 A 
HETATM    8  C14 MIQ B 502      16.279   0.229   0.269  1.00138.77     0.033 A 
HETATM    9  C15 MIQ B 502      17.013   1.002  -0.875  1.00142.10     0.195 A 
HETATM   10  N17 MIQ B 502      17.169   2.240  -0.436  1.00139.42    -0.288 N 
HETATM   11  O16 MIQ B 502      17.422   0.485  -2.105  1.00148.93    -0.171 OA
ENDROOT
BRANCH  10  12
HETATM   12  C18 MIQ B 502      17.835   3.249  -1.238  1.00139.82     0.187 C 
HETATM   13  C19 MIQ B 502      17.044   3.408  -2.543  1.00140.06     0.247 C 
HETATM   14  O25 MIQ B 502      15.879   3.584  -2.492  1.00143.95    -0.271 OA
HETATM   15  N20 MIQ B 502      17.689   3.352  -3.838  1.00140.02    -0.296 N 
HETATM   16  H13 MIQ B 502      17.160   3.450  -4.683  1.00142.77     0.171 HD
HETATM   17  C21 MIQ B 502      19.111   3.125  -3.875  1.00142.22     0.224 C 
HETATM   18  C22 MIQ B 502      19.687   2.237  -2.789  1.00139.52     0.106 C 
HETATM   19  O24 MIQ B 502      19.793   3.611  -4.709  1.00146.13    -0.273 OA
HETATM   20  C23 MIQ B 502      19.298   2.869  -1.464  1.00139.15     0.045 C 
ENDBRANCH  10  12
BRANCH   5  21
HETATM   21  N6  MIQ B 502      14.294  -0.955   3.948  1.00140.95    -0.377 N 
HETATM   22  C7  MIQ B 502      13.003  -0.367   4.262  1.00142.12     0.149 C 
HETATM   23  C8  MIQ B 502      12.751  -0.318   5.763  1.00144.10     0.187 C 
HETATM   24  O9  MIQ B 502      13.025  -1.530   6.400  1.00148.65    -0.388 OA
HETATM   25  C10 MIQ B 502      13.680  -2.557   5.716  1.00147.44     0.187 C 
HETATM   26  C11 MIQ B 502      14.674  -2.185   4.621  1.00144.08     0.149 C 
ENDBRANCH   5  21
TORSDOF 2
ENDMDL
MODEL 2
REMARK VINA RESULT:      -6.3      2.987      3.500
REMARK  2 active torsions:
REMARK  status: ('A' for Active; 'I' for Inactive)
REMARK    1  A    between atoms: C5_5  and  N6_21 
REMARK    2  A    between atoms: C18_14  and  N17_19 
ROOT
HETATM    1  O1  MIQ B 502      20.207   0.315   1.193  1.00142.91    -0.171 OA
HETATM    2  C2  MIQ B 502      18.849   0.019   1.050  1.00141.17     0.195 A 
HETATM    3  C3  MIQ B 502      17.963  -0.762   2.072  1.00141.71     0.035 A 
HETATM    4  C4  MIQ B 502      18.233  -1.379   3.392  1.00142.86     0.046 A 
HETATM    5  C5  MIQ B 502      17.196  -2.035   4.103  1.00139.53     0.031 A 
HETATM    6  C12 MIQ B 502      15.859  -2.102   3.531  1.00139.38     0.030 A 
HETATM    7  C13 MIQ B 502      15.599  -1.509   2.266  1.00141.18     0.019 A 
HETATM    8  C14 MIQ B 502      16.691  -0.820   1.526  1.00138.77     0.033 A 
HETATM    9  C15 MIQ B 502      16.788  -0.071   0.157  1.00142.10     0.195 A 
HETATM   10  N17 MIQ B 502      18.044   0.331   0.049  1.00139.42    -0.288 N 
HETATM   11  O16 MIQ B 502      15.757   0.128  -0.762  1.00148.93    -0.171 OA
ENDROOT
BRANCH  10  12
HETATM   12  C18 MIQ B 502      18.510   1.056  -1.119  1.00139.82     0.187 C 
HETATM   13  C19 MIQ B 502      17.502   2.176  -1.406  1.00140.06     0.247 C 
HETATM   14  O25 MIQ B 502      17.184   2.903  -0.534  1.00143.95    -0.271 OA
HETATM   15  N20 MIQ B 502      16.931   2.370  -2.724  1.00140.02    -0.296 N 
HETATM   16  H13 MIQ B 502      16.269   3.100  -2.897  1.00142.77     0.171 HD
HETATM   17  C21 MIQ B 502      17.326   1.463  -3.770  1.00142.22     0.224 C 
HETATM   18  C22 MIQ B 502      17.618   0.033  -3.358  1.00139.52     0.106 C 
HETATM   19  O24 MIQ B 502      17.423   1.819  -4.893  1.00146.13    -0.273 OA
HETATM   20  C23 MIQ B 502      18.701   0.102  -2.296  1.00139.15     0.045 C 
ENDBRANCH  10  12
BRANCH   5  21
HETATM   21  N6  MIQ B 502      17.479  -2.648   5.388  1.00140.95    -0.377 N 
HETATM   22  C7  MIQ B 502      18.850  -3.016   5.696  1.00142.12     0.149 C 
HETATM   23  C8  MIQ B 502      18.920  -4.164   6.694  1.00144.10     0.187 C 
HETATM   24  O9  MIQ B 502      18.091  -3.974   7.801  1.00148.65    -0.388 OA
HETATM   25  C10 MIQ B 502      17.152  -2.939   7.812  1.00147.44     0.187 C 
HETATM   26  C11 MIQ B 502      16.542  -2.494   6.487  1.00144.08     0.149 C 
ENDBRANCH   5  21
TORSDOF 2
ENDMDL
MODEL 3
REMARK VINA RESULT:      -6.3      6.247      9.579
REMARK  2 active torsions:
REMARK  status: ('A' for Active; 'I' for Inactive)
REMARK    1  A    between atoms: C5_5  and  N6_21 
REMARK    2  A    between atoms: C18_14  and  N17_19 
ROOT
HETATM    1  O1  MIQ B 502      17.861  -0.662   9.367  1.00142.91    -0.171 OA
HETATM    2  C2  MIQ B 502      18.163  -1.315   8.170  1.00141.17     0.195 A 
HETATM    3  C3  MIQ B 502      17.267  -1.359   6.892  1.00141.71     0.035 A 
HETATM    4  C4  MIQ B 502      15.943  -0.785   6.555  1.00142.86     0.046 A 
HETATM    5  C5  MIQ B 502      15.371  -1.002   5.276  1.00139.53     0.031 A 
HETATM    6  C12 MIQ B 502      16.090  -1.794   4.289  1.00139.38     0.030 A 
HETATM    7  C13 MIQ B 502      17.360  -2.345   4.611  1.00141.18     0.019 A 
HETATM    8  C14 MIQ B 502      17.956  -2.111   5.954  1.00138.77     0.033 A 
HETATM    9  C15 MIQ B 502      19.289  -2.535   6.654  1.00142.10     0.195 A 
HETATM   10  N17 MIQ B 502      19.246  -2.012   7.868  1.00139.42    -0.288 N 
HETATM   11  O16 MIQ B 502      20.311  -3.310   6.105  1.00148.93    -0.171 OA
ENDROOT
BRANCH  10  12
HETATM   12  C18 MIQ B 502      20.323  -2.215   8.819  1.00139.82     0.187 C 
HETATM   13  C19 MIQ B 502      19.719  -2.838  10.084  1.00140.06     0.247 C 
HETATM   14  O25 MIQ B 502      19.033  -3.793   9.984  1.00143.95    -0.271 OA
HETATM   15  N20 MIQ B 502      19.972  -2.290  11.400  1.00140.02    -0.296 N 
HETATM   16  H13 MIQ B 502      19.566  -2.702  12.218  1.00142.77     0.171 HD
HETATM   17  C21 MIQ B 502      20.804  -1.118  11.495  1.00142.22     0.224 C 
HETATM   18  C22 MIQ B 502      20.718  -0.128  10.350  1.00139.52     0.106 C 
HETATM   19  O24 MIQ B 502      21.521  -0.942  12.418  1.00146.13    -0.273 OA
HETATM   20  C23 MIQ B 502      21.052  -0.899   9.086  1.00139.15     0.045 C 
ENDBRANCH  10  12
BRANCH   5  21
HETATM   21  N6  MIQ B 502      14.067  -0.446   4.966  1.00140.95    -0.377 N 
HETATM   22  C7  MIQ B 502      13.930   0.386   3.782  1.00142.12     0.149 C 
HETATM   23  C8  MIQ B 502      12.784   1.381   3.915  1.00144.10     0.187 C 
HETATM   24  O9  MIQ B 502      11.603   0.791   4.370  1.00148.65    -0.388 OA
HETATM   25  C10 MIQ B 502      11.607  -0.519   4.856  1.00147.44     0.187 C 
HETATM   26  C11 MIQ B 502      12.870  -1.042   5.533  1.00144.08     0.149 C 
ENDBRANCH   5  21
TORSDOF 2
ENDMDL
MODEL 4
REMARK VINA RESULT:      -6.3      2.077      8.426
REMARK  2 active torsions:
REMARK  status: ('A' for Active; 'I' for Inactive)
REMARK    1  A    between atoms: C5_5  and  N6_21 
REMARK    2  A    between atoms: C18_14  and  N17_19 
ROOT
HETATM    1  O1  MIQ B 502      15.069  -0.582   2.924  1.00142.91    -0.171 OA
HETATM    2  C2  MIQ B 502      15.119   0.814   2.897  1.00141.17     0.195 A 
HETATM    3  C3  MIQ B 502      15.658   1.695   1.725  1.00141.71     0.035 A 
HETATM    4  C4  MIQ B 502      16.231   1.381   0.395  1.00142.86     0.046 A 
HETATM    5  C5  MIQ B 502      16.640   2.425  -0.473  1.00139.53     0.031 A 
HETATM    6  C12 MIQ B 502      16.495   3.812  -0.054  1.00139.38     0.030 A 
HETATM    7  C13 MIQ B 502      15.945   4.113   1.221  1.00141.18     0.019 A 
HETATM    8  C14 MIQ B 502      15.515   3.013   2.127  1.00138.77     0.033 A 
HETATM    9  C15 MIQ B 502      14.883   2.950   3.556  1.00142.10     0.195 A 
HETATM   10  N17 MIQ B 502      14.727   1.665   3.829  1.00139.42    -0.288 N 
HETATM   11  O16 MIQ B 502      14.556   4.033   4.373  1.00148.93    -0.171 OA
ENDROOT
BRANCH  10  12
HETATM   12  C18 MIQ B 502      14.173   1.222   5.096  1.00139.82     0.187 C 
HETATM   13  C19 MIQ B 502      15.106   0.145   5.663  1.00140.06     0.247 C 
HETATM   14  O25 MIQ B 502      16.262   0.368   5.741  1.00143.95    -0.271 OA
HETATM   15  N20 MIQ B 502      14.607  -1.139   6.111  1.00140.02    -0.296 N 
HETATM   16  H13 MIQ B 502      15.228  -1.836   6.474  1.00142.77     0.171 HD
HETATM   17  C21 MIQ B 502      13.194  -1.390   5.996  1.00142.22     0.224 C 
HETATM   18  C22 MIQ B 502      12.483  -0.759   4.815  1.00139.52     0.106 C 
HETATM   19  O24 MIQ B 502      12.618  -2.053   6.787  1.00146.13    -0.273 OA
HETATM   20  C23 MIQ B 502      12.737   0.735   4.907  1.00139.15     0.045 C 
ENDBRANCH  10  12
BRANCH   5  21
HETATM   21  N6  MIQ B 502      17.213   2.103  -1.768  1.00140.95    -0.377 N 
HETATM   22  C7  MIQ B 502      17.510   0.714  -2.070  1.00142.12     0.149 C 
HETATM   23  C8  MIQ B 502      18.634   0.581  -3.090  1.00144.10     0.187 C 
HETATM   24  O9  MIQ B 502      18.460   1.409  -4.200  1.00148.65    -0.388 OA
HETATM   25  C10 MIQ B 502      17.470   2.395  -4.200  1.00147.44     0.187 C 
HETATM   26  C11 MIQ B 502      17.080   3.037  -2.872  1.00144.08     0.149 C 
ENDBRANCH   5  21
TORSDOF 2
ENDMDL
MODEL 5
REMARK VINA RESULT:      -6.3     10.756     14.352
REMARK  2 active torsions:
REMARK  status: ('A' for Active; 'I' for Inactive)
REMARK    1  A    between atoms: C5_5  and  N6_21 
REMARK    2  A    between atoms: C18_14  and  N17_19 
ROOT
HETATM    1  O1  MIQ B 502      14.982  -0.384  15.400  1.00142.91    -0.171 OA
HETATM    2  C2  MIQ B 502      14.899   0.535  14.352  1.00141.17     0.195 A 
HETATM    3  C3  MIQ B 502      15.679   0.465  13.000  1.00141.71     0.035 A 
HETATM    4  C4  MIQ B 502      16.657  -0.495  12.436  1.00142.86     0.046 A 
HETATM    5  C5  MIQ B 502      17.205  -0.285  11.146  1.00139.53     0.031 A 
HETATM    6  C12 MIQ B 502      16.803   0.880  10.371  1.00139.38     0.030 A 
HETATM    7  C13 MIQ B 502      15.865   1.800  10.910  1.00141.18     0.019 A 
HETATM    8  C14 MIQ B 502      15.291   1.574  12.265  1.00138.77     0.033 A 
HETATM    9  C15 MIQ B 502      14.264   2.335  13.165  1.00142.10     0.195 A 
HETATM   10  N17 MIQ B 502      14.160   1.629  14.278  1.00139.42    -0.288 N 
HETATM   11  O16 MIQ B 502      13.598   3.522  12.853  1.00148.93    -0.171 OA
ENDROOT
BRANCH  10  12
HETATM   12  C18 MIQ B 502      13.295   2.050  15.364  1.00139.82     0.187 C 
HETATM   13  C19 MIQ B 502      11.904   2.321  14.776  1.00140.06     0.247 C 
HETATM   14  O25 MIQ B 502      11.395   1.500  14.101  1.00143.95    -0.271 OA
HETATM   15  N20 MIQ B 502      11.195   3.558  15.033  1.00140.02    -0.296 N 
HETATM   16  H13 MIQ B 502      10.291   3.725  14.637  1.00142.77     0.171 HD
HETATM   17  C21 MIQ B 502      11.842   4.550  15.852  1.00142.22     0.224 C 
HETATM   18  C22 MIQ B 502      13.352   4.640  15.747  1.00139.52     0.106 C 
HETATM   19  O24 MIQ B 502      11.225   5.253  16.574  1.00146.13    -0.273 OA
HETATM   20  C23 MIQ B 502      13.891   3.261  16.081  1.00139.15     0.045 C 
ENDBRANCH  10  12
BRANCH   5  21
HETATM   21  N6  MIQ B 502      18.173  -1.226  10.612  1.00140.95    -0.377 N 
HETATM   22  C7  MIQ B 502      19.334  -1.560  11.419  1.00142.12     0.149 C 
HETATM   23  C8  MIQ B 502      20.519  -1.988  10.562  1.00144.10     0.187 C 
HETATM   24  O9  MIQ B 502      20.174  -2.932   9.592  1.00148.65    -0.388 OA
HETATM   25  C10 MIQ B 502      18.832  -3.227   9.337  1.00147.44     0.187 C 
HETATM   26  C11 MIQ B 502      17.792  -2.131   9.542  1.00144.08     0.149 C 
ENDBRANCH   5  21
TORSDOF 2
ENDMDL
MODEL 6
REMARK VINA RESULT:      -6.3      2.235      8.191
REMARK  2 active torsions:
REMARK  status: ('A' for Active; 'I' for Inactive)
REMARK    1  A    between atoms: C5_5  and  N6_21 
REMARK    2  A    between atoms: C18_14  and  N17_19 
ROOT
HETATM    1  O1  MIQ B 502      15.065   2.250   4.456  1.00142.91    -0.171 OA
HETATM    2  C2  MIQ B 502      15.101   0.981   3.875  1.00141.17     0.195 A 
HETATM    3  C3  MIQ B 502      15.489   0.654   2.398  1.00141.71     0.035 A 
HETATM    4  C4  MIQ B 502      15.908   1.487   1.246  1.00142.86     0.046 A 
HETATM    5  C5  MIQ B 502      16.204   0.886  -0.004  1.00139.53     0.031 A 
HETATM    6  C12 MIQ B 502      16.096  -0.558  -0.154  1.00139.38     0.030 A 
HETATM    7  C13 MIQ B 502      15.696  -1.358   0.950  1.00141.18     0.019 A 
HETATM    8  C14 MIQ B 502      15.388  -0.721   2.260  1.00138.77     0.033 A 
HETATM    9  C15 MIQ B 502      14.935  -1.250   3.660  1.00142.10     0.195 A 
HETATM   10  N17 MIQ B 502      14.825  -0.184   4.435  1.00139.42    -0.288 N 
HETATM   11  O16 MIQ B 502      14.695  -2.579   4.013  1.00148.93    -0.171 OA
ENDROOT
BRANCH  10  12
HETATM   12  C18 MIQ B 502      14.403  -0.294   5.819  1.00139.82     0.187 C 
HETATM   13  C19 MIQ B 502      13.239   0.681   6.033  1.00140.06     0.247 C 
HETATM   14  O25 MIQ B 502      12.323   0.655   5.290  1.00143.95    -0.271 OA
HETATM   15  N20 MIQ B 502      13.229   1.631   7.126  1.00140.02    -0.296 N 
HETATM   16  H13 MIQ B 502      12.465   2.266   7.250  1.00142.77     0.171 HD
HETATM   17  C21 MIQ B 502      14.363   1.650   8.013  1.00142.22     0.224 C 
HETATM   18  C22 MIQ B 502      15.713   1.331   7.400  1.00139.52     0.106 C 
HETATM   19  O24 MIQ B 502      14.244   1.897   9.163  1.00146.13    -0.273 OA
HETATM   20  C23 MIQ B 502      15.582  -0.037   6.757  1.00139.15     0.045 C 
ENDBRANCH  10  12
BRANCH   5  21
HETATM   21  N6  MIQ B 502      16.599   1.715  -1.127  1.00140.95    -0.377 N 
HETATM   22  C7  MIQ B 502      16.398   3.151  -1.035  1.00142.12     0.149 C 
HETATM   23  C8  MIQ B 502      16.230   3.791  -2.407  1.00144.10     0.187 C 
HETATM   24  O9  MIQ B 502      17.204   3.382  -3.321  1.00148.65    -0.388 OA
HETATM   25  C10 MIQ B 502      18.062   2.323  -3.013  1.00147.44     0.187 C 
HETATM   26  C11 MIQ B 502      17.552   1.212  -2.101  1.00144.08     0.149 C 
ENDBRANCH   5  21
TORSDOF 2
ENDMDL
MODEL 7
REMARK VINA RESULT:      -6.2      2.177      2.673
REMARK  2 active torsions:
REMARK  status: ('A' for Active; 'I' for Inactive)
REMARK    1  A    between atoms: C5_5  and  N6_21 
REMARK    2  A    between atoms: C18_14  and  N17_19 
ROOT
HETATM    1  O1  MIQ B 502      16.409   0.964  -0.686  1.00142.91    -0.171 OA
HETATM    2  C2  MIQ B 502      17.328   0.307   0.135  1.00141.17     0.195 A 
HETATM    3  C3  MIQ B 502      17.026  -0.344   1.522  1.00141.71     0.035 A 
HETATM    4  C4  MIQ B 502      15.797  -0.471   2.342  1.00142.86     0.046 A 
HETATM    5  C5  MIQ B 502      15.836  -1.136   3.593  1.00139.53     0.031 A 
HETATM    6  C12 MIQ B 502      17.091  -1.696   4.075  1.00139.38     0.030 A 
HETATM    7  C13 MIQ B 502      18.268  -1.575   3.289  1.00141.18     0.019 A 
HETATM    8  C14 MIQ B 502      18.221  -0.879   1.975  1.00138.77     0.033 A 
HETATM    9  C15 MIQ B 502      19.271  -0.559   0.861  1.00142.10     0.195 A 
HETATM   10  N17 MIQ B 502      18.615   0.095  -0.083  1.00139.42    -0.288 N 
HETATM   11  O16 MIQ B 502      20.625  -0.896   0.868  1.00148.93    -0.171 OA
ENDROOT
BRANCH  10  12
HETATM   12  C18 MIQ B 502      19.284   0.571  -1.279  1.00139.82     0.187 C 
HETATM   13  C19 MIQ B 502      18.968   2.064  -1.430  1.00140.06     0.247 C 
HETATM   14  O25 MIQ B 502      19.143   2.785  -0.512  1.00143.95    -0.271 OA
HETATM   15  N20 MIQ B 502      18.467   2.618  -2.671  1.00140.02    -0.296 N 
HETATM   16  H13 MIQ B 502      18.259   3.593  -2.754  1.00142.77     0.171 HD
HETATM   17  C21 MIQ B 502      18.252   1.717  -3.773  1.00142.22     0.224 C 
HETATM   18  C22 MIQ B 502      17.807   0.309  -3.426  1.00139.52     0.106 C 
HETATM   19  O24 MIQ B 502      18.421   2.058  -4.892  1.00146.13    -0.273 OA
HETATM   20  C23 MIQ B 502      18.859  -0.258  -2.491  1.00139.15     0.045 C 
ENDBRANCH  10  12
BRANCH   5  21
HETATM   21  N6  MIQ B 502      14.629  -1.240   4.392  1.00140.95    -0.377 N 
HETATM   22  C7  MIQ B 502      14.737  -1.737   5.753  1.00142.12     0.149 C 
HETATM   23  C8  MIQ B 502      13.444  -2.389   6.225  1.00144.10     0.187 C 
HETATM   24  O9  MIQ B 502      12.315  -1.610   5.962  1.00148.65    -0.388 OA
HETATM   25  C10 MIQ B 502      12.409  -0.482   5.144  1.00147.44     0.187 C 
HETATM   26  C11 MIQ B 502      13.450  -0.474   4.029  1.00144.08     0.149 C 
ENDBRANCH   5  21
TORSDOF 2
ENDMDL
MODEL 8
REMARK VINA RESULT:      -6.1      9.838     12.910
REMARK  2 active torsions:
REMARK  status: ('A' for Active; 'I' for Inactive)
REMARK    1  A    between atoms: C5_5  and  N6_21 
REMARK    2  A    between atoms: C18_14  and  N17_19 
ROOT
HETATM    1  O1  MIQ B 502      22.490   0.751  11.657  1.00142.91    -0.171 OA
HETATM    2  C2  MIQ B 502      21.095   0.696  11.681  1.00141.17     0.195 A 
HETATM    3  C3  MIQ B 502      20.189  -0.147  10.728  1.00141.71     0.035 A 
HETATM    4  C4  MIQ B 502      20.473  -1.072   9.605  1.00142.86     0.046 A 
HETATM    5  C5  MIQ B 502      19.411  -1.706   8.913  1.00139.53     0.031 A 
HETATM    6  C12 MIQ B 502      18.034  -1.448   9.309  1.00139.38     0.030 A 
HETATM    7  C13 MIQ B 502      17.761  -0.563  10.386  1.00141.18     0.019 A 
HETATM    8  C14 MIQ B 502      18.880   0.099  11.111  1.00138.77     0.033 A 
HETATM    9  C15 MIQ B 502      18.975   1.100  12.309  1.00142.10     0.195 A 
HETATM   10  N17 MIQ B 502      20.265   1.324  12.496  1.00139.42    -0.288 N 
HETATM   11  O16 MIQ B 502      17.910   1.645  13.028  1.00148.93    -0.171 OA
ENDROOT
BRANCH  10  12
HETATM   12  C18 MIQ B 502      20.734   2.228  13.529  1.00139.82     0.187 C 
HETATM   13  C19 MIQ B 502      21.696   3.227  12.875  1.00140.06     0.247 C 
HETATM   14  O25 MIQ B 502      21.354   3.806  11.906  1.00143.95    -0.271 OA
HETATM   15  N20 MIQ B 502      23.014   3.486  13.418  1.00140.02    -0.296 N 
HETATM   16  H13 MIQ B 502      23.635   4.136  12.977  1.00142.77     0.171 HD
HETATM   17  C21 MIQ B 502      23.413   2.760  14.596  1.00142.22     0.224 C 
HETATM   18  C22 MIQ B 502      22.884   1.345  14.736  1.00139.52     0.106 C 
HETATM   19  O24 MIQ B 502      24.113   3.246  15.414  1.00146.13    -0.273 OA
HETATM   20  C23 MIQ B 502      21.371   1.443  14.675  1.00139.15     0.045 C 
ENDBRANCH  10  12
BRANCH   5  21
HETATM   21  N6  MIQ B 502      19.704  -2.598   7.806  1.00140.95    -0.377 N 
HETATM   22  C7  MIQ B 502      21.061  -3.092   7.652  1.00142.12     0.149 C 
HETATM   23  C8  MIQ B 502      21.379  -3.439   6.203  1.00144.10     0.187 C 
HETATM   24  O9  MIQ B 502      20.389  -4.217   5.600  1.00148.65    -0.388 OA
HETATM   25  C10 MIQ B 502      19.162  -4.419   6.238  1.00147.44     0.187 C 
HETATM   26  C11 MIQ B 502      18.627  -3.323   7.154  1.00144.08     0.149 C 
ENDBRANCH   5  21
TORSDOF 2
ENDMDL
MODEL 9
REMARK VINA RESULT:      -6.0      1.725      8.340
REMARK  2 active torsions:
REMARK  status: ('A' for Active; 'I' for Inactive)
REMARK    1  A    between atoms: C5_5  and  N6_21 
REMARK    2  A    between atoms: C18_14  and  N17_19 
ROOT
HETATM    1  O1  MIQ B 502      15.452   3.218   3.079  1.00142.91    -0.171 OA
HETATM    2  C2  MIQ B 502      15.535   1.943   2.516  1.00141.17     0.195 A 
HETATM    3  C3  MIQ B 502      16.041   1.601   1.078  1.00141.71     0.035 A 
HETATM    4  C4  MIQ B 502      16.549   2.423  -0.046  1.00142.86     0.046 A 
HETATM    5  C5  MIQ B 502      16.944   1.810  -1.262  1.00139.53     0.031 A 
HETATM    6  C12 MIQ B 502      16.850   0.364  -1.405  1.00139.38     0.030 A 
HETATM    7  C13 MIQ B 502      16.364  -0.425  -0.328  1.00141.18     0.019 A 
HETATM    8  C14 MIQ B 502      15.953   0.225   0.947  1.00138.77     0.033 A 
HETATM    9  C15 MIQ B 502      15.391  -0.291   2.312  1.00142.10     0.195 A 
HETATM   10  N17 MIQ B 502      15.218   0.783   3.065  1.00139.42    -0.288 N 
HETATM   11  O16 MIQ B 502      15.125  -1.617   2.659  1.00148.93    -0.171 OA
ENDROOT
BRANCH  10  12
HETATM   12  C18 MIQ B 502      14.687   0.686   4.412  1.00139.82     0.187 C 
HETATM   13  C19 MIQ B 502      15.453  -0.428   5.137  1.00140.06     0.247 C 
HETATM   14  O25 MIQ B 502      16.633  -0.415   5.128  1.00143.95    -0.271 OA
HETATM   15  N20 MIQ B 502      14.768  -1.493   5.839  1.00140.02    -0.296 N 
HETATM   16  H13 MIQ B 502      15.280  -2.218   6.303  1.00142.77     0.171 HD
HETATM   17  C21 MIQ B 502      13.328  -1.493   5.827  1.00142.22     0.224 C 
HETATM   18  C22 MIQ B 502      12.658  -0.961   4.575  1.00139.52     0.106 C 
HETATM   19  O24 MIQ B 502      12.702  -1.883   6.751  1.00146.13    -0.273 OA
HETATM   20  C23 MIQ B 502      13.178   0.450   4.373  1.00139.15     0.045 C 
ENDBRANCH  10  12
BRANCH   5  21
HETATM   21  N6  MIQ B 502      17.426   2.629  -2.359  1.00140.95    -0.377 N 
HETATM   22  C7  MIQ B 502      18.486   2.105  -3.203  1.00142.12     0.149 C 
HETATM   23  C8  MIQ B 502      19.307   3.218  -3.841  1.00144.10     0.187 C 
HETATM   24  O9  MIQ B 502      18.518   4.212  -4.422  1.00148.65    -0.388 OA
HETATM   25  C10 MIQ B 502      17.139   4.241  -4.199  1.00147.44     0.187 C 
HETATM   26  C11 MIQ B 502      16.602   3.709  -2.874  1.00144.08     0.149 C 
ENDBRANCH   5  21
TORSDOF 2
ENDMDL
