MODEL 1
REMARK VINA RESULT:      -6.9      0.000      0.000
REMARK  2 active torsions:
REMARK  status: ('A' for Active; 'I' for Inactive)
REMARK    1  A    between atoms: C5_5  and  N6_21 
REMARK    2  A    between atoms: C18_14  and  N17_19 
ROOT
HETATM    1  O1  MIQ B 502       8.611  11.597  -2.203  1.00142.91    -0.171 OA
HETATM    2  C2  MIQ B 502       9.788  12.085  -1.631  1.00141.17     0.195 A 
HETATM    3  C3  MIQ B 502      10.932  11.227  -1.001  1.00141.71     0.035 A 
HETATM    4  C4  MIQ B 502      11.131   9.770  -0.821  1.00142.86     0.046 A 
HETATM    5  C5  MIQ B 502      12.305   9.279  -0.196  1.00139.53     0.031 A 
HETATM    6  C12 MIQ B 502      13.320  10.213   0.270  1.00139.38     0.030 A 
HETATM    7  C13 MIQ B 502      13.130  11.610   0.096  1.00141.18     0.019 A 
HETATM    8  C14 MIQ B 502      11.896  12.120  -0.562  1.00138.77     0.033 A 
HETATM    9  C15 MIQ B 502      11.349  13.539  -0.923  1.00142.10     0.195 A 
HETATM   10  N17 MIQ B 502      10.180  13.342  -1.509  1.00139.42    -0.288 N 
HETATM   11  O16 MIQ B 502      11.972  14.763  -0.673  1.00148.93    -0.171 OA
ENDROOT
BRANCH  10  12
HETATM   12  C18 MIQ B 502       9.367  14.452  -1.970  1.00139.82     0.187 C 
HETATM   13  C19 MIQ B 502       7.966  14.288  -1.367  1.00140.06     0.247 C 
HETATM   14  O25 MIQ B 502       7.856  14.114  -0.206  1.00143.95    -0.271 OA
HETATM   15  N20 MIQ B 502       6.771  14.346  -2.184  1.00140.02    -0.296 N 
HETATM   16  H13 MIQ B 502       5.863  14.231  -1.779  1.00142.77     0.171 HD
HETATM   17  C21 MIQ B 502       6.932  14.549  -3.601  1.00142.22     0.224 C 
HETATM   18  C22 MIQ B 502       8.165  13.941  -4.240  1.00139.52     0.106 C 
HETATM   19  O24 MIQ B 502       6.143  15.164  -4.230  1.00146.13    -0.273 OA
HETATM   20  C23 MIQ B 502       9.361  14.508  -3.497  1.00139.15     0.045 C 
ENDBRANCH  10  12
BRANCH   5  21
HETATM   21  N6  MIQ B 502      12.480   7.849  -0.012  1.00140.95    -0.377 N 
HETATM   22  C7  MIQ B 502      11.986   6.951  -1.042  1.00142.12     0.149 C 
HETATM   23  C8  MIQ B 502      11.643   5.577  -0.481  1.00144.10     0.187 C 
HETATM   24  O9  MIQ B 502      12.651   5.056   0.333  1.00148.65    -0.388 OA
HETATM   25  C10 MIQ B 502      13.721   5.858   0.736  1.00147.44     0.187 C 
HETATM   26  C11 MIQ B 502      13.486   7.354   0.911  1.00144.08     0.149 C 
ENDBRANCH   5  21
TORSDOF 2
ENDMDL
MODEL 2
REMARK VINA RESULT:      -6.4      3.351      8.189
REMARK  2 active torsions:
REMARK  status: ('A' for Active; 'I' for Inactive)
REMARK    1  A    between atoms: C5_5  and  N6_21 
REMARK    2  A    between atoms: C18_14  and  N17_19 
ROOT
HETATM    1  O1  MIQ B 502      10.929  15.113   0.806  1.00142.91    -0.171 OA
HETATM    2  C2  MIQ B 502      10.667  13.988   0.021  1.00141.17     0.195 A 
HETATM    3  C3  MIQ B 502       9.475  13.814  -0.974  1.00141.71     0.035 A 
HETATM    4  C4  MIQ B 502       8.349  14.689  -1.377  1.00142.86     0.046 A 
HETATM    5  C5  MIQ B 502       7.401  14.242  -2.332  1.00139.53     0.031 A 
HETATM    6  C12 MIQ B 502       7.535  12.916  -2.918  1.00139.38     0.030 A 
HETATM    7  C13 MIQ B 502       8.616  12.077  -2.532  1.00141.18     0.019 A 
HETATM    8  C14 MIQ B 502       9.610  12.553  -1.531  1.00138.77     0.033 A 
HETATM    9  C15 MIQ B 502      10.892  11.941  -0.879  1.00142.10     0.195 A 
HETATM   10  N17 MIQ B 502      11.355  12.862  -0.050  1.00139.42    -0.288 N 
HETATM   11  O16 MIQ B 502      11.433  10.677  -1.124  1.00148.93    -0.171 OA
ENDROOT
BRANCH  10  12
HETATM   12  C18 MIQ B 502      12.543  12.631   0.750  1.00139.82     0.187 C 
HETATM   13  C19 MIQ B 502      12.179  12.897   2.216  1.00140.06     0.247 C 
HETATM   14  O25 MIQ B 502      11.228  12.372   2.677  1.00143.95    -0.271 OA
HETATM   15  N20 MIQ B 502      12.973  13.772   3.054  1.00140.02    -0.296 N 
HETATM   16  H13 MIQ B 502      12.720  13.942   4.008  1.00142.77     0.171 HD
HETATM   17  C21 MIQ B 502      14.123  14.409   2.465  1.00142.22     0.224 C 
HETATM   18  C22 MIQ B 502      14.019  14.780   0.999  1.00139.52     0.106 C 
HETATM   19  O24 MIQ B 502      15.099  14.626   3.095  1.00146.13    -0.273 OA
HETATM   20  C23 MIQ B 502      13.698  13.499   0.251  1.00139.15     0.045 C 
ENDBRANCH  10  12
BRANCH   5  21
HETATM   21  N6  MIQ B 502       6.294  15.103  -2.707  1.00140.95    -0.377 N 
HETATM   22  C7  MIQ B 502       6.283  16.472  -2.220  1.00142.12     0.149 C 
HETATM   23  C8  MIQ B 502       4.869  17.029  -2.119  1.00144.10     0.187 C 
HETATM   24  O9  MIQ B 502       4.111  16.798  -3.268  1.00148.65    -0.388 OA
HETATM   25  C10 MIQ B 502       4.581  15.941  -4.266  1.00147.44     0.187 C 
HETATM   26  C11 MIQ B 502       5.479  14.775  -3.863  1.00144.08     0.149 C 
ENDBRANCH   5  21
TORSDOF 2
ENDMDL
MODEL 3
REMARK VINA RESULT:      -6.3      1.769      2.186
REMARK  2 active torsions:
REMARK  status: ('A' for Active; 'I' for Inactive)
REMARK    1  A    between atoms: C5_5  and  N6_21 
REMARK    2  A    between atoms: C18_14  and  N17_19 
ROOT
HETATM    1  O1  MIQ B 502       8.831  11.103  -2.475  1.00142.91    -0.171 OA
HETATM    2  C2  MIQ B 502       9.804  11.588  -1.598  1.00141.17     0.195 A 
HETATM    3  C3  MIQ B 502      10.898  10.741  -0.873  1.00141.71     0.035 A 
HETATM    4  C4  MIQ B 502      11.236   9.298  -0.875  1.00142.86     0.046 A 
HETATM    5  C5  MIQ B 502      12.316   8.814  -0.094  1.00139.53     0.031 A 
HETATM    6  C12 MIQ B 502      13.096   9.741   0.713  1.00139.38     0.030 A 
HETATM    7  C13 MIQ B 502      12.773  11.125   0.715  1.00141.18     0.019 A 
HETATM    8  C14 MIQ B 502      11.639  11.627  -0.109  1.00138.77     0.033 A 
HETATM    9  C15 MIQ B 502      11.003  13.033  -0.362  1.00142.10     0.195 A 
HETATM   10  N17 MIQ B 502      10.005  12.835  -1.207  1.00139.42    -0.288 N 
HETATM   11  O16 MIQ B 502      11.408  14.246   0.197  1.00148.93    -0.171 OA
ENDROOT
BRANCH  10  12
HETATM   12  C18 MIQ B 502       9.167  13.930  -1.660  1.00139.82     0.187 C 
HETATM   13  C19 MIQ B 502      10.090  15.044  -2.171  1.00140.06     0.247 C 
HETATM   14  O25 MIQ B 502      10.931  14.780  -2.954  1.00143.95    -0.271 OA
HETATM   15  N20 MIQ B 502       9.953  16.415  -1.723  1.00140.02    -0.296 N 
HETATM   16  H13 MIQ B 502      10.566  17.131  -2.059  1.00142.77     0.171 HD
HETATM   17  C21 MIQ B 502       8.925  16.710  -0.759  1.00142.22     0.224 C 
HETATM   18  C22 MIQ B 502       8.611  15.627   0.256  1.00139.52     0.106 C 
HETATM   19  O24 MIQ B 502       8.351  17.743  -0.763  1.00146.13    -0.273 OA
HETATM   20  C23 MIQ B 502       8.237  14.388  -0.537  1.00139.15     0.045 C 
ENDBRANCH  10  12
BRANCH   5  21
HETATM   21  N6  MIQ B 502      12.627   7.396  -0.093  1.00140.95    -0.377 N 
HETATM   22  C7  MIQ B 502      12.072   6.563  -1.146  1.00142.12     0.149 C 
HETATM   23  C8  MIQ B 502      11.918   5.114  -0.703  1.00144.10     0.187 C 
HETATM   24  O9  MIQ B 502      13.063   4.610  -0.085  1.00148.65    -0.388 OA
HETATM   25  C10 MIQ B 502      14.111   5.464   0.268  1.00147.44     0.187 C 
HETATM   26  C11 MIQ B 502      13.783   6.907   0.637  1.00144.08     0.149 C 
ENDBRANCH   5  21
TORSDOF 2
ENDMDL
MODEL 4
REMARK VINA RESULT:      -6.3      2.680      8.367
REMARK  2 active torsions:
REMARK  status: ('A' for Active; 'I' for Inactive)
REMARK    1  A    between atoms: C5_5  and  N6_21 
REMARK    2  A    between atoms: C18_14  and  N17_19 
ROOT
HETATM    1  O1  MIQ B 502      10.478  15.161   1.018  1.00142.91    -0.171 OA
HETATM    2  C2  MIQ B 502      10.316  14.097   0.128  1.00141.17     0.195 A 
HETATM    3  C3  MIQ B 502       9.223  13.981  -0.981  1.00141.71     0.035 A 
HETATM    4  C4  MIQ B 502       8.115  14.864  -1.417  1.00142.86     0.046 A 
HETATM    5  C5  MIQ B 502       7.266  14.476  -2.485  1.00139.53     0.031 A 
HETATM    6  C12 MIQ B 502       7.487  13.204  -3.157  1.00139.38     0.030 A 
HETATM    7  C13 MIQ B 502       8.549  12.358  -2.741  1.00141.18     0.019 A 
HETATM    8  C14 MIQ B 502       9.438  12.771  -1.620  1.00138.77     0.033 A 
HETATM    9  C15 MIQ B 502      10.673  12.133  -0.904  1.00142.10     0.195 A 
HETATM   10  N17 MIQ B 502      11.037  12.993   0.033  1.00139.42    -0.288 N 
HETATM   11  O16 MIQ B 502      11.265  10.903  -1.196  1.00148.93    -0.171 OA
ENDROOT
BRANCH  10  12
HETATM   12  C18 MIQ B 502      12.154  12.721   0.917  1.00139.82     0.187 C 
HETATM   13  C19 MIQ B 502      13.362  12.354   0.047  1.00140.06     0.247 C 
HETATM   14  O25 MIQ B 502      13.668  13.065  -0.844  1.00143.95    -0.271 OA
HETATM   15  N20 MIQ B 502      14.143  11.159   0.290  1.00140.02    -0.296 N 
HETATM   16  H13 MIQ B 502      14.925  10.926  -0.290  1.00142.77     0.171 HD
HETATM   17  C21 MIQ B 502      13.744  10.301   1.376  1.00142.22     0.224 C 
HETATM   18  C22 MIQ B 502      12.257  10.213   1.663  1.00139.52     0.106 C 
HETATM   19  O24 MIQ B 502      14.538   9.701   2.013  1.00146.13    -0.273 OA
HETATM   20  C23 MIQ B 502      11.784  11.632   1.923  1.00139.15     0.045 C 
ENDBRANCH  10  12
BRANCH   5  21
HETATM   21  N6  MIQ B 502       6.176  15.344  -2.891  1.00140.95    -0.377 N 
HETATM   22  C7  MIQ B 502       5.204  14.839  -3.845  1.00142.12     0.149 C 
HETATM   23  C8  MIQ B 502       4.555  15.961  -4.644  1.00144.10     0.187 C 
HETATM   24  O9  MIQ B 502       4.111  17.014  -3.841  1.00148.65    -0.388 OA
HETATM   25  C10 MIQ B 502       4.468  17.073  -2.492  1.00147.44     0.187 C 
HETATM   26  C11 MIQ B 502       5.806  16.479  -2.064  1.00144.08     0.149 C 
ENDBRANCH   5  21
TORSDOF 2
ENDMDL
MODEL 5
REMARK VINA RESULT:      -6.2      1.531      1.924
REMARK  2 active torsions:
REMARK  status: ('A' for Active; 'I' for Inactive)
REMARK    1  A    between atoms: C5_5  and  N6_21 
REMARK    2  A    between atoms: C18_14  and  N17_19 
ROOT
HETATM    1  O1  MIQ B 502       8.257  12.390  -1.731  1.00142.91    -0.171 OA
HETATM    2  C2  MIQ B 502       9.489  13.043  -1.804  1.00141.17     0.195 A 
HETATM    3  C3  MIQ B 502      10.847  12.517  -1.238  1.00141.71     0.035 A 
HETATM    4  C4  MIQ B 502      11.241  11.284  -0.517  1.00142.86     0.046 A 
HETATM    5  C5  MIQ B 502      12.588  11.084  -0.123  1.00139.53     0.031 A 
HETATM    6  C12 MIQ B 502      13.589  12.096  -0.429  1.00139.38     0.030 A 
HETATM    7  C13 MIQ B 502      13.211  13.278  -1.122  1.00141.18     0.019 A 
HETATM    8  C14 MIQ B 502      11.796  13.482  -1.535  1.00138.77     0.033 A 
HETATM    9  C15 MIQ B 502      11.024  14.612  -2.291  1.00142.10     0.195 A 
HETATM   10  N17 MIQ B 502       9.764  14.212  -2.357  1.00139.42    -0.288 N 
HETATM   11  O16 MIQ B 502      11.559  15.801  -2.789  1.00148.93    -0.171 OA
ENDROOT
BRANCH  10  12
HETATM   12  C18 MIQ B 502       8.743  15.029  -2.985  1.00139.82     0.187 C 
HETATM   13  C19 MIQ B 502       7.600  15.206  -1.978  1.00140.06     0.247 C 
HETATM   14  O25 MIQ B 502       7.848  15.575  -0.885  1.00143.95    -0.271 OA
HETATM   15  N20 MIQ B 502       6.221  14.938  -2.331  1.00140.02    -0.296 N 
HETATM   16  H13 MIQ B 502       5.485  15.052  -1.662  1.00142.77     0.171 HD
HETATM   17  C21 MIQ B 502       5.945  14.479  -3.668  1.00142.22     0.224 C 
HETATM   18  C22 MIQ B 502       6.997  13.602  -4.318  1.00139.52     0.106 C 
HETATM   19  O24 MIQ B 502       4.949  14.777  -4.230  1.00146.13    -0.273 OA
HETATM   20  C23 MIQ B 502       8.291  14.396  -4.301  1.00139.15     0.045 C 
ENDBRANCH  10  12
BRANCH   5  21
HETATM   21  N6  MIQ B 502      12.957   9.878   0.596  1.00140.95    -0.377 N 
HETATM   22  C7  MIQ B 502      13.805   8.904  -0.070  1.00142.12     0.149 C 
HETATM   23  C8  MIQ B 502      13.589   7.497   0.472  1.00144.10     0.187 C 
HETATM   24  O9  MIQ B 502      13.601   7.444   1.868  1.00148.65    -0.388 OA
HETATM   25  C10 MIQ B 502      13.581   8.621   2.621  1.00147.44     0.187 C 
HETATM   26  C11 MIQ B 502      12.871   9.843   2.046  1.00144.08     0.149 C 
ENDBRANCH   5  21
TORSDOF 2
ENDMDL
MODEL 6
REMARK VINA RESULT:      -5.9      2.036      3.063
REMARK  2 active torsions:
REMARK  status: ('A' for Active; 'I' for Inactive)
REMARK    1  A    between atoms: C5_5  and  N6_21 
REMARK    2  A    between atoms: C18_14  and  N17_19 
ROOT
HETATM    1  O1  MIQ B 502      12.068  14.889  -1.696  1.00142.91    -0.171 OA
HETATM    2  C2  MIQ B 502      11.326  13.711  -1.583  1.00141.17     0.195 A 
HETATM    3  C3  MIQ B 502      11.847  12.340  -1.046  1.00141.71     0.035 A 
HETATM    4  C4  MIQ B 502      13.158  11.880  -0.530  1.00142.86     0.046 A 
HETATM    5  C5  MIQ B 502      13.330  10.539  -0.103  1.00139.53     0.031 A 
HETATM    6  C12 MIQ B 502      12.211   9.610  -0.172  1.00139.38     0.030 A 
HETATM    7  C13 MIQ B 502      10.954  10.051  -0.666  1.00141.18     0.019 A 
HETATM    8  C14 MIQ B 502      10.779  11.460  -1.111  1.00138.77     0.033 A 
HETATM    9  C15 MIQ B 502       9.587  12.290  -1.690  1.00142.10     0.195 A 
HETATM   10  N17 MIQ B 502      10.056  13.510  -1.893  1.00139.42    -0.288 N 
HETATM   11  O16 MIQ B 502       8.293  11.831  -1.943  1.00148.93    -0.171 OA
ENDROOT
BRANCH  10  12
HETATM   12  C18 MIQ B 502       9.222  14.560  -2.447  1.00139.82     0.187 C 
HETATM   13  C19 MIQ B 502       7.928  14.611  -1.626  1.00140.06     0.247 C 
HETATM   14  O25 MIQ B 502       7.994  14.676  -0.450  1.00143.95    -0.271 OA
HETATM   15  N20 MIQ B 502       6.623  14.588  -2.254  1.00140.02    -0.296 N 
HETATM   16  H13 MIQ B 502       5.785  14.616  -1.706  1.00142.77     0.171 HD
HETATM   17  C21 MIQ B 502       6.567  14.499  -3.691  1.00142.22     0.224 C 
HETATM   18  C22 MIQ B 502       7.663  13.696  -4.366  1.00139.52     0.106 C 
HETATM   19  O24 MIQ B 502       5.712  15.030  -4.310  1.00146.13    -0.273 OA
HETATM   20  C23 MIQ B 502       8.980  14.317  -3.936  1.00139.15     0.045 C 
ENDBRANCH  10  12
BRANCH   5  21
HETATM   21  N6  MIQ B 502      14.623  10.098   0.386  1.00140.95    -0.377 N 
HETATM   22  C7  MIQ B 502      14.729   9.654   1.765  1.00142.12     0.149 C 
HETATM   23  C8  MIQ B 502      16.137   9.843   2.317  1.00144.10     0.187 C 
HETATM   24  O9  MIQ B 502      17.126   9.363   1.458  1.00148.65    -0.388 OA
HETATM   25  C10 MIQ B 502      16.806   8.981   0.152  1.00147.44     0.187 C 
HETATM   26  C11 MIQ B 502      15.653   9.689  -0.552  1.00144.08     0.149 C 
ENDBRANCH   5  21
TORSDOF 2
ENDMDL
MODEL 7
REMARK VINA RESULT:      -5.9      3.149      4.236
REMARK  2 active torsions:
REMARK  status: ('A' for Active; 'I' for Inactive)
REMARK    1  A    between atoms: C5_5  and  N6_21 
REMARK    2  A    between atoms: C18_14  and  N17_19 
ROOT
HETATM    1  O1  MIQ B 502      11.219  11.337  -0.131  1.00142.91    -0.171 OA
HETATM    2  C2  MIQ B 502      12.420  10.941   0.461  1.00141.17     0.195 A 
HETATM    3  C3  MIQ B 502      13.028   9.502   0.439  1.00141.71     0.035 A 
HETATM    4  C4  MIQ B 502      12.586   8.217  -0.153  1.00142.86     0.046 A 
HETATM    5  C5  MIQ B 502      13.374   7.049  -0.001  1.00139.53     0.031 A 
HETATM    6  C12 MIQ B 502      14.625   7.112   0.741  1.00139.38     0.030 A 
HETATM    7  C13 MIQ B 502      15.050   8.344   1.308  1.00141.18     0.019 A 
HETATM    8  C14 MIQ B 502      14.220   9.568   1.143  1.00138.77     0.033 A 
HETATM    9  C15 MIQ B 502      14.352  11.057   1.603  1.00142.10     0.195 A 
HETATM   10  N17 MIQ B 502      13.280  11.678   1.143  1.00139.42    -0.288 N 
HETATM   11  O16 MIQ B 502      15.393  11.611   2.351  1.00148.93    -0.171 OA
ENDROOT
BRANCH  10  12
HETATM   12  C18 MIQ B 502      13.055  13.090   1.395  1.00139.82     0.187 C 
HETATM   13  C19 MIQ B 502      11.676  13.234   2.049  1.00140.06     0.247 C 
HETATM   14  O25 MIQ B 502      11.411  12.571   2.988  1.00143.95    -0.271 OA
HETATM   15  N20 MIQ B 502      10.687  14.168   1.549  1.00140.02    -0.296 N 
HETATM   16  H13 MIQ B 502       9.788  14.248   1.980  1.00142.77     0.171 HD
HETATM   17  C21 MIQ B 502      11.030  14.958   0.394  1.00142.22     0.224 C 
HETATM   18  C22 MIQ B 502      11.933  14.306  -0.634  1.00139.52     0.106 C 
HETATM   19  O24 MIQ B 502      10.630  16.062   0.261  1.00146.13    -0.273 OA
HETATM   20  C23 MIQ B 502      13.194  13.890   0.101  1.00139.15     0.045 C 
ENDBRANCH  10  12
BRANCH   5  21
HETATM   21  N6  MIQ B 502      12.921   5.794  -0.574  1.00140.95    -0.377 N 
HETATM   22  C7  MIQ B 502      13.760   4.618  -0.420  1.00142.12     0.149 C 
HETATM   23  C8  MIQ B 502      13.537   3.610  -1.541  1.00144.10     0.187 C 
HETATM   24  O9  MIQ B 502      12.185   3.353  -1.779  1.00148.65    -0.388 OA
HETATM   25  C10 MIQ B 502      11.199   4.142  -1.183  1.00147.44     0.187 C 
HETATM   26  C11 MIQ B 502      11.515   5.604  -0.885  1.00144.08     0.149 C 
ENDBRANCH   5  21
TORSDOF 2
ENDMDL
MODEL 8
REMARK VINA RESULT:      -5.9      3.063      5.716
REMARK  2 active torsions:
REMARK  status: ('A' for Active; 'I' for Inactive)
REMARK    1  A    between atoms: C5_5  and  N6_21 
REMARK    2  A    between atoms: C18_14  and  N17_19 
ROOT
HETATM    1  O1  MIQ B 502       7.593  17.275  -0.997  1.00142.91    -0.171 OA
HETATM    2  C2  MIQ B 502       7.287  16.168  -1.792  1.00141.17     0.195 A 
HETATM    3  C3  MIQ B 502       8.054  14.807  -1.814  1.00141.71     0.035 A 
HETATM    4  C4  MIQ B 502       9.231  14.290  -1.078  1.00142.86     0.046 A 
HETATM    5  C5  MIQ B 502       9.707  12.976  -1.319  1.00139.53     0.031 A 
HETATM    6  C12 MIQ B 502       9.033  12.132  -2.295  1.00139.38     0.030 A 
HETATM    7  C13 MIQ B 502       7.903  12.627  -3.000  1.00141.18     0.019 A 
HETATM    8  C14 MIQ B 502       7.407  14.007  -2.741  1.00138.77     0.033 A 
HETATM    9  C15 MIQ B 502       6.232  14.875  -3.297  1.00142.10     0.195 A 
HETATM   10  N17 MIQ B 502       6.306  16.036  -2.668  1.00139.42    -0.288 N 
HETATM   11  O16 MIQ B 502       5.298  14.497  -4.264  1.00148.93    -0.171 OA
ENDROOT
BRANCH  10  12
HETATM   12  C18 MIQ B 502       5.370  17.109  -2.947  1.00139.82     0.187 C 
HETATM   13  C19 MIQ B 502       6.184  18.363  -3.291  1.00140.06     0.247 C 
HETATM   14  O25 MIQ B 502       7.031  18.293  -4.109  1.00143.95    -0.271 OA
HETATM   15  N20 MIQ B 502       5.940  19.634  -2.642  1.00140.02    -0.296 N 
HETATM   16  H13 MIQ B 502       6.483  20.443  -2.870  1.00142.77     0.171 HD
HETATM   17  C21 MIQ B 502       4.908  19.692  -1.638  1.00142.22     0.224 C 
HETATM   18  C22 MIQ B 502       4.708  18.447  -0.795  1.00139.52     0.106 C 
HETATM   19  O24 MIQ B 502       4.249  20.661  -1.484  1.00146.13    -0.273 OA
HETATM   20  C23 MIQ B 502       4.426  17.312  -1.763  1.00139.15     0.045 C 
ENDBRANCH  10  12
BRANCH   5  21
HETATM   21  N6  MIQ B 502      10.870  12.487  -0.602  1.00140.95    -0.377 N 
HETATM   22  C7  MIQ B 502      11.310  13.207   0.580  1.00142.12     0.149 C 
HETATM   23  C8  MIQ B 502      12.801  13.024   0.836  1.00144.10     0.187 C 
HETATM   24  O9  MIQ B 502      13.204  11.689   0.765  1.00148.65    -0.388 OA
HETATM   25  C10 MIQ B 502      12.334  10.712   0.277  1.00147.44     0.187 C 
HETATM   26  C11 MIQ B 502      11.303  11.111  -0.774  1.00144.08     0.149 C 
ENDBRANCH   5  21
TORSDOF 2
ENDMDL
MODEL 9
REMARK VINA RESULT:      -5.8      2.344      8.281
REMARK  2 active torsions:
REMARK  status: ('A' for Active; 'I' for Inactive)
REMARK    1  A    between atoms: C5_5  and  N6_21 
REMARK    2  A    between atoms: C18_14  and  N17_19 
ROOT
HETATM    1  O1  MIQ B 502      12.902   7.990  -0.389  1.00142.91    -0.171 OA
HETATM    2  C2  MIQ B 502      13.111   9.130   0.391  1.00141.17     0.195 A 
HETATM    3  C3  MIQ B 502      12.402  10.510   0.214  1.00141.71     0.035 A 
HETATM    4  C4  MIQ B 502      11.380  11.017  -0.732  1.00142.86     0.046 A 
HETATM    5  C5  MIQ B 502      10.918  12.354  -0.640  1.00139.53     0.031 A 
HETATM    6  C12 MIQ B 502      11.451  13.233   0.391  1.00139.38     0.030 A 
HETATM    7  C13 MIQ B 502      12.430  12.747   1.299  1.00141.18     0.019 A 
HETATM    8  C14 MIQ B 502      12.909  11.342   1.199  1.00138.77     0.033 A 
HETATM    9  C15 MIQ B 502      13.939  10.473   1.992  1.00142.10     0.195 A 
HETATM   10  N17 MIQ B 502      13.927   9.280   1.420  1.00139.42    -0.288 N 
HETATM   11  O16 MIQ B 502      14.713  10.879   3.080  1.00148.93    -0.171 OA
ENDROOT
BRANCH  10  12
HETATM   12  C18 MIQ B 502      14.783   8.206   1.889  1.00139.82     0.187 C 
HETATM   13  C19 MIQ B 502      15.589   7.693   0.689  1.00140.06     0.247 C 
HETATM   14  O25 MIQ B 502      16.178   8.464   0.018  1.00143.95    -0.271 OA
HETATM   15  N20 MIQ B 502      15.654   6.284   0.359  1.00140.02    -0.296 N 
HETATM   16  H13 MIQ B 502      16.178   5.962  -0.430  1.00142.77     0.171 HD
HETATM   17  C21 MIQ B 502      14.918   5.363   1.187  1.00142.22     0.224 C 
HETATM   18  C22 MIQ B 502      13.613   5.866   1.773  1.00139.52     0.106 C 
HETATM   19  O24 MIQ B 502      15.317   4.271   1.402  1.00146.13    -0.273 OA
HETATM   20  C23 MIQ B 502      13.950   7.118   2.563  1.00139.15     0.045 C 
ENDBRANCH  10  12
BRANCH   5  21
HETATM   21  N6  MIQ B 502       9.927  12.842  -1.582  1.00140.95    -0.377 N 
HETATM   22  C7  MIQ B 502       8.839  11.959  -1.966  1.00142.12     0.149 C 
HETATM   23  C8  MIQ B 502       8.294  12.295  -3.348  1.00144.10     0.187 C 
HETATM   24  O9  MIQ B 502       8.044  13.658  -3.516  1.00148.65    -0.388 OA
HETATM   25  C10 MIQ B 502       8.490  14.582  -2.568  1.00147.44     0.187 C 
HETATM   26  C11 MIQ B 502       9.763  14.270  -1.788  1.00144.08     0.149 C 
ENDBRANCH   5  21
TORSDOF 2
ENDMDL
