MODEL 1
REMARK VINA RESULT:      -6.5      0.000      0.000
REMARK  2 active torsions:
REMARK  status: ('A' for Active; 'I' for Inactive)
REMARK    1  A    between atoms: C5_5  and  N6_21 
REMARK    2  A    between atoms: C18_14  and  N17_19 
ROOT
HETATM    1  O1  MIQ B 502       4.602  21.150  -5.349  1.00142.91    -0.171 OA
HETATM    2  C2  MIQ B 502       4.758  20.413  -4.173  1.00141.17     0.195 A 
HETATM    3  C3  MIQ B 502       6.073  20.271  -3.342  1.00141.71     0.035 A 
HETATM    4  C4  MIQ B 502       7.443  20.813  -3.503  1.00142.86     0.046 A 
HETATM    5  C5  MIQ B 502       8.453  20.500  -2.558  1.00139.53     0.031 A 
HETATM    6  C12 MIQ B 502       8.141  19.642  -1.424  1.00139.38     0.030 A 
HETATM    7  C13 MIQ B 502       6.827  19.123  -1.269  1.00141.18     0.019 A 
HETATM    8  C14 MIQ B 502       5.770  19.457  -2.263  1.00138.77     0.033 A 
HETATM    9  C15 MIQ B 502       4.258  19.093  -2.424  1.00142.10     0.195 A 
HETATM   10  N17 MIQ B 502       3.851  19.702  -3.526  1.00139.42    -0.288 N 
HETATM   11  O16 MIQ B 502       3.498  18.285  -1.577  1.00148.93    -0.171 OA
ENDROOT
BRANCH  10  12
HETATM   12  C18 MIQ B 502       2.487  19.574  -4.002  1.00139.82     0.187 C 
HETATM   13  C19 MIQ B 502       2.542  19.076  -5.451  1.00140.06     0.247 C 
HETATM   14  O25 MIQ B 502       3.189  18.124  -5.708  1.00143.95    -0.271 OA
HETATM   15  N20 MIQ B 502       1.815  19.738  -6.515  1.00140.02    -0.296 N 
HETATM   16  H13 MIQ B 502       1.865  19.407  -7.458  1.00142.77     0.171 HD
HETATM   17  C21 MIQ B 502       1.040  20.905  -6.178  1.00142.22     0.224 C 
HETATM   18  C22 MIQ B 502       1.585  21.788  -5.072  1.00139.52     0.106 C 
HETATM   19  O24 MIQ B 502       0.028  21.156  -6.733  1.00146.13    -0.273 OA
HETATM   20  C23 MIQ B 502       1.744  20.901  -3.850  1.00139.15     0.045 C 
ENDBRANCH  10  12
BRANCH   5  21
HETATM   21  N6  MIQ B 502       9.795  21.025  -2.735  1.00140.95    -0.377 N 
HETATM   22  C7  MIQ B 502      10.819  20.653  -1.775  1.00142.12     0.149 C 
HETATM   23  C8  MIQ B 502      11.916  21.705  -1.677  1.00144.10     0.187 C 
HETATM   24  O9  MIQ B 502      12.389  22.116  -2.925  1.00148.65    -0.388 OA
HETATM   25  C10 MIQ B 502      11.722  21.739  -4.093  1.00147.44     0.187 C 
HETATM   26  C11 MIQ B 502      10.213  21.522  -4.035  1.00144.08     0.149 C 
ENDBRANCH   5  21
TORSDOF 2
ENDMDL
MODEL 2
REMARK VINA RESULT:      -6.5     29.186     30.921
REMARK  2 active torsions:
REMARK  status: ('A' for Active; 'I' for Inactive)
REMARK    1  A    between atoms: C5_5  and  N6_21 
REMARK    2  A    between atoms: C18_14  and  N17_19 
ROOT
HETATM    1  O1  MIQ B 502      18.786  -2.010 -21.666  1.00142.91    -0.171 OA
HETATM    2  C2  MIQ B 502      17.694  -2.026 -20.795  1.00141.17     0.195 A 
HETATM    3  C3  MIQ B 502      16.205  -2.290 -21.187  1.00141.71     0.035 A 
HETATM    4  C4  MIQ B 502      15.527  -2.583 -22.472  1.00142.86     0.046 A 
HETATM    5  C5  MIQ B 502      14.124  -2.783 -22.512  1.00139.53     0.031 A 
HETATM    6  C12 MIQ B 502      13.347  -2.699 -21.284  1.00139.38     0.030 A 
HETATM    7  C13 MIQ B 502      13.997  -2.419 -20.052  1.00141.18     0.019 A 
HETATM    8  C14 MIQ B 502      15.471  -2.213 -20.015  1.00138.77     0.033 A 
HETATM    9  C15 MIQ B 502      16.509  -1.900 -18.889  1.00142.10     0.195 A 
HETATM   10  N17 MIQ B 502      17.687  -1.831 -19.487  1.00139.42    -0.288 N 
HETATM   11  O16 MIQ B 502      16.241  -1.726 -17.530  1.00148.93    -0.171 OA
ENDROOT
BRANCH  10  12
HETATM   12  C18 MIQ B 502      18.898  -1.537 -18.744  1.00139.82     0.187 C 
HETATM   13  C19 MIQ B 502      18.906  -2.423 -17.493  1.00140.06     0.247 C 
HETATM   14  O25 MIQ B 502      18.731  -3.584 -17.608  1.00143.95    -0.271 OA
HETATM   15  N20 MIQ B 502      19.127  -1.876 -16.170  1.00140.02    -0.296 N 
HETATM   16  H13 MIQ B 502      19.123  -2.464 -15.360  1.00142.77     0.171 HD
HETATM   17  C21 MIQ B 502      19.327  -0.454 -16.054  1.00142.22     0.224 C 
HETATM   18  C22 MIQ B 502      18.576   0.422 -17.037  1.00139.52     0.106 C 
HETATM   19  O24 MIQ B 502      20.047   0.003 -15.235  1.00146.13    -0.273 OA
HETATM   20  C23 MIQ B 502      18.976  -0.045 -18.424  1.00139.15     0.045 C 
ENDBRANCH  10  12
BRANCH   5  21
HETATM   21  N6  MIQ B 502      13.470  -3.055 -23.779  1.00140.95    -0.377 N 
HETATM   22  C7  MIQ B 502      12.551  -2.064 -24.314  1.00142.12     0.149 C 
HETATM   23  C8  MIQ B 502      11.502  -2.693 -25.221  1.00144.10     0.187 C 
HETATM   24  O9  MIQ B 502      12.050  -3.567 -26.162  1.00148.65    -0.388 OA
HETATM   25  C10 MIQ B 502      13.389  -3.956 -26.070  1.00147.44     0.187 C 
HETATM   26  C11 MIQ B 502      14.032  -4.037 -24.690  1.00144.08     0.149 C 
ENDBRANCH   5  21
TORSDOF 2
ENDMDL
MODEL 3
REMARK VINA RESULT:      -6.3     28.914     30.612
REMARK  2 active torsions:
REMARK  status: ('A' for Active; 'I' for Inactive)
REMARK    1  A    between atoms: C5_5  and  N6_21 
REMARK    2  A    between atoms: C18_14  and  N17_19 
ROOT
HETATM    1  O1  MIQ B 502      18.929  -1.522 -19.855  1.00142.91    -0.171 OA
HETATM    2  C2  MIQ B 502      17.664  -1.686 -19.288  1.00141.17     0.195 A 
HETATM    3  C3  MIQ B 502      16.333  -1.949 -20.062  1.00141.71     0.035 A 
HETATM    4  C4  MIQ B 502      16.003  -2.099 -21.499  1.00142.86     0.046 A 
HETATM    5  C5  MIQ B 502      14.667  -2.339 -21.907  1.00139.53     0.031 A 
HETATM    6  C12 MIQ B 502      13.613  -2.439 -20.907  1.00139.38     0.030 A 
HETATM    7  C13 MIQ B 502      13.929  -2.296 -19.529  1.00141.18     0.019 A 
HETATM    8  C14 MIQ B 502      15.335  -2.047 -19.107  1.00138.77     0.033 A 
HETATM    9  C15 MIQ B 502      16.050  -1.844 -17.731  1.00142.10     0.195 A 
HETATM   10  N17 MIQ B 502      17.330  -1.660 -18.009  1.00139.42    -0.288 N 
HETATM   11  O16 MIQ B 502      15.453  -1.854 -16.469  1.00148.93    -0.171 OA
ENDROOT
BRANCH  10  12
HETATM   12  C18 MIQ B 502      18.306  -1.422 -16.961  1.00139.82     0.187 C 
HETATM   13  C19 MIQ B 502      19.105  -0.170 -17.343  1.00140.06     0.247 C 
HETATM   14  O25 MIQ B 502      18.527   0.815 -17.638  1.00143.95    -0.271 OA
HETATM   15  N20 MIQ B 502      20.554  -0.161 -17.345  1.00140.02    -0.296 N 
HETATM   16  H13 MIQ B 502      21.064   0.661 -17.602  1.00142.77     0.171 HD
HETATM   17  C21 MIQ B 502      21.237  -1.378 -16.990  1.00142.22     0.224 C 
HETATM   18  C22 MIQ B 502      20.564  -2.677 -17.388  1.00139.52     0.106 C 
HETATM   19  O24 MIQ B 502      22.268  -1.362 -16.414  1.00146.13    -0.273 OA
HETATM   20  C23 MIQ B 502      19.182  -2.657 -16.760  1.00139.15     0.045 C 
ENDBRANCH  10  12
BRANCH   5  21
HETATM   21  N6  MIQ B 502      14.356  -2.470 -23.319  1.00140.95    -0.377 N 
HETATM   22  C7  MIQ B 502      15.232  -3.275 -24.151  1.00142.12     0.149 C 
HETATM   23  C8  MIQ B 502      15.202  -2.828 -25.607  1.00144.10     0.187 C 
HETATM   24  O9  MIQ B 502      13.905  -2.657 -26.096  1.00148.65    -0.388 OA
HETATM   25  C10 MIQ B 502      12.812  -2.680 -25.227  1.00147.44     0.187 C 
HETATM   26  C11 MIQ B 502      13.010  -2.197 -23.793  1.00144.08     0.149 C 
ENDBRANCH   5  21
TORSDOF 2
ENDMDL
MODEL 4
REMARK VINA RESULT:      -6.2      1.249      2.313
REMARK  2 active torsions:
REMARK  status: ('A' for Active; 'I' for Inactive)
REMARK    1  A    between atoms: C5_5  and  N6_21 
REMARK    2  A    between atoms: C18_14  and  N17_19 
ROOT
HETATM    1  O1  MIQ B 502       4.656  19.282  -1.972  1.00142.91    -0.171 OA
HETATM    2  C2  MIQ B 502       4.953  20.004  -3.130  1.00141.17     0.195 A 
HETATM    3  C3  MIQ B 502       6.372  20.470  -3.588  1.00141.71     0.035 A 
HETATM    4  C4  MIQ B 502       7.729  20.315  -3.014  1.00142.86     0.046 A 
HETATM    5  C5  MIQ B 502       8.856  20.862  -3.680  1.00139.53     0.031 A 
HETATM    6  C12 MIQ B 502       8.676  21.577  -4.935  1.00139.38     0.030 A 
HETATM    7  C13 MIQ B 502       7.374  21.724  -5.486  1.00141.18     0.019 A 
HETATM    8  C14 MIQ B 502       6.196  21.147  -4.784  1.00138.77     0.033 A 
HETATM    9  C15 MIQ B 502       4.660  21.101  -5.070  1.00142.10     0.195 A 
HETATM   10  N17 MIQ B 502       4.121  20.433  -4.063  1.00139.42    -0.288 N 
HETATM   11  O16 MIQ B 502       3.996  21.657  -6.165  1.00148.93    -0.171 OA
ENDROOT
BRANCH  10  12
HETATM   12  C18 MIQ B 502       2.690  20.206  -3.985  1.00139.82     0.187 C 
HETATM   13  C19 MIQ B 502       2.234  19.627  -5.330  1.00140.06     0.247 C 
HETATM   14  O25 MIQ B 502       2.803  18.696  -5.779  1.00143.95    -0.271 OA
HETATM   15  N20 MIQ B 502       1.117  20.187  -6.063  1.00140.02    -0.296 N 
HETATM   16  H13 MIQ B 502       0.834  19.804  -6.944  1.00142.77     0.171 HD
HETATM   17  C21 MIQ B 502       0.445  21.329  -5.500  1.00142.22     0.224 C 
HETATM   18  C22 MIQ B 502       1.299  22.303  -4.712  1.00139.52     0.106 C 
HETATM   19  O24 MIQ B 502      -0.717  21.494  -5.641  1.00146.13    -0.273 OA
HETATM   20  C23 MIQ B 502       1.966  21.498  -3.610  1.00139.15     0.045 C 
ENDBRANCH  10  12
BRANCH   5  21
HETATM   21  N6  MIQ B 502      10.178  20.716  -3.099  1.00140.95    -0.377 N 
HETATM   22  C7  MIQ B 502      10.329  20.888  -1.664  1.00142.12     0.149 C 
HETATM   23  C8  MIQ B 502      11.733  21.346  -1.291  1.00144.10     0.187 C 
HETATM   24  O9  MIQ B 502      12.732  20.593  -1.910  1.00148.65    -0.388 OA
HETATM   25  C10 MIQ B 502      12.411  19.691  -2.928  1.00147.44     0.187 C 
HETATM   26  C11 MIQ B 502      11.212  19.996  -3.821  1.00144.08     0.149 C 
ENDBRANCH   5  21
TORSDOF 2
ENDMDL
MODEL 5
REMARK VINA RESULT:      -6.1     13.594     16.714
REMARK  2 active torsions:
REMARK  status: ('A' for Active; 'I' for Inactive)
REMARK    1  A    between atoms: C5_5  and  N6_21 
REMARK    2  A    between atoms: C18_14  and  N17_19 
ROOT
HETATM    1  O1  MIQ B 502       2.932  15.814 -16.243  1.00142.91    -0.171 OA
HETATM    2  C2  MIQ B 502       2.125  16.453 -17.187  1.00141.17     0.195 A 
HETATM    3  C3  MIQ B 502       2.324  16.431 -18.736  1.00141.71     0.035 A 
HETATM    4  C4  MIQ B 502       3.322  15.792 -19.626  1.00142.86     0.046 A 
HETATM    5  C5  MIQ B 502       3.238  15.957 -21.032  1.00139.53     0.031 A 
HETATM    6  C12 MIQ B 502       2.164  16.758 -21.603  1.00139.38     0.030 A 
HETATM    7  C13 MIQ B 502       1.206  17.369 -20.749  1.00141.18     0.019 A 
HETATM    8  C14 MIQ B 502       1.298  17.190 -19.275  1.00138.77     0.033 A 
HETATM    9  C15 MIQ B 502       0.458  17.686 -18.053  1.00142.10     0.195 A 
HETATM   10  N17 MIQ B 502       1.047  17.189 -16.978  1.00139.42    -0.288 N 
HETATM   11  O16 MIQ B 502      -0.681  18.493 -18.094  1.00148.93    -0.171 OA
ENDROOT
BRANCH  10  12
HETATM   12  C18 MIQ B 502       0.543  17.459 -15.645  1.00139.82     0.187 C 
HETATM   13  C19 MIQ B 502      -0.953  17.122 -15.633  1.00140.06     0.247 C 
HETATM   14  O25 MIQ B 502      -1.310  16.071 -16.034  1.00143.95    -0.271 OA
HETATM   15  N20 MIQ B 502      -1.943  18.056 -15.136  1.00140.02    -0.296 N 
HETATM   16  H13 MIQ B 502      -2.917  17.826 -15.140  1.00142.77     0.171 HD
HETATM   17  C21 MIQ B 502      -1.483  19.336 -14.662  1.00142.22     0.224 C 
HETATM   18  C22 MIQ B 502      -0.277  19.930 -15.363  1.00139.52     0.106 C 
HETATM   19  O24 MIQ B 502      -2.019  19.891 -13.766  1.00146.13    -0.273 OA
HETATM   20  C23 MIQ B 502       0.837  18.905 -15.248  1.00139.15     0.045 C 
ENDBRANCH  10  12
BRANCH   5  21
HETATM   21  N6  MIQ B 502       4.232  15.339 -21.891  1.00140.95    -0.377 N 
HETATM   22  C7  MIQ B 502       3.836  14.200 -22.702  1.00142.12     0.149 C 
HETATM   23  C8  MIQ B 502       5.017  13.290 -23.018  1.00144.10     0.187 C 
HETATM   24  O9  MIQ B 502       6.134  13.990 -23.477  1.00148.65    -0.388 OA
HETATM   25  C10 MIQ B 502       6.175  15.385 -23.403  1.00147.44     0.187 C 
HETATM   26  C11 MIQ B 502       5.422  16.078 -22.272  1.00144.08     0.149 C 
ENDBRANCH   5  21
TORSDOF 2
ENDMDL
MODEL 6
REMARK VINA RESULT:      -6.0      1.926      7.959
REMARK  2 active torsions:
REMARK  status: ('A' for Active; 'I' for Inactive)
REMARK    1  A    between atoms: C5_5  and  N6_21 
REMARK    2  A    between atoms: C18_14  and  N17_19 
ROOT
HETATM    1  O1  MIQ B 502       7.033  21.275  -5.539  1.00142.91    -0.171 OA
HETATM    2  C2  MIQ B 502       6.171  20.829  -4.535  1.00141.17     0.195 A 
HETATM    3  C3  MIQ B 502       4.627  20.637  -4.663  1.00141.71     0.035 A 
HETATM    4  C4  MIQ B 502       3.664  20.837  -5.772  1.00142.86     0.046 A 
HETATM    5  C5  MIQ B 502       2.285  20.568  -5.581  1.00139.53     0.031 A 
HETATM    6  C12 MIQ B 502       1.814  20.092  -4.288  1.00139.38     0.030 A 
HETATM    7  C13 MIQ B 502       2.737  19.900  -3.225  1.00141.18     0.019 A 
HETATM    8  C14 MIQ B 502       4.184  20.181  -3.432  1.00138.77     0.033 A 
HETATM    9  C15 MIQ B 502       5.461  20.090  -2.535  1.00142.10     0.195 A 
HETATM   10  N17 MIQ B 502       6.470  20.479  -3.295  1.00139.42    -0.288 N 
HETATM   11  O16 MIQ B 502       5.517  19.681  -1.201  1.00148.93    -0.171 OA
ENDROOT
BRANCH  10  12
HETATM   12  C18 MIQ B 502       7.827  20.537  -2.783  1.00139.82     0.187 C 
HETATM   13  C19 MIQ B 502       8.380  21.936  -3.081  1.00140.06     0.247 C 
HETATM   14  O25 MIQ B 502       7.750  22.883  -2.768  1.00143.95    -0.271 OA
HETATM   15  N20 MIQ B 502       9.660  22.129  -3.732  1.00140.02    -0.296 N 
HETATM   16  H13 MIQ B 502      10.007  23.047  -3.927  1.00142.77     0.171 HD
HETATM   17  C21 MIQ B 502      10.405  20.957  -4.113  1.00142.22     0.224 C 
HETATM   18  C22 MIQ B 502       9.599  19.745  -4.540  1.00139.52     0.106 C 
HETATM   19  O24 MIQ B 502      11.587  20.941  -4.088  1.00146.13    -0.273 OA
HETATM   20  C23 MIQ B 502       8.671  19.416  -3.385  1.00139.15     0.045 C 
ENDBRANCH  10  12
BRANCH   5  21
HETATM   21  N6  MIQ B 502       1.351  20.782  -6.671  1.00140.95    -0.377 N 
HETATM   22  C7  MIQ B 502       0.160  21.575  -6.420  1.00142.12     0.149 C 
HETATM   23  C8  MIQ B 502      -0.982  21.200  -7.356  1.00144.10     0.187 C 
HETATM   24  O9  MIQ B 502      -0.585  21.126  -8.693  1.00148.65    -0.388 OA
HETATM   25  C10 MIQ B 502       0.769  21.169  -9.033  1.00147.44     0.187 C 
HETATM   26  C11 MIQ B 502       1.787  20.609  -8.046  1.00144.08     0.149 C 
ENDBRANCH   5  21
TORSDOF 2
ENDMDL
MODEL 7
REMARK VINA RESULT:      -5.9     18.403     20.132
REMARK  2 active torsions:
REMARK  status: ('A' for Active; 'I' for Inactive)
REMARK    1  A    between atoms: C5_5  and  N6_21 
REMARK    2  A    between atoms: C18_14  and  N17_19 
ROOT
HETATM    1  O1  MIQ B 502      14.575   3.238  -4.962  1.00142.91    -0.171 OA
HETATM    2  C2  MIQ B 502      15.543   2.923  -4.006  1.00141.17     0.195 A 
HETATM    3  C3  MIQ B 502      15.819   3.703  -2.681  1.00141.71     0.035 A 
HETATM    4  C4  MIQ B 502      15.211   4.904  -2.060  1.00142.86     0.046 A 
HETATM    5  C5  MIQ B 502      15.688   5.386  -0.815  1.00139.53     0.031 A 
HETATM    6  C12 MIQ B 502      16.781   4.697  -0.144  1.00139.38     0.030 A 
HETATM    7  C13 MIQ B 502      17.364   3.545  -0.739  1.00141.18     0.019 A 
HETATM    8  C14 MIQ B 502      16.857   3.042  -2.045  1.00138.77     0.033 A 
HETATM    9  C15 MIQ B 502      17.227   1.845  -2.980  1.00142.10     0.195 A 
HETATM   10  N17 MIQ B 502      16.407   1.923  -4.015  1.00139.42    -0.288 N 
HETATM   11  O16 MIQ B 502      18.224   0.892  -2.763  1.00148.93    -0.171 OA
ENDROOT
BRANCH  10  12
HETATM   12  C18 MIQ B 502      16.473   0.970  -5.107  1.00139.82     0.187 C 
HETATM   13  C19 MIQ B 502      16.582   1.763  -6.415  1.00140.06     0.247 C 
HETATM   14  O25 MIQ B 502      17.406   2.602  -6.512  1.00143.95    -0.271 OA
HETATM   15  N20 MIQ B 502      15.705   1.508  -7.539  1.00140.02    -0.296 N 
HETATM   16  H13 MIQ B 502      15.782   2.038  -8.384  1.00142.77     0.171 HD
HETATM   17  C21 MIQ B 502      14.701   0.486  -7.392  1.00142.22     0.224 C 
HETATM   18  C22 MIQ B 502      14.105   0.310  -6.009  1.00139.52     0.106 C 
HETATM   19  O24 MIQ B 502      14.364  -0.185  -8.305  1.00146.13    -0.273 OA
HETATM   20  C23 MIQ B 502      15.265   0.034  -5.071  1.00139.15     0.045 C 
ENDBRANCH  10  12
BRANCH   5  21
HETATM   21  N6  MIQ B 502      15.094   6.571  -0.225  1.00140.95    -0.377 N 
HETATM   22  C7  MIQ B 502      14.098   7.302  -0.989  1.00142.12     0.149 C 
HETATM   23  C8  MIQ B 502      14.046   8.773  -0.596  1.00144.10     0.187 C 
HETATM   24  O9  MIQ B 502      13.996   8.964   0.786  1.00148.65    -0.388 OA
HETATM   25  C10 MIQ B 502      14.213   7.893   1.657  1.00147.44     0.187 C 
HETATM   26  C11 MIQ B 502      15.142   6.769   1.213  1.00144.08     0.149 C 
ENDBRANCH   5  21
TORSDOF 2
ENDMDL
MODEL 8
REMARK VINA RESULT:      -5.8      4.892      8.537
REMARK  2 active torsions:
REMARK  status: ('A' for Active; 'I' for Inactive)
REMARK    1  A    between atoms: C5_5  and  N6_21 
REMARK    2  A    between atoms: C18_14  and  N17_19 
ROOT
HETATM    1  O1  MIQ B 502      11.087  22.254  -4.088  1.00142.91    -0.171 OA
HETATM    2  C2  MIQ B 502      12.090  22.382  -3.124  1.00141.17     0.195 A 
HETATM    3  C3  MIQ B 502      13.338  23.318  -3.210  1.00141.71     0.035 A 
HETATM    4  C4  MIQ B 502      13.821  24.280  -4.228  1.00142.86     0.046 A 
HETATM    5  C5  MIQ B 502      15.022  25.004  -4.016  1.00139.53     0.031 A 
HETATM    6  C12 MIQ B 502      15.782  24.801  -2.792  1.00139.38     0.030 A 
HETATM    7  C13 MIQ B 502      15.318  23.879  -1.815  1.00141.18     0.019 A 
HETATM    8  C14 MIQ B 502      14.056  23.123  -2.041  1.00138.77     0.033 A 
HETATM    9  C15 MIQ B 502      13.249  22.061  -1.225  1.00142.10     0.195 A 
HETATM   10  N17 MIQ B 502      12.193  21.760  -1.962  1.00139.42    -0.288 N 
HETATM   11  O16 MIQ B 502      13.583  21.538   0.025  1.00148.93    -0.171 OA
ENDROOT
BRANCH  10  12
HETATM   12  C18 MIQ B 502      11.216  20.782  -1.521  1.00139.82     0.187 C 
HETATM   13  C19 MIQ B 502      11.055  19.745  -2.639  1.00140.06     0.247 C 
HETATM   14  O25 MIQ B 502      12.016  19.233  -3.093  1.00143.95    -0.271 OA
HETATM   15  N20 MIQ B 502       9.753  19.370  -3.151  1.00140.02    -0.296 N 
HETATM   16  H13 MIQ B 502       9.661  18.696  -3.886  1.00142.77     0.171 HD
HETATM   17  C21 MIQ B 502       8.595  20.016  -2.589  1.00142.22     0.224 C 
HETATM   18  C22 MIQ B 502       8.765  21.457  -2.150  1.00139.52     0.106 C 
HETATM   19  O24 MIQ B 502       7.566  19.446  -2.471  1.00146.13    -0.273 OA
HETATM   20  C23 MIQ B 502       9.905  21.471  -1.147  1.00139.15     0.045 C 
ENDBRANCH  10  12
BRANCH   5  21
HETATM   21  N6  MIQ B 502      15.492  25.933  -5.028  1.00140.95    -0.377 N 
HETATM   22  C7  MIQ B 502      16.788  26.563  -4.845  1.00142.12     0.149 C 
HETATM   23  C8  MIQ B 502      16.871  27.909  -5.555  1.00144.10     0.187 C 
HETATM   24  O9  MIQ B 502      16.414  27.856  -6.873  1.00148.65    -0.388 OA
HETATM   25  C10 MIQ B 502      15.749  26.723  -7.347  1.00147.44     0.187 C 
HETATM   26  C11 MIQ B 502      14.924  25.897  -6.365  1.00144.08     0.149 C 
ENDBRANCH   5  21
TORSDOF 2
ENDMDL
MODEL 9
REMARK VINA RESULT:      -5.8      2.371      7.971
REMARK  2 active torsions:
REMARK  status: ('A' for Active; 'I' for Inactive)
REMARK    1  A    between atoms: C5_5  and  N6_21 
REMARK    2  A    between atoms: C18_14  and  N17_19 
ROOT
HETATM    1  O1  MIQ B 502       6.595  22.845  -6.163  1.00142.91    -0.171 OA
HETATM    2  C2  MIQ B 502       6.229  21.953  -5.152  1.00141.17     0.195 A 
HETATM    3  C3  MIQ B 502       4.775  21.665  -4.659  1.00141.71     0.035 A 
HETATM    4  C4  MIQ B 502       3.443  22.181  -5.055  1.00142.86     0.046 A 
HETATM    5  C5  MIQ B 502       2.272  21.715  -4.406  1.00139.53     0.031 A 
HETATM    6  C12 MIQ B 502       2.379  20.724  -3.345  1.00139.38     0.030 A 
HETATM    7  C13 MIQ B 502       3.656  20.229  -2.966  1.00141.18     0.019 A 
HETATM    8  C14 MIQ B 502       4.882  20.720  -3.652  1.00138.77     0.033 A 
HETATM    9  C15 MIQ B 502       6.410  20.418  -3.520  1.00142.10     0.195 A 
HETATM   10  N17 MIQ B 502       7.011  21.179  -4.420  1.00139.42    -0.288 N 
HETATM   11  O16 MIQ B 502       7.013  19.529  -2.630  1.00148.93    -0.171 OA
ENDROOT
BRANCH  10  12
HETATM   12  C18 MIQ B 502       8.454  21.174  -4.574  1.00139.82     0.187 C 
HETATM   13  C19 MIQ B 502       8.882  19.743  -4.923  1.00140.06     0.247 C 
HETATM   14  O25 MIQ B 502       8.343  19.181  -5.809  1.00143.95    -0.271 OA
HETATM   15  N20 MIQ B 502       9.936  19.063  -4.199  1.00140.02    -0.296 N 
HETATM   16  H13 MIQ B 502      10.202  18.127  -4.432  1.00142.77     0.171 HD
HETATM   17  C21 MIQ B 502      10.573  19.767  -3.115  1.00142.22     0.224 C 
HETATM   18  C22 MIQ B 502       9.703  20.720  -2.318  1.00139.52     0.106 C 
HETATM   19  O24 MIQ B 502      11.717  19.612  -2.865  1.00146.13    -0.273 OA
HETATM   20  C23 MIQ B 502       9.126  21.711  -3.311  1.00139.15     0.045 C 
ENDBRANCH  10  12
BRANCH   5  21
HETATM   21  N6  MIQ B 502       0.976  22.240  -4.795  1.00140.95    -0.377 N 
HETATM   22  C7  MIQ B 502       0.735  23.667  -4.661  1.00142.12     0.149 C 
HETATM   23  C8  MIQ B 502      -0.743  23.979  -4.470  1.00144.10     0.187 C 
HETATM   24  O9  MIQ B 502      -1.561  23.320  -5.390  1.00148.65    -0.388 OA
HETATM   25  C10 MIQ B 502      -1.038  22.318  -6.211  1.00147.44     0.187 C 
HETATM   26  C11 MIQ B 502       0.121  21.477  -5.688  1.00144.08     0.149 C 
ENDBRANCH   5  21
TORSDOF 2
ENDMDL
