MODEL 1
REMARK VINA RESULT:      -7.9      0.000      0.000
REMARK  2 active torsions:
REMARK  status: ('A' for Active; 'I' for Inactive)
REMARK    1  A    between atoms: C5_5  and  N6_21 
REMARK    2  A    between atoms: C18_14  and  N17_19 
ROOT
HETATM    1  O1  MIQ B 502      -2.399   8.950 -16.837  1.00142.91    -0.171 OA
HETATM    2  C2  MIQ B 502      -2.927  10.063 -16.179  1.00141.17     0.195 A 
HETATM    3  C3  MIQ B 502      -2.648  11.560 -16.531  1.00141.71     0.035 A 
HETATM    4  C4  MIQ B 502      -1.824  12.227 -17.567  1.00142.86     0.046 A 
HETATM    5  C5  MIQ B 502      -1.771  13.642 -17.638  1.00139.53     0.031 A 
HETATM    6  C12 MIQ B 502      -2.529  14.442 -16.688  1.00139.38     0.030 A 
HETATM    7  C13 MIQ B 502      -3.320  13.803 -15.696  1.00141.18     0.019 A 
HETATM    8  C14 MIQ B 502      -3.374  12.317 -15.627  1.00138.77     0.033 A 
HETATM    9  C15 MIQ B 502      -4.109  11.286 -14.709  1.00142.10     0.195 A 
HETATM   10  N17 MIQ B 502      -3.756  10.089 -15.150  1.00139.42    -0.288 N 
HETATM   11  O16 MIQ B 502      -4.960  11.575 -13.642  1.00148.93    -0.171 OA
ENDROOT
BRANCH  10  12
HETATM   12  C18 MIQ B 502      -4.241   8.876 -14.519  1.00139.82     0.187 C 
HETATM   13  C19 MIQ B 502      -3.025   8.006 -14.181  1.00140.06     0.247 C 
HETATM   14  O25 MIQ B 502      -2.123   8.481 -13.587  1.00143.95    -0.271 OA
HETATM   15  N20 MIQ B 502      -2.952   6.611 -14.567  1.00140.02    -0.296 N 
HETATM   16  H13 MIQ B 502      -2.150   6.056 -14.346  1.00142.77     0.171 HD
HETATM   17  C21 MIQ B 502      -4.061   6.057 -15.301  1.00142.22     0.224 C 
HETATM   18  C22 MIQ B 502      -4.783   6.990 -16.252  1.00139.52     0.106 C 
HETATM   19  O24 MIQ B 502      -4.392   4.930 -15.162  1.00146.13    -0.273 OA
HETATM   20  C23 MIQ B 502      -5.251   8.173 -15.424  1.00139.15     0.045 C 
ENDBRANCH  10  12
BRANCH   5  21
HETATM   21  N6  MIQ B 502      -0.948  14.281 -18.649  1.00140.95    -0.377 N 
HETATM   22  C7  MIQ B 502      -1.605  14.926 -19.773  1.00142.12     0.149 C 
HETATM   23  C8  MIQ B 502      -0.712  14.967 -21.007  1.00144.10     0.187 C 
HETATM   24  O9  MIQ B 502       0.578  15.421 -20.729  1.00148.65    -0.388 OA
HETATM   25  C10 MIQ B 502       1.004  15.578 -19.407  1.00147.44     0.187 C 
HETATM   26  C11 MIQ B 502       0.419  14.660 -18.339  1.00144.08     0.149 C 
ENDBRANCH   5  21
TORSDOF 2
ENDMDL
MODEL 2
REMARK VINA RESULT:      -7.4      1.096      1.217
REMARK  2 active torsions:
REMARK  status: ('A' for Active; 'I' for Inactive)
REMARK    1  A    between atoms: C5_5  and  N6_21 
REMARK    2  A    between atoms: C18_14  and  N17_19 
ROOT
HETATM    1  O1  MIQ B 502      -2.016   9.200 -16.278  1.00142.91    -0.171 OA
HETATM    2  C2  MIQ B 502      -2.981  10.127 -15.877  1.00141.17     0.195 A 
HETATM    3  C3  MIQ B 502      -2.956  11.664 -16.155  1.00141.71     0.035 A 
HETATM    4  C4  MIQ B 502      -2.006  12.556 -16.862  1.00142.86     0.046 A 
HETATM    5  C5  MIQ B 502      -2.262  13.947 -16.953  1.00139.53     0.031 A 
HETATM    6  C12 MIQ B 502      -3.465  14.501 -16.349  1.00139.38     0.030 A 
HETATM    7  C13 MIQ B 502      -4.376  13.646 -15.672  1.00141.18     0.019 A 
HETATM    8  C14 MIQ B 502      -4.103  12.186 -15.582  1.00138.77     0.033 A 
HETATM    9  C15 MIQ B 502      -4.846  10.966 -14.945  1.00142.10     0.195 A 
HETATM   10  N17 MIQ B 502      -4.095   9.907 -15.200  1.00139.42    -0.288 N 
HETATM   11  O16 MIQ B 502      -6.055  10.995 -14.247  1.00148.93    -0.171 OA
ENDROOT
BRANCH  10  12
HETATM   12  C18 MIQ B 502      -4.471   8.584 -14.740  1.00139.82     0.187 C 
HETATM   13  C19 MIQ B 502      -3.261   7.979 -14.017  1.00140.06     0.247 C 
HETATM   14  O25 MIQ B 502      -2.723   8.603 -13.173  1.00143.95    -0.271 OA
HETATM   15  N20 MIQ B 502      -2.761   6.658 -14.339  1.00140.02    -0.296 N 
HETATM   16  H13 MIQ B 502      -1.966   6.277 -13.865  1.00142.77     0.171 HD
HETATM   17  C21 MIQ B 502      -3.428   5.920 -15.381  1.00142.22     0.224 C 
HETATM   18  C22 MIQ B 502      -4.003   6.729 -16.528  1.00139.52     0.106 C 
HETATM   19  O24 MIQ B 502      -3.525   4.743 -15.339  1.00146.13    -0.273 OA
HETATM   20  C23 MIQ B 502      -4.960   7.732 -15.910  1.00139.15     0.045 C 
ENDBRANCH  10  12
BRANCH   5  21
HETATM   21  N6  MIQ B 502      -1.316  14.811 -17.635  1.00140.95    -0.377 N 
HETATM   22  C7  MIQ B 502      -1.292  16.223 -17.291  1.00142.12     0.149 C 
HETATM   23  C8  MIQ B 502      -0.785  17.080 -18.444  1.00144.10     0.187 C 
HETATM   24  O9  MIQ B 502       0.390  16.584 -19.014  1.00148.65    -0.388 OA
HETATM   25  C10 MIQ B 502       0.861  15.314 -18.673  1.00147.44     0.187 C 
HETATM   26  C11 MIQ B 502      -0.152  14.239 -18.288  1.00144.08     0.149 C 
ENDBRANCH   5  21
TORSDOF 2
ENDMDL
MODEL 3
REMARK VINA RESULT:      -7.2      1.780      2.882
REMARK  2 active torsions:
REMARK  status: ('A' for Active; 'I' for Inactive)
REMARK    1  A    between atoms: C5_5  and  N6_21 
REMARK    2  A    between atoms: C18_14  and  N17_19 
ROOT
HETATM    1  O1  MIQ B 502      -4.694  11.508 -13.478  1.00142.91    -0.171 OA
HETATM    2  C2  MIQ B 502      -3.932  11.151 -14.593  1.00141.17     0.195 A 
HETATM    3  C3  MIQ B 502      -3.182  12.132 -15.549  1.00141.71     0.035 A 
HETATM    4  C4  MIQ B 502      -3.039  13.607 -15.588  1.00142.86     0.046 A 
HETATM    5  C5  MIQ B 502      -2.271  14.226 -16.607  1.00139.53     0.031 A 
HETATM    6  C12 MIQ B 502      -1.618  13.407 -17.618  1.00139.38     0.030 A 
HETATM    7  C13 MIQ B 502      -1.754  11.993 -17.580  1.00141.18     0.019 A 
HETATM    8  C14 MIQ B 502      -2.560  11.349 -16.507  1.00138.77     0.033 A 
HETATM    9  C15 MIQ B 502      -2.926   9.873 -16.143  1.00142.10     0.195 A 
HETATM   10  N17 MIQ B 502      -3.685   9.941 -15.062  1.00139.42    -0.288 N 
HETATM   11  O16 MIQ B 502      -2.532   8.721 -16.827  1.00148.93    -0.171 OA
ENDROOT
BRANCH  10  12
HETATM   12  C18 MIQ B 502      -4.230   8.747 -14.443  1.00139.82     0.187 C 
HETATM   13  C19 MIQ B 502      -3.061   7.801 -14.141  1.00140.06     0.247 C 
HETATM   14  O25 MIQ B 502      -2.124   8.213 -13.554  1.00143.95    -0.271 OA
HETATM   15  N20 MIQ B 502      -3.076   6.412 -14.551  1.00140.02    -0.296 N 
HETATM   16  H13 MIQ B 502      -2.304   5.807 -14.354  1.00142.77     0.171 HD
HETATM   17  C21 MIQ B 502      -4.226   5.936 -15.275  1.00142.22     0.224 C 
HETATM   18  C22 MIQ B 502      -4.908   6.926 -16.199  1.00139.52     0.106 C 
HETATM   19  O24 MIQ B 502      -4.620   4.828 -15.150  1.00146.13    -0.273 OA
HETATM   20  C23 MIQ B 502      -5.293   8.119 -15.343  1.00139.15     0.045 C 
ENDBRANCH  10  12
BRANCH   5  21
HETATM   21  N6  MIQ B 502      -2.152  15.672 -16.642  1.00140.95    -0.377 N 
HETATM   22  C7  MIQ B 502      -2.143  16.399 -15.384  1.00142.12     0.149 C 
HETATM   23  C8  MIQ B 502      -2.654  17.825 -15.548  1.00144.10     0.187 C 
HETATM   24  O9  MIQ B 502      -2.069  18.491 -16.626  1.00148.65    -0.388 OA
HETATM   25  C10 MIQ B 502      -1.289  17.793 -17.551  1.00147.44     0.187 C 
HETATM   26  C11 MIQ B 502      -1.616  16.328 -17.822  1.00144.08     0.149 C 
ENDBRANCH   5  21
TORSDOF 2
ENDMDL
MODEL 4
REMARK VINA RESULT:      -7.0      5.558      8.631
REMARK  2 active torsions:
REMARK  status: ('A' for Active; 'I' for Inactive)
REMARK    1  A    between atoms: C5_5  and  N6_21 
REMARK    2  A    between atoms: C18_14  and  N17_19 
ROOT
HETATM    1  O1  MIQ B 502      -5.533  13.441 -12.688  1.00142.91    -0.171 OA
HETATM    2  C2  MIQ B 502      -6.582  12.523 -12.592  1.00141.17     0.195 A 
HETATM    3  C3  MIQ B 502      -6.504  10.997 -12.917  1.00141.71     0.035 A 
HETATM    4  C4  MIQ B 502      -5.413  10.108 -13.382  1.00142.86     0.046 A 
HETATM    5  C5  MIQ B 502      -5.654   8.727 -13.593  1.00139.53     0.031 A 
HETATM    6  C12 MIQ B 502      -6.982   8.180 -13.350  1.00139.38     0.030 A 
HETATM    7  C13 MIQ B 502      -8.028   9.032 -12.903  1.00141.18     0.019 A 
HETATM    8  C14 MIQ B 502      -7.768  10.481 -12.681  1.00138.77     0.033 A 
HETATM    9  C15 MIQ B 502      -8.634  11.692 -12.206  1.00142.10     0.195 A 
HETATM   10  N17 MIQ B 502      -7.828  12.741 -12.210  1.00139.42    -0.288 N 
HETATM   11  O16 MIQ B 502      -9.985  11.667 -11.853  1.00148.93    -0.171 OA
ENDROOT
BRANCH  10  12
HETATM   12  C18 MIQ B 502      -8.301  14.061 -11.835  1.00139.82     0.187 C 
HETATM   13  C19 MIQ B 502      -7.945  15.026 -12.973  1.00140.06     0.247 C 
HETATM   14  O25 MIQ B 502      -8.246  14.748 -14.079  1.00143.95    -0.271 OA
HETATM   15  N20 MIQ B 502      -7.253  16.275 -12.727  1.00140.02    -0.296 N 
HETATM   16  H13 MIQ B 502      -7.020  16.893 -13.479  1.00142.77     0.171 HD
HETATM   17  C21 MIQ B 502      -6.887  16.586 -11.369  1.00142.22     0.224 C 
HETATM   18  C22 MIQ B 502      -6.520  15.417 -10.477  1.00139.52     0.106 C 
HETATM   19  O24 MIQ B 502      -6.879  17.699 -10.971  1.00146.13    -0.273 OA
HETATM   20  C23 MIQ B 502      -7.710  14.475 -10.489  1.00139.15     0.045 C 
ENDBRANCH  10  12
BRANCH   5  21
HETATM   21  N6  MIQ B 502      -4.580   7.871 -14.063  1.00140.95    -0.377 N 
HETATM   22  C7  MIQ B 502      -4.800   7.073 -15.257  1.00142.12     0.149 C 
HETATM   23  C8  MIQ B 502      -3.937   5.818 -15.268  1.00144.10     0.187 C 
HETATM   24  O9  MIQ B 502      -2.600   6.075 -14.960  1.00148.65    -0.388 OA
HETATM   25  C10 MIQ B 502      -2.214   7.327 -14.473  1.00147.44     0.187 C 
HETATM   26  C11 MIQ B 502      -3.213   8.127 -13.645  1.00144.08     0.149 C 
ENDBRANCH   5  21
TORSDOF 2
ENDMDL
MODEL 5
REMARK VINA RESULT:      -6.8      4.140      8.469
REMARK  2 active torsions:
REMARK  status: ('A' for Active; 'I' for Inactive)
REMARK    1  A    between atoms: C5_5  and  N6_21 
REMARK    2  A    between atoms: C18_14  and  N17_19 
ROOT
HETATM    1  O1  MIQ B 502      -5.206  12.652 -15.374  1.00142.91    -0.171 OA
HETATM    2  C2  MIQ B 502      -5.155  11.385 -14.788  1.00141.17     0.195 A 
HETATM    3  C3  MIQ B 502      -6.360  10.601 -14.178  1.00141.71     0.035 A 
HETATM    4  C4  MIQ B 502      -7.804  10.904 -14.035  1.00142.86     0.046 A 
HETATM    5  C5  MIQ B 502      -8.674   9.968 -13.421  1.00139.53     0.031 A 
HETATM    6  C12 MIQ B 502      -8.146   8.703 -12.930  1.00139.38     0.030 A 
HETATM    7  C13 MIQ B 502      -6.762   8.413 -13.069  1.00141.18     0.019 A 
HETATM    8  C14 MIQ B 502      -5.853   9.398 -13.716  1.00138.77     0.033 A 
HETATM    9  C15 MIQ B 502      -4.324   9.434 -14.042  1.00142.10     0.195 A 
HETATM   10  N17 MIQ B 502      -4.105  10.597 -14.634  1.00139.42    -0.288 N 
HETATM   11  O16 MIQ B 502      -3.386   8.440 -13.760  1.00148.93    -0.171 OA
ENDROOT
BRANCH  10  12
HETATM   12  C18 MIQ B 502      -2.776  10.987 -15.068  1.00139.82     0.187 C 
HETATM   13  C19 MIQ B 502      -2.476  12.368 -14.473  1.00140.06     0.247 C 
HETATM   14  O25 MIQ B 502      -2.631  12.543 -13.317  1.00143.95    -0.271 OA
HETATM   15  N20 MIQ B 502      -2.002  13.465 -15.292  1.00140.02    -0.296 N 
HETATM   16  H13 MIQ B 502      -1.816  14.364 -14.893  1.00142.77     0.171 HD
HETATM   17  C21 MIQ B 502      -1.831  13.230 -16.702  1.00142.22     0.224 C 
HETATM   18  C22 MIQ B 502      -2.801  12.263 -17.354  1.00139.52     0.106 C 
HETATM   19  O24 MIQ B 502      -0.973  13.761 -17.318  1.00146.13    -0.273 OA
HETATM   20  C23 MIQ B 502      -2.684  10.956 -16.593  1.00139.15     0.045 C 
ENDBRANCH  10  12
BRANCH   5  21
HETATM   21  N6  MIQ B 502     -10.084  10.283 -13.273  1.00140.95    -0.377 N 
HETATM   22  C7  MIQ B 502     -11.033   9.662 -14.181  1.00142.12     0.149 C 
HETATM   23  C8  MIQ B 502     -12.286  10.510 -14.360  1.00144.10     0.187 C 
HETATM   24  O9  MIQ B 502     -12.821  10.952 -13.148  1.00148.65    -0.388 OA
HETATM   25  C10 MIQ B 502     -12.103  10.798 -11.960  1.00147.44     0.187 C 
HETATM   26  C11 MIQ B 502     -10.579  10.823 -12.019  1.00144.08     0.149 C 
ENDBRANCH   5  21
TORSDOF 2
ENDMDL
MODEL 6
REMARK VINA RESULT:      -6.2      2.032      7.864
REMARK  2 active torsions:
REMARK  status: ('A' for Active; 'I' for Inactive)
REMARK    1  A    between atoms: C5_5  and  N6_21 
REMARK    2  A    between atoms: C18_14  and  N17_19 
ROOT
HETATM    1  O1  MIQ B 502      -2.111  12.611 -18.819  1.00142.91    -0.171 OA
HETATM    2  C2  MIQ B 502      -2.201  12.850 -17.446  1.00141.17     0.195 A 
HETATM    3  C3  MIQ B 502      -2.505  11.787 -16.343  1.00141.71     0.035 A 
HETATM    4  C4  MIQ B 502      -2.769  10.328 -16.378  1.00142.86     0.046 A 
HETATM    5  C5  MIQ B 502      -3.017   9.616 -15.178  1.00139.53     0.031 A 
HETATM    6  C12 MIQ B 502      -3.012  10.321 -13.904  1.00139.38     0.030 A 
HETATM    7  C13 MIQ B 502      -2.758  11.719 -13.870  1.00141.18     0.019 A 
HETATM    8  C14 MIQ B 502      -2.496  12.461 -15.133  1.00138.77     0.033 A 
HETATM    9  C15 MIQ B 502      -2.183  13.952 -15.487  1.00142.10     0.195 A 
HETATM   10  N17 MIQ B 502      -2.046  13.994 -16.802  1.00139.42    -0.288 N 
HETATM   11  O16 MIQ B 502      -2.075  15.018 -14.592  1.00148.93    -0.171 OA
ENDROOT
BRANCH  10  12
HETATM   12  C18 MIQ B 502      -1.763  15.237 -17.494  1.00139.82     0.187 C 
HETATM   13  C19 MIQ B 502      -2.767  15.371 -18.645  1.00140.06     0.247 C 
HETATM   14  O25 MIQ B 502      -3.919  15.244 -18.422  1.00143.95    -0.271 OA
HETATM   15  N20 MIQ B 502      -2.343  15.656 -20.000  1.00140.02    -0.296 N 
HETATM   16  H13 MIQ B 502      -3.008  15.735 -20.744  1.00142.77     0.171 HD
HETATM   17  C21 MIQ B 502      -0.931  15.797 -20.250  1.00142.22     0.224 C 
HETATM   18  C22 MIQ B 502      -0.003  14.940 -19.411  1.00139.52     0.106 C 
HETATM   19  O24 MIQ B 502      -0.520  16.547 -21.064  1.00146.13    -0.273 OA
HETATM   20  C23 MIQ B 502      -0.308  15.267 -17.960  1.00139.15     0.045 C 
ENDBRANCH  10  12
BRANCH   5  21
HETATM   21  N6  MIQ B 502      -3.288   8.191 -15.229  1.00140.95    -0.377 N 
HETATM   22  C7  MIQ B 502      -3.979   7.656 -16.389  1.00142.12     0.149 C 
HETATM   23  C8  MIQ B 502      -4.746   6.382 -16.058  1.00144.10     0.187 C 
HETATM   24  O9  MIQ B 502      -3.982   5.459 -15.341  1.00148.65    -0.388 OA
HETATM   25  C10 MIQ B 502      -2.741   5.825 -14.815  1.00147.44     0.187 C 
HETATM   26  C11 MIQ B 502      -2.524   7.276 -14.398  1.00144.08     0.149 C 
ENDBRANCH   5  21
TORSDOF 2
ENDMDL
MODEL 7
REMARK VINA RESULT:      -6.2      5.020      8.683
REMARK  2 active torsions:
REMARK  status: ('A' for Active; 'I' for Inactive)
REMARK    1  A    between atoms: C5_5  and  N6_21 
REMARK    2  A    between atoms: C18_14  and  N17_19 
ROOT
HETATM    1  O1  MIQ B 502      -4.747  15.115 -13.867  1.00142.91    -0.171 OA
HETATM    2  C2  MIQ B 502      -5.566  14.324 -13.058  1.00141.17     0.195 A 
HETATM    3  C3  MIQ B 502      -5.716  12.772 -13.135  1.00141.71     0.035 A 
HETATM    4  C4  MIQ B 502      -5.105  11.730 -13.995  1.00142.86     0.046 A 
HETATM    5  C5  MIQ B 502      -5.447  10.366 -13.821  1.00139.53     0.031 A 
HETATM    6  C12 MIQ B 502      -6.404   9.986 -12.792  1.00139.38     0.030 A 
HETATM    7  C13 MIQ B 502      -6.989  10.984 -11.966  1.00141.18     0.019 A 
HETATM    8  C14 MIQ B 502      -6.624  12.415 -12.151  1.00138.77     0.033 A 
HETATM    9  C15 MIQ B 502      -7.039  13.754 -11.459  1.00142.10     0.195 A 
HETATM   10  N17 MIQ B 502      -6.364  14.709 -12.076  1.00139.42    -0.288 N 
HETATM   11  O16 MIQ B 502      -7.943  13.905 -10.406  1.00148.93    -0.171 OA
ENDROOT
BRANCH  10  12
HETATM   12  C18 MIQ B 502      -6.512  16.104 -11.704  1.00139.82     0.187 C 
HETATM   13  C19 MIQ B 502      -6.168  16.229 -10.215  1.00140.06     0.247 C 
HETATM   14  O25 MIQ B 502      -5.156  15.773  -9.817  1.00143.95    -0.271 OA
HETATM   15  N20 MIQ B 502      -7.050  16.899  -9.281  1.00140.02    -0.296 N 
HETATM   16  H13 MIQ B 502      -6.817  16.969  -8.310  1.00142.77     0.171 HD
HETATM   17  C21 MIQ B 502      -8.286  17.439  -9.788  1.00142.22     0.224 C 
HETATM   18  C22 MIQ B 502      -8.945  16.680 -10.924  1.00139.52     0.106 C 
HETATM   19  O24 MIQ B 502      -8.757  18.427  -9.344  1.00146.13    -0.273 OA
HETATM   20  C23 MIQ B 502      -7.919  16.596 -12.040  1.00139.15     0.045 C 
ENDBRANCH  10  12
BRANCH   5  21
HETATM   21  N6  MIQ B 502      -4.853   9.358 -14.681  1.00140.95    -0.377 N 
HETATM   22  C7  MIQ B 502      -3.404   9.281 -14.762  1.00142.12     0.149 C 
HETATM   23  C8  MIQ B 502      -2.939   8.696 -16.089  1.00144.10     0.187 C 
HETATM   24  O9  MIQ B 502      -3.619   7.527 -16.436  1.00148.65    -0.388 OA
HETATM   25  C10 MIQ B 502      -4.749   7.127 -15.719  1.00147.44     0.187 C 
HETATM   26  C11 MIQ B 502      -5.630   8.200 -15.086  1.00144.08     0.149 C 
ENDBRANCH   5  21
TORSDOF 2
ENDMDL
MODEL 8
REMARK VINA RESULT:      -6.2      4.510      8.430
REMARK  2 active torsions:
REMARK  status: ('A' for Active; 'I' for Inactive)
REMARK    1  A    between atoms: C5_5  and  N6_21 
REMARK    2  A    between atoms: C18_14  and  N17_19 
ROOT
HETATM    1  O1  MIQ B 502      -8.553  11.103 -12.003  1.00142.91    -0.171 OA
HETATM    2  C2  MIQ B 502      -7.438  11.832 -12.425  1.00141.17     0.195 A 
HETATM    3  C3  MIQ B 502      -6.180  11.256 -13.150  1.00141.71     0.035 A 
HETATM    4  C4  MIQ B 502      -5.791   9.895 -13.589  1.00142.86     0.046 A 
HETATM    5  C5  MIQ B 502      -4.551   9.680 -14.242  1.00139.53     0.031 A 
HETATM    6  C12 MIQ B 502      -3.656  10.803 -14.482  1.00139.38     0.030 A 
HETATM    7  C13 MIQ B 502      -4.030  12.108 -14.063  1.00141.18     0.019 A 
HETATM    8  C14 MIQ B 502      -5.334  12.329 -13.380  1.00138.77     0.033 A 
HETATM    9  C15 MIQ B 502      -6.071  13.577 -12.795  1.00142.10     0.195 A 
HETATM   10  N17 MIQ B 502      -7.218  13.130 -12.309  1.00139.42    -0.288 N 
HETATM   11  O16 MIQ B 502      -5.608  14.894 -12.787  1.00148.93    -0.171 OA
ENDROOT
BRANCH  10  12
HETATM   12  C18 MIQ B 502      -8.166  14.020 -11.665  1.00139.82     0.187 C 
HETATM   13  C19 MIQ B 502      -8.415  15.201 -12.611  1.00140.06     0.247 C 
HETATM   14  O25 MIQ B 502      -8.704  14.988 -13.734  1.00143.95    -0.271 OA
HETATM   15  N20 MIQ B 502      -8.311  16.574 -12.161  1.00140.02    -0.296 N 
HETATM   16  H13 MIQ B 502      -8.470  17.336 -12.790  1.00142.77     0.171 HD
HETATM   17  C21 MIQ B 502      -7.947  16.808 -10.787  1.00142.22     0.224 C 
HETATM   18  C22 MIQ B 502      -6.996  15.811 -10.155  1.00139.52     0.106 C 
HETATM   19  O24 MIQ B 502      -8.375  17.730 -10.184  1.00146.13    -0.273 OA
HETATM   20  C23 MIQ B 502      -7.647  14.447 -10.293  1.00139.15     0.045 C 
ENDBRANCH  10  12
BRANCH   5  21
HETATM   21  N6  MIQ B 502      -4.175   8.339 -14.653  1.00140.95    -0.377 N 
HETATM   22  C7  MIQ B 502      -4.696   7.827 -15.909  1.00142.12     0.149 C 
HETATM   23  C8  MIQ B 502      -4.782   6.306 -15.910  1.00144.10     0.187 C 
HETATM   24  O9  MIQ B 502      -3.613   5.694 -15.455  1.00148.65    -0.388 OA
HETATM   25  C10 MIQ B 502      -2.604   6.454 -14.857  1.00147.44     0.187 C 
HETATM   26  C11 MIQ B 502      -2.996   7.710 -14.086  1.00144.08     0.149 C 
ENDBRANCH   5  21
TORSDOF 2
ENDMDL
MODEL 9
REMARK VINA RESULT:      -6.1      3.817      7.859
REMARK  2 active torsions:
REMARK  status: ('A' for Active; 'I' for Inactive)
REMARK    1  A    between atoms: C5_5  and  N6_21 
REMARK    2  A    between atoms: C18_14  and  N17_19 
ROOT
HETATM    1  O1  MIQ B 502      -7.089  12.300 -12.400  1.00142.91    -0.171 OA
HETATM    2  C2  MIQ B 502      -6.067  12.741 -13.243  1.00141.17     0.195 A 
HETATM    3  C3  MIQ B 502      -5.089  11.836 -14.058  1.00141.71     0.035 A 
HETATM    4  C4  MIQ B 502      -4.937  10.368 -14.198  1.00142.86     0.046 A 
HETATM    5  C5  MIQ B 502      -3.929   9.829 -15.036  1.00139.53     0.031 A 
HETATM    6  C12 MIQ B 502      -3.040  10.723 -15.765  1.00139.38     0.030 A 
HETATM    7  C13 MIQ B 502      -3.187  12.130 -15.632  1.00141.18     0.019 A 
HETATM    8  C14 MIQ B 502      -4.248  12.691 -14.752  1.00138.77     0.033 A 
HETATM    9  C15 MIQ B 502      -4.707  14.135 -14.366  1.00142.10     0.195 A 
HETATM   10  N17 MIQ B 502      -5.721  13.985 -13.529  1.00139.42    -0.288 N 
HETATM   11  O16 MIQ B 502      -4.153  15.335 -14.814  1.00148.93    -0.171 OA
ENDROOT
BRANCH  10  12
HETATM   12  C18 MIQ B 502      -6.396  15.128 -12.945  1.00139.82     0.187 C 
HETATM   13  C19 MIQ B 502      -6.436  14.921 -11.426  1.00140.06     0.247 C 
HETATM   14  O25 MIQ B 502      -5.438  14.660 -10.853  1.00143.95    -0.271 OA
HETATM   15  N20 MIQ B 502      -7.666  15.044 -10.670  1.00140.02    -0.296 N 
HETATM   16  H13 MIQ B 502      -7.680  14.901  -9.680  1.00142.77     0.171 HD
HETATM   17  C21 MIQ B 502      -8.873  15.354 -11.392  1.00142.22     0.224 C 
HETATM   18  C22 MIQ B 502      -8.989  14.794 -12.797  1.00139.52     0.106 C 
HETATM   19  O24 MIQ B 502      -9.727  16.017 -10.914  1.00146.13    -0.273 OA
HETATM   20  C23 MIQ B 502      -7.782  15.301 -13.565  1.00139.15     0.045 C 
ENDBRANCH  10  12
BRANCH   5  21
HETATM   21  N6  MIQ B 502      -3.781   8.390 -15.152  1.00140.95    -0.377 N 
HETATM   22  C7  MIQ B 502      -3.033   7.684 -14.126  1.00142.12     0.149 C 
HETATM   23  C8  MIQ B 502      -2.417   6.395 -14.657  1.00144.10     0.187 C 
HETATM   24  O9  MIQ B 502      -3.324   5.616 -15.377  1.00148.65    -0.388 OA
HETATM   25  C10 MIQ B 502      -4.572   6.131 -15.735  1.00147.44     0.187 C 
HETATM   26  C11 MIQ B 502      -4.698   7.631 -15.984  1.00144.08     0.149 C 
ENDBRANCH   5  21
TORSDOF 2
ENDMDL
