MODEL 1
REMARK VINA RESULT:      -6.7      0.000      0.000
REMARK  2 active torsions:
REMARK  status: ('A' for Active; 'I' for Inactive)
REMARK    1  A    between atoms: C5_5  and  N6_21 
REMARK    2  A    between atoms: C18_14  and  N17_19 
ROOT
HETATM    1  O1  MIQ B 502     -15.783 -10.853  -0.104  1.00142.91    -0.171 OA
HETATM    2  C2  MIQ B 502     -16.630  -9.945  -0.744  1.00141.17     0.195 A 
HETATM    3  C3  MIQ B 502     -18.102  -9.613  -0.340  1.00141.71     0.035 A 
HETATM    4  C4  MIQ B 502     -18.995 -10.095   0.740  1.00142.86     0.046 A 
HETATM    5  C5  MIQ B 502     -20.316  -9.593   0.856  1.00139.53     0.031 A 
HETATM    6  C12 MIQ B 502     -20.796  -8.598  -0.093  1.00139.38     0.030 A 
HETATM    7  C13 MIQ B 502     -19.939  -8.135  -1.128  1.00141.18     0.019 A 
HETATM    8  C14 MIQ B 502     -18.553  -8.664  -1.242  1.00138.77     0.033 A 
HETATM    9  C15 MIQ B 502     -17.354  -8.404  -2.212  1.00142.10     0.195 A 
HETATM   10  N17 MIQ B 502     -16.372  -9.188  -1.797  1.00139.42    -0.288 N 
HETATM   11  O16 MIQ B 502     -17.331  -7.525  -3.296  1.00148.93    -0.171 OA
ENDROOT
BRANCH  10  12
HETATM   12  C18 MIQ B 502     -15.092  -9.223  -2.478  1.00139.82     0.187 C 
HETATM   13  C19 MIQ B 502     -14.799 -10.683  -2.847  1.00140.06     0.247 C 
HETATM   14  O25 MIQ B 502     -15.619 -11.308  -3.419  1.00143.95    -0.271 OA
HETATM   15  N20 MIQ B 502     -13.538 -11.315  -2.518  1.00140.02    -0.296 N 
HETATM   16  H13 MIQ B 502     -13.361 -12.271  -2.759  1.00142.77     0.171 HD
HETATM   17  C21 MIQ B 502     -12.555 -10.534  -1.811  1.00142.22     0.224 C 
HETATM   18  C22 MIQ B 502     -13.081  -9.510  -0.825  1.00139.52     0.106 C 
HETATM   19  O24 MIQ B 502     -11.398 -10.683  -1.997  1.00146.13    -0.273 OA
HETATM   20  C23 MIQ B 502     -14.007  -8.594  -1.605  1.00139.15     0.045 C 
ENDBRANCH  10  12
BRANCH   5  21
HETATM   21  N6  MIQ B 502     -21.184 -10.085   1.909  1.00140.95    -0.377 N 
HETATM   22  C7  MIQ B 502     -20.665 -10.148   3.265  1.00142.12     0.149 C 
HETATM   23  C8  MIQ B 502     -21.365 -11.218   4.093  1.00144.10     0.187 C 
HETATM   24  O9  MIQ B 502     -22.757 -11.162   3.988  1.00148.65    -0.388 OA
HETATM   25  C10 MIQ B 502     -23.362 -10.345   3.030  1.00147.44     0.187 C 
HETATM   26  C11 MIQ B 502     -22.625 -10.087   1.720  1.00144.08     0.149 C 
ENDBRANCH   5  21
TORSDOF 2
ENDMDL
MODEL 2
REMARK VINA RESULT:      -6.2      2.239      8.055
REMARK  2 active torsions:
REMARK  status: ('A' for Active; 'I' for Inactive)
REMARK    1  A    between atoms: C5_5  and  N6_21 
REMARK    2  A    between atoms: C18_14  and  N17_19 
ROOT
HETATM    1  O1  MIQ B 502     -20.205 -11.159   0.721  1.00142.91    -0.171 OA
HETATM    2  C2  MIQ B 502     -19.302 -10.149   1.060  1.00141.17     0.195 A 
HETATM    3  C3  MIQ B 502     -18.037  -9.731   0.245  1.00141.71     0.035 A 
HETATM    4  C4  MIQ B 502     -17.437 -10.209  -1.023  1.00142.86     0.046 A 
HETATM    5  C5  MIQ B 502     -16.252  -9.615  -1.525  1.00139.53     0.031 A 
HETATM    6  C12 MIQ B 502     -15.622  -8.527  -0.790  1.00139.38     0.030 A 
HETATM    7  C13 MIQ B 502     -16.197  -8.067   0.425  1.00141.18     0.019 A 
HETATM    8  C14 MIQ B 502     -17.442  -8.694   0.946  1.00138.77     0.033 A 
HETATM    9  C15 MIQ B 502     -18.344  -8.467   2.203  1.00142.10     0.195 A 
HETATM   10  N17 MIQ B 502     -19.326  -9.348   2.112  1.00139.42    -0.288 N 
HETATM   11  O16 MIQ B 502     -18.146  -7.525   3.215  1.00148.93    -0.171 OA
ENDROOT
BRANCH  10  12
HETATM   12  C18 MIQ B 502     -20.358  -9.440   3.128  1.00139.82     0.187 C 
HETATM   13  C19 MIQ B 502     -20.376 -10.882   3.649  1.00140.06     0.247 C 
HETATM   14  O25 MIQ B 502     -19.366 -11.379   4.002  1.00143.95    -0.271 OA
HETATM   15  N20 MIQ B 502     -21.600 -11.652   3.726  1.00140.02    -0.296 N 
HETATM   16  H13 MIQ B 502     -21.597 -12.594   4.062  1.00142.77     0.171 HD
HETATM   17  C21 MIQ B 502     -22.819 -11.027   3.280  1.00142.22     0.224 C 
HETATM   18  C22 MIQ B 502     -22.700 -10.049   2.127  1.00139.52     0.106 C 
HETATM   19  O24 MIQ B 502     -23.858 -11.262   3.792  1.00146.13    -0.273 OA
HETATM   20  C23 MIQ B 502     -21.704  -8.989   2.561  1.00139.15     0.045 C 
ENDBRANCH  10  12
BRANCH   5  21
HETATM   21  N6  MIQ B 502     -15.668 -10.104  -2.761  1.00140.95    -0.377 N 
HETATM   22  C7  MIQ B 502     -16.362  -9.840  -4.009  1.00142.12     0.149 C 
HETATM   23  C8  MIQ B 502     -16.045 -10.887  -5.069  1.00144.10     0.187 C 
HETATM   24  O9  MIQ B 502     -14.678 -11.142  -5.189  1.00148.65    -0.388 OA
HETATM   25  C10 MIQ B 502     -13.778 -10.634  -4.248  1.00147.44     0.187 C 
HETATM   26  C11 MIQ B 502     -14.256 -10.438  -2.813  1.00144.08     0.149 C 
ENDBRANCH   5  21
TORSDOF 2
ENDMDL
MODEL 3
REMARK VINA RESULT:      -6.2     13.933     15.145
REMARK  2 active torsions:
REMARK  status: ('A' for Active; 'I' for Inactive)
REMARK    1  A    between atoms: C5_5  and  N6_21 
REMARK    2  A    between atoms: C18_14  and  N17_19 
ROOT
HETATM    1  O1  MIQ B 502     -19.540 -23.808  -9.825  1.00142.91    -0.171 OA
HETATM    2  C2  MIQ B 502     -18.891 -22.836  -9.061  1.00141.17     0.195 A 
HETATM    3  C3  MIQ B 502     -19.430 -22.182  -7.749  1.00141.71     0.035 A 
HETATM    4  C4  MIQ B 502     -20.673 -22.356  -6.960  1.00142.86     0.046 A 
HETATM    5  C5  MIQ B 502     -20.884 -21.600  -5.779  1.00139.53     0.031 A 
HETATM    6  C12 MIQ B 502     -19.873 -20.648  -5.340  1.00139.38     0.030 A 
HETATM    7  C13 MIQ B 502     -18.681 -20.482  -6.096  1.00141.18     0.019 A 
HETATM    8  C14 MIQ B 502     -18.464 -21.281  -7.333  1.00138.77     0.033 A 
HETATM    9  C15 MIQ B 502     -17.318 -21.376  -8.392  1.00142.10     0.195 A 
HETATM   10  N17 MIQ B 502     -17.710 -22.281  -9.274  1.00139.42    -0.288 N 
HETATM   11  O16 MIQ B 502     -16.126 -20.649  -8.402  1.00148.93    -0.171 OA
ENDROOT
BRANCH  10  12
HETATM   12  C18 MIQ B 502     -16.893 -22.623 -10.423  1.00139.82     0.187 C 
HETATM   13  C19 MIQ B 502     -17.786 -22.559 -11.669  1.00140.06     0.247 C 
HETATM   14  O25 MIQ B 502     -18.435 -21.593 -11.862  1.00143.95    -0.271 OA
HETATM   15  N20 MIQ B 502     -17.850 -23.650 -12.619  1.00140.02    -0.296 N 
HETATM   16  H13 MIQ B 502     -18.442 -23.598 -13.425  1.00142.77     0.171 HD
HETATM   17  C21 MIQ B 502     -17.055 -24.822 -12.355  1.00142.22     0.224 C 
HETATM   18  C22 MIQ B 502     -16.858 -25.197 -10.900  1.00139.52     0.106 C 
HETATM   19  O24 MIQ B 502     -16.578 -25.454 -13.232  1.00146.13    -0.273 OA
HETATM   20  C23 MIQ B 502     -16.238 -23.989 -10.222  1.00139.15     0.045 C 
ENDBRANCH  10  12
BRANCH   5  21
HETATM   21  N6  MIQ B 502     -22.112 -21.770  -5.025  1.00140.95    -0.377 N 
HETATM   22  C7  MIQ B 502     -22.258 -21.059  -3.766  1.00142.12     0.149 C 
HETATM   23  C8  MIQ B 502     -23.208 -21.775  -2.815  1.00144.10     0.187 C 
HETATM   24  O9  MIQ B 502     -24.404 -22.156  -3.427  1.00148.65    -0.388 OA
HETATM   25  C10 MIQ B 502     -24.548 -22.071  -4.814  1.00147.44     0.187 C 
HETATM   26  C11 MIQ B 502     -23.311 -22.252  -5.688  1.00144.08     0.149 C 
ENDBRANCH   5  21
TORSDOF 2
ENDMDL
MODEL 4
REMARK VINA RESULT:      -6.2      1.703      2.572
REMARK  2 active torsions:
REMARK  status: ('A' for Active; 'I' for Inactive)
REMARK    1  A    between atoms: C5_5  and  N6_21 
REMARK    2  A    between atoms: C18_14  and  N17_19 
ROOT
HETATM    1  O1  MIQ B 502     -17.282 -10.558  -2.351  1.00142.91    -0.171 OA
HETATM    2  C2  MIQ B 502     -16.904  -9.745  -1.281  1.00141.17     0.195 A 
HETATM    3  C3  MIQ B 502     -17.729  -9.489   0.021  1.00141.71     0.035 A 
HETATM    4  C4  MIQ B 502     -19.044  -9.972   0.505  1.00142.86     0.046 A 
HETATM    5  C5  MIQ B 502     -19.542  -9.554   1.765  1.00139.53     0.031 A 
HETATM    6  C12 MIQ B 502     -18.756  -8.645   2.586  1.00139.38     0.030 A 
HETATM    7  C13 MIQ B 502     -17.495  -8.182   2.123  1.00141.18     0.019 A 
HETATM    8  C14 MIQ B 502     -16.976  -8.626   0.801  1.00138.77     0.033 A 
HETATM    9  C15 MIQ B 502     -15.676  -8.346  -0.021  1.00142.10     0.195 A 
HETATM   10  N17 MIQ B 502     -15.794  -9.040  -1.141  1.00139.42    -0.288 N 
HETATM   11  O16 MIQ B 502     -14.610  -7.525   0.355  1.00148.93    -0.171 OA
ENDROOT
BRANCH  10  12
HETATM   12  C18 MIQ B 502     -14.766  -9.007  -2.164  1.00139.82     0.187 C 
HETATM   13  C19 MIQ B 502     -15.458  -8.792  -3.515  1.00140.06     0.247 C 
HETATM   14  O25 MIQ B 502     -16.226  -7.904  -3.634  1.00143.95    -0.271 OA
HETATM   15  N20 MIQ B 502     -15.191  -9.645  -4.655  1.00140.02    -0.296 N 
HETATM   16  H13 MIQ B 502     -15.654  -9.498  -5.530  1.00142.77     0.171 HD
HETATM   17  C21 MIQ B 502     -14.258 -10.729  -4.482  1.00142.22     0.224 C 
HETATM   18  C22 MIQ B 502     -14.221 -11.385  -3.116  1.00139.52     0.106 C 
HETATM   19  O24 MIQ B 502     -13.552 -11.083  -5.362  1.00146.13    -0.273 OA
HETATM   20  C23 MIQ B 502     -13.926 -10.283  -2.115  1.00139.15     0.045 C 
ENDBRANCH  10  12
BRANCH   5  21
HETATM   21  N6  MIQ B 502     -20.838 -10.024   2.220  1.00140.95    -0.377 N 
HETATM   22  C7  MIQ B 502     -21.964  -9.949   1.305  1.00142.12     0.149 C 
HETATM   23  C8  MIQ B 502     -23.291  -9.842   2.045  1.00144.10     0.187 C 
HETATM   24  O9  MIQ B 502     -23.417 -10.780   3.072  1.00148.65    -0.388 OA
HETATM   25  C10 MIQ B 502     -22.317 -11.541   3.475  1.00147.44     0.187 C 
HETATM   26  C11 MIQ B 502     -20.924 -10.933   3.349  1.00144.08     0.149 C 
ENDBRANCH   5  21
TORSDOF 2
ENDMDL
MODEL 5
REMARK VINA RESULT:      -6.2     12.549     13.419
REMARK  2 active torsions:
REMARK  status: ('A' for Active; 'I' for Inactive)
REMARK    1  A    between atoms: C5_5  and  N6_21 
REMARK    2  A    between atoms: C18_14  and  N17_19 
ROOT
HETATM    1  O1  MIQ B 502     -19.188 -19.917  -4.438  1.00142.91    -0.171 OA
HETATM    2  C2  MIQ B 502     -19.851 -20.646  -5.428  1.00141.17     0.195 A 
HETATM    3  C3  MIQ B 502     -21.298 -21.226  -5.332  1.00141.71     0.035 A 
HETATM    4  C4  MIQ B 502     -22.340 -21.199  -4.278  1.00142.86     0.046 A 
HETATM    5  C5  MIQ B 502     -23.591 -21.831  -4.489  1.00139.53     0.031 A 
HETATM    6  C12 MIQ B 502     -23.853 -22.511  -5.749  1.00139.38     0.030 A 
HETATM    7  C13 MIQ B 502     -22.855 -22.537  -6.761  1.00141.18     0.019 A 
HETATM    8  C14 MIQ B 502     -21.545 -21.869  -6.534  1.00138.77     0.033 A 
HETATM    9  C15 MIQ B 502     -20.243 -21.686  -7.382  1.00142.10     0.195 A 
HETATM   10  N17 MIQ B 502     -19.411 -20.988  -6.627  1.00139.42    -0.288 N 
HETATM   11  O16 MIQ B 502     -20.011 -22.167  -8.671  1.00148.93    -0.171 OA
ENDROOT
BRANCH  10  12
HETATM   12  C18 MIQ B 502     -18.081 -20.638  -7.089  1.00139.82     0.187 C 
HETATM   13  C19 MIQ B 502     -18.220 -20.004  -8.478  1.00140.06     0.247 C 
HETATM   14  O25 MIQ B 502     -18.987 -19.120  -8.634  1.00143.95    -0.271 OA
HETATM   15  N20 MIQ B 502     -17.432 -20.455  -9.606  1.00140.02    -0.296 N 
HETATM   16  H13 MIQ B 502     -17.537 -20.037 -10.510  1.00142.77     0.171 HD
HETATM   17  C21 MIQ B 502     -16.511 -21.542  -9.394  1.00142.22     0.224 C 
HETATM   18  C22 MIQ B 502     -16.922 -22.596  -8.385  1.00139.52     0.106 C 
HETATM   19  O24 MIQ B 502     -15.483 -21.603  -9.975  1.00146.13    -0.273 OA
HETATM   20  C23 MIQ B 502     -17.174 -21.868  -7.078  1.00139.15     0.045 C 
ENDBRANCH  10  12
BRANCH   5  21
HETATM   21  N6  MIQ B 502     -24.596 -21.809  -3.442  1.00140.95    -0.377 N 
HETATM   22  C7  MIQ B 502     -24.184 -21.468  -2.091  1.00142.12     0.149 C 
HETATM   23  C8  MIQ B 502     -25.103 -22.083  -1.044  1.00144.10     0.187 C 
HETATM   24  O9  MIQ B 502     -26.457 -21.884  -1.324  1.00148.65    -0.388 OA
HETATM   25  C10 MIQ B 502     -26.856 -21.376  -2.563  1.00147.44     0.187 C 
HETATM   26  C11 MIQ B 502     -26.001 -21.686  -3.788  1.00144.08     0.149 C 
ENDBRANCH   5  21
TORSDOF 2
ENDMDL
MODEL 6
REMARK VINA RESULT:      -6.1     13.957     15.866
REMARK  2 active torsions:
REMARK  status: ('A' for Active; 'I' for Inactive)
REMARK    1  A    between atoms: C5_5  and  N6_21 
REMARK    2  A    between atoms: C18_14  and  N17_19 
ROOT
HETATM    1  O1  MIQ B 502     -18.007 -22.186 -11.569  1.00142.91    -0.171 OA
HETATM    2  C2  MIQ B 502     -18.604 -21.930 -10.333  1.00141.17     0.195 A 
HETATM    3  C3  MIQ B 502     -19.612 -20.779 -10.016  1.00141.71     0.035 A 
HETATM    4  C4  MIQ B 502     -20.210 -19.695 -10.832  1.00142.86     0.046 A 
HETATM    5  C5  MIQ B 502     -21.120 -18.778 -10.248  1.00139.53     0.031 A 
HETATM    6  C12 MIQ B 502     -21.469 -18.904  -8.840  1.00139.38     0.030 A 
HETATM    7  C13 MIQ B 502     -20.897 -19.944  -8.059  1.00141.18     0.019 A 
HETATM    8  C14 MIQ B 502     -19.944 -20.905  -8.677  1.00138.77     0.033 A 
HETATM    9  C15 MIQ B 502     -19.138 -22.141  -8.159  1.00142.10     0.195 A 
HETATM   10  N17 MIQ B 502     -18.453 -22.591  -9.198  1.00139.42    -0.288 N 
HETATM   11  O16 MIQ B 502     -19.143 -22.658  -6.863  1.00148.93    -0.171 OA
ENDROOT
BRANCH  10  12
HETATM   12  C18 MIQ B 502     -17.569 -23.736  -9.083  1.00139.82     0.187 C 
HETATM   13  C19 MIQ B 502     -16.191 -23.317  -9.608  1.00140.06     0.247 C 
HETATM   14  O25 MIQ B 502     -15.691 -22.332  -9.194  1.00143.95    -0.271 OA
HETATM   15  N20 MIQ B 502     -15.480 -24.101 -10.597  1.00140.02    -0.296 N 
HETATM   16  H13 MIQ B 502     -14.583 -23.814 -10.937  1.00142.77     0.171 HD
HETATM   17  C21 MIQ B 502     -16.115 -25.294 -11.096  1.00142.22     0.224 C 
HETATM   18  C22 MIQ B 502     -17.627 -25.265 -11.208  1.00139.52     0.106 C 
HETATM   19  O24 MIQ B 502     -15.486 -26.249 -11.396  1.00146.13    -0.273 OA
HETATM   20  C23 MIQ B 502     -18.156 -24.937  -9.823  1.00139.15     0.045 C 
ENDBRANCH  10  12
BRANCH   5  21
HETATM   21  N6  MIQ B 502     -21.686 -17.713 -11.055  1.00140.95    -0.377 N 
HETATM   22  C7  MIQ B 502     -22.257 -18.048 -12.348  1.00142.12     0.149 C 
HETATM   23  C8  MIQ B 502     -22.210 -16.871 -13.313  1.00144.10     0.187 C 
HETATM   24  O9  MIQ B 502     -22.676 -15.684 -12.746  1.00148.65    -0.388 OA
HETATM   25  C10 MIQ B 502     -22.919 -15.604 -11.372  1.00147.44     0.187 C 
HETATM   26  C11 MIQ B 502     -22.078 -16.460 -10.431  1.00144.08     0.149 C 
ENDBRANCH   5  21
TORSDOF 2
ENDMDL
MODEL 7
REMARK VINA RESULT:      -6.0     18.793     22.256
REMARK  2 active torsions:
REMARK  status: ('A' for Active; 'I' for Inactive)
REMARK    1  A    between atoms: C5_5  and  N6_21 
REMARK    2  A    between atoms: C18_14  and  N17_19 
ROOT
HETATM    1  O1  MIQ B 502      -4.202 -17.883  12.839  1.00142.91    -0.171 OA
HETATM    2  C2  MIQ B 502      -3.522 -17.651  11.642  1.00141.17     0.195 A 
HETATM    3  C3  MIQ B 502      -2.025 -17.991  11.351  1.00141.71     0.035 A 
HETATM    4  C4  MIQ B 502      -0.945 -18.607  12.157  1.00142.86     0.046 A 
HETATM    5  C5  MIQ B 502       0.347 -18.791  11.602  1.00139.53     0.031 A 
HETATM    6  C12 MIQ B 502       0.613 -18.372  10.234  1.00139.38     0.030 A 
HETATM    7  C13 MIQ B 502      -0.423 -17.781   9.461  1.00141.18     0.019 A 
HETATM    8  C14 MIQ B 502      -1.778 -17.593  10.047  1.00138.77     0.033 A 
HETATM    9  C15 MIQ B 502      -3.129 -17.004   9.525  1.00142.10     0.195 A 
HETATM   10  N17 MIQ B 502      -3.987 -17.114  10.527  1.00139.42    -0.288 N 
HETATM   11  O16 MIQ B 502      -3.375 -16.469   8.260  1.00148.93    -0.171 OA
ENDROOT
BRANCH  10  12
HETATM   12  C18 MIQ B 502      -5.356 -16.648  10.407  1.00139.82     0.187 C 
HETATM   13  C19 MIQ B 502      -5.684 -15.833  11.663  1.00140.06     0.247 C 
HETATM   14  O25 MIQ B 502      -4.953 -14.969  11.997  1.00143.95    -0.271 OA
HETATM   15  N20 MIQ B 502      -6.872 -16.088  12.451  1.00140.02    -0.296 N 
HETATM   16  H13 MIQ B 502      -7.072 -15.553  13.273  1.00142.77     0.171 HD
HETATM   17  C21 MIQ B 502      -7.744 -17.155  12.030  1.00142.22     0.224 C 
HETATM   18  C22 MIQ B 502      -7.086 -18.356  11.380  1.00139.52     0.106 C 
HETATM   19  O24 MIQ B 502      -8.915 -17.091  12.180  1.00146.13    -0.273 OA
HETATM   20  C23 MIQ B 502      -6.302 -17.828  10.192  1.00139.15     0.045 C 
ENDBRANCH  10  12
BRANCH   5  21
HETATM   21  N6  MIQ B 502       1.400 -19.383  12.408  1.00140.95    -0.377 N 
HETATM   22  C7  MIQ B 502       2.053 -18.560  13.411  1.00142.12     0.149 C 
HETATM   23  C8  MIQ B 502       3.471 -19.034  13.701  1.00144.10     0.187 C 
HETATM   24  O9  MIQ B 502       3.551 -20.411  13.915  1.00148.65    -0.388 OA
HETATM   25  C10 MIQ B 502       2.454 -21.234  13.644  1.00147.44     0.187 C 
HETATM   26  C11 MIQ B 502       1.494 -20.827  12.531  1.00144.08     0.149 C 
ENDBRANCH   5  21
TORSDOF 2
ENDMDL
MODEL 8
REMARK VINA RESULT:      -6.0     15.048     18.000
REMARK  2 active torsions:
REMARK  status: ('A' for Active; 'I' for Inactive)
REMARK    1  A    between atoms: C5_5  and  N6_21 
REMARK    2  A    between atoms: C18_14  and  N17_19 
ROOT
HETATM    1  O1  MIQ B 502     -19.979 -21.045 -11.100  1.00142.91    -0.171 OA
HETATM    2  C2  MIQ B 502     -18.864 -21.533 -10.415  1.00141.17     0.195 A 
HETATM    3  C3  MIQ B 502     -17.936 -22.701 -10.876  1.00141.71     0.035 A 
HETATM    4  C4  MIQ B 502     -17.925 -23.585 -12.067  1.00142.86     0.046 A 
HETATM    5  C5  MIQ B 502     -16.927 -24.580 -12.211  1.00139.53     0.031 A 
HETATM    6  C12 MIQ B 502     -15.906 -24.735 -11.184  1.00139.38     0.030 A 
HETATM    7  C13 MIQ B 502     -15.916 -23.888 -10.043  1.00141.18     0.019 A 
HETATM    8  C14 MIQ B 502     -16.966 -22.842  -9.898  1.00138.77     0.033 A 
HETATM    9  C15 MIQ B 502     -17.293 -21.755  -8.823  1.00142.10     0.195 A 
HETATM   10  N17 MIQ B 502     -18.366 -21.119  -9.262  1.00139.42    -0.288 N 
HETATM   11  O16 MIQ B 502     -16.592 -21.511  -7.641  1.00148.93    -0.171 OA
ENDROOT
BRANCH  10  12
HETATM   12  C18 MIQ B 502     -18.971 -20.040  -8.503  1.00139.82     0.187 C 
HETATM   13  C19 MIQ B 502     -20.456 -20.374  -8.318  1.00140.06     0.247 C 
HETATM   14  O25 MIQ B 502     -20.761 -21.434  -7.897  1.00143.95    -0.271 OA
HETATM   15  N20 MIQ B 502     -21.499 -19.422  -8.640  1.00140.02    -0.296 N 
HETATM   16  H13 MIQ B 502     -22.466 -19.655  -8.521  1.00142.77     0.171 HD
HETATM   17  C21 MIQ B 502     -21.104 -18.139  -9.162  1.00142.22     0.224 C 
HETATM   18  C22 MIQ B 502     -19.863 -18.112 -10.034  1.00139.52     0.106 C 
HETATM   19  O24 MIQ B 502     -21.714 -17.158  -8.917  1.00146.13    -0.273 OA
HETATM   20  C23 MIQ B 502     -18.738 -18.702  -9.202  1.00139.15     0.045 C 
ENDBRANCH  10  12
BRANCH   5  21
HETATM   21  N6  MIQ B 502     -16.937 -25.448 -13.374  1.00140.95    -0.377 N 
HETATM   22  C7  MIQ B 502     -15.945 -26.507 -13.460  1.00142.12     0.149 C 
HETATM   23  C8  MIQ B 502     -15.643 -26.887 -14.904  1.00144.10     0.187 C 
HETATM   24  O9  MIQ B 502     -16.795 -27.086 -15.666  1.00148.65    -0.388 OA
HETATM   25  C10 MIQ B 502     -18.048 -26.727 -15.162  1.00147.44     0.187 C 
HETATM   26  C11 MIQ B 502     -18.135 -25.557 -14.188  1.00144.08     0.149 C 
ENDBRANCH   5  21
TORSDOF 2
ENDMDL
MODEL 9
REMARK VINA RESULT:      -5.9     12.751     13.831
REMARK  2 active torsions:
REMARK  status: ('A' for Active; 'I' for Inactive)
REMARK    1  A    between atoms: C5_5  and  N6_21 
REMARK    2  A    between atoms: C18_14  and  N17_19 
ROOT
HETATM    1  O1  MIQ B 502     -22.274 -21.900  -8.737  1.00142.91    -0.171 OA
HETATM    2  C2  MIQ B 502     -21.569 -20.704  -8.888  1.00141.17     0.195 A 
HETATM    3  C3  MIQ B 502     -22.192 -19.279  -9.034  1.00141.71     0.035 A 
HETATM    4  C4  MIQ B 502     -23.585 -18.773  -9.054  1.00142.86     0.046 A 
HETATM    5  C5  MIQ B 502     -23.841 -17.386  -9.203  1.00139.53     0.031 A 
HETATM    6  C12 MIQ B 502     -22.730 -16.456  -9.335  1.00139.38     0.030 A 
HETATM    7  C13 MIQ B 502     -21.394 -16.940  -9.315  1.00141.18     0.019 A 
HETATM    8  C14 MIQ B 502     -21.130 -18.397  -9.156  1.00138.77     0.033 A 
HETATM    9  C15 MIQ B 502     -19.842 -19.279  -9.085  1.00142.10     0.195 A 
HETATM   10  N17 MIQ B 502     -20.260 -20.525  -8.934  1.00139.42    -0.288 N 
HETATM   11  O16 MIQ B 502     -18.520 -18.837  -9.169  1.00148.93    -0.171 OA
ENDROOT
BRANCH  10  12
HETATM   12  C18 MIQ B 502     -19.326 -21.632  -8.846  1.00139.82     0.187 C 
HETATM   13  C19 MIQ B 502     -18.275 -21.275  -7.788  1.00140.06     0.247 C 
HETATM   14  O25 MIQ B 502     -18.631 -20.913  -6.723  1.00143.95    -0.271 OA
HETATM   15  N20 MIQ B 502     -16.856 -21.374  -8.057  1.00140.02    -0.296 N 
HETATM   16  H13 MIQ B 502     -16.180 -21.132  -7.359  1.00142.77     0.171 HD
HETATM   17  C21 MIQ B 502     -16.446 -21.809  -9.368  1.00142.22     0.224 C 
HETATM   18  C22 MIQ B 502     -17.333 -21.399 -10.528  1.00139.52     0.106 C 
HETATM   19  O24 MIQ B 502     -15.471 -22.456  -9.527  1.00146.13    -0.273 OA
HETATM   20  C23 MIQ B 502     -18.721 -21.928 -10.218  1.00139.15     0.045 C 
ENDBRANCH  10  12
BRANCH   5  21
HETATM   21  N6  MIQ B 502     -25.211 -16.906  -9.236  1.00140.95    -0.377 N 
HETATM   22  C7  MIQ B 502     -26.011 -17.003  -8.027  1.00142.12     0.149 C 
HETATM   23  C8  MIQ B 502     -27.500 -17.093  -8.336  1.00144.10     0.187 C 
HETATM   24  O9  MIQ B 502     -27.922 -16.131  -9.256  1.00148.65    -0.388 OA
HETATM   25  C10 MIQ B 502     -26.989 -15.360  -9.953  1.00147.44     0.187 C 
HETATM   26  C11 MIQ B 502     -25.627 -15.970 -10.266  1.00144.08     0.149 C 
ENDBRANCH   5  21
TORSDOF 2
ENDMDL
