MODEL 1
REMARK VINA RESULT:      -7.0      0.000      0.000
REMARK  2 active torsions:
REMARK  status: ('A' for Active; 'I' for Inactive)
REMARK    1  A    between atoms: C5_5  and  N6_21 
REMARK    2  A    between atoms: C18_14  and  N17_19 
ROOT
HETATM    1  O1  MIQ B 502     -15.761  -0.328  18.028  1.00142.91    -0.171 OA
HETATM    2  C2  MIQ B 502     -14.606  -0.113  17.273  1.00141.17     0.195 A 
HETATM    3  C3  MIQ B 502     -14.324  -0.668  15.840  1.00141.71     0.035 A 
HETATM    4  C4  MIQ B 502     -15.102  -1.513  14.904  1.00142.86     0.046 A 
HETATM    5  C5  MIQ B 502     -14.567  -1.858  13.637  1.00139.53     0.031 A 
HETATM    6  C12 MIQ B 502     -13.246  -1.379  13.256  1.00139.38     0.030 A 
HETATM    7  C13 MIQ B 502     -12.500  -0.568  14.153  1.00141.18     0.019 A 
HETATM    8  C14 MIQ B 502     -13.068  -0.207  15.481  1.00138.77     0.033 A 
HETATM    9  C15 MIQ B 502     -12.568   0.640  16.696  1.00142.10     0.195 A 
HETATM   10  N17 MIQ B 502     -13.536   0.592  17.597  1.00139.42    -0.288 N 
HETATM   11  O16 MIQ B 502     -11.347   1.307  16.804  1.00148.93    -0.171 OA
ENDROOT
BRANCH  10  12
HETATM   12  C18 MIQ B 502     -13.411   1.261  18.879  1.00139.82     0.187 C 
HETATM   13  C19 MIQ B 502     -13.083   2.735  18.607  1.00140.06     0.247 C 
HETATM   14  O25 MIQ B 502     -13.756   3.345  17.854  1.00143.95    -0.271 OA
HETATM   15  N20 MIQ B 502     -11.971   3.401  19.253  1.00140.02    -0.296 N 
HETATM   16  H13 MIQ B 502     -11.764   4.362  19.062  1.00142.77     0.171 HD
HETATM   17  C21 MIQ B 502     -11.158   2.632  20.159  1.00142.22     0.224 C 
HETATM   18  C22 MIQ B 502     -10.973   1.164  19.829  1.00139.52     0.106 C 
HETATM   19  O24 MIQ B 502     -10.665   3.123  21.115  1.00146.13    -0.273 OA
HETATM   20  C23 MIQ B 502     -12.364   0.562  19.744  1.00139.15     0.045 C 
ENDBRANCH  10  12
BRANCH   5  21
HETATM   21  N6  MIQ B 502     -15.333  -2.699  12.735  1.00140.95    -0.377 N 
HETATM   22  C7  MIQ B 502     -15.143  -2.537  11.304  1.00142.12     0.149 C 
HETATM   23  C8  MIQ B 502     -16.378  -2.952  10.516  1.00144.10     0.187 C 
HETATM   24  O9  MIQ B 502     -16.887  -4.190  10.914  1.00148.65    -0.388 OA
HETATM   25  C10 MIQ B 502     -16.410  -4.812  12.070  1.00147.44     0.187 C 
HETATM   26  C11 MIQ B 502     -15.917  -3.938  13.219  1.00144.08     0.149 C 
ENDBRANCH   5  21
TORSDOF 2
ENDMDL
MODEL 2
REMARK VINA RESULT:      -6.9      1.891      8.654
REMARK  2 active torsions:
REMARK  status: ('A' for Active; 'I' for Inactive)
REMARK    1  A    between atoms: C5_5  and  N6_21 
REMARK    2  A    between atoms: C18_14  and  N17_19 
ROOT
HETATM    1  O1  MIQ B 502     -17.707  -1.103  14.819  1.00142.91    -0.171 OA
HETATM    2  C2  MIQ B 502     -16.519  -1.395  14.145  1.00141.17     0.195 A 
HETATM    3  C3  MIQ B 502     -15.100  -0.844  14.495  1.00141.71     0.035 A 
HETATM    4  C4  MIQ B 502     -14.593   0.070  15.547  1.00142.86     0.046 A 
HETATM    5  C5  MIQ B 502     -13.214   0.391  15.613  1.00139.53     0.031 A 
HETATM    6  C12 MIQ B 502     -12.291  -0.181  14.642  1.00139.38     0.030 A 
HETATM    7  C13 MIQ B 502     -12.777  -1.058  13.635  1.00141.18     0.019 A 
HETATM    8  C14 MIQ B 502     -14.226  -1.393  13.572  1.00138.77     0.033 A 
HETATM    9  C15 MIQ B 502     -15.107  -2.291  12.643  1.00142.10     0.195 A 
HETATM   10  N17 MIQ B 502     -16.345  -2.182  13.097  1.00139.42    -0.288 N 
HETATM   11  O16 MIQ B 502     -14.671  -3.049  11.555  1.00148.93    -0.171 OA
ENDROOT
BRANCH  10  12
HETATM   12  C18 MIQ B 502     -17.449  -2.876  12.461  1.00139.82     0.187 C 
HETATM   13  C19 MIQ B 502     -17.102  -4.369  12.421  1.00140.06     0.247 C 
HETATM   14  O25 MIQ B 502     -16.757  -4.907  13.413  1.00143.95    -0.271 OA
HETATM   15  N20 MIQ B 502     -17.192  -5.142  11.200  1.00140.02    -0.296 N 
HETATM   16  H13 MIQ B 502     -16.956  -6.115  11.186  1.00142.77     0.171 HD
HETATM   17  C21 MIQ B 502     -17.605  -4.461  10.000  1.00142.22     0.224 C 
HETATM   18  C22 MIQ B 502     -17.182  -3.012   9.859  1.00139.52     0.106 C 
HETATM   19  O24 MIQ B 502     -18.245  -5.006   9.169  1.00146.13    -0.273 OA
HETATM   20  C23 MIQ B 502     -17.721  -2.286  11.078  1.00139.15     0.045 C 
ENDBRANCH  10  12
BRANCH   5  21
HETATM   21  N6  MIQ B 502     -12.733   1.299  16.639  1.00140.95    -0.377 N 
HETATM   22  C7  MIQ B 502     -11.384   1.825  16.524  1.00142.12     0.149 C 
HETATM   23  C8  MIQ B 502     -10.799   2.191  17.882  1.00144.10     0.187 C 
HETATM   24  O9  MIQ B 502     -11.672   2.952  18.662  1.00148.65    -0.388 OA
HETATM   25  C10 MIQ B 502     -13.004   3.120  18.275  1.00147.44     0.187 C 
HETATM   26  C11 MIQ B 502     -13.680   2.004  17.485  1.00144.08     0.149 C 
ENDBRANCH   5  21
TORSDOF 2
ENDMDL
MODEL 3
REMARK VINA RESULT:      -6.9      4.359      5.281
REMARK  2 active torsions:
REMARK  status: ('A' for Active; 'I' for Inactive)
REMARK    1  A    between atoms: C5_5  and  N6_21 
REMARK    2  A    between atoms: C18_14  and  N17_19 
ROOT
HETATM    1  O1  MIQ B 502     -15.366   2.773  15.139  1.00142.91    -0.171 OA
HETATM    2  C2  MIQ B 502     -16.736   2.566  15.315  1.00141.17     0.195 A 
HETATM    3  C3  MIQ B 502     -17.743   2.081  14.224  1.00141.71     0.035 A 
HETATM    4  C4  MIQ B 502     -17.599   1.715  12.795  1.00142.86     0.046 A 
HETATM    5  C5  MIQ B 502     -18.727   1.300  12.044  1.00139.53     0.031 A 
HETATM    6  C12 MIQ B 502     -20.034   1.232  12.682  1.00139.38     0.030 A 
HETATM    7  C13 MIQ B 502     -20.173   1.582  14.052  1.00141.18     0.019 A 
HETATM    8  C14 MIQ B 502     -18.984   2.015  14.836  1.00138.77     0.033 A 
HETATM    9  C15 MIQ B 502     -18.746   2.461  16.316  1.00142.10     0.195 A 
HETATM   10  N17 MIQ B 502     -17.454   2.727  16.414  1.00139.42    -0.288 N 
HETATM   11  O16 MIQ B 502     -19.707   2.559  17.324  1.00148.93    -0.171 OA
ENDROOT
BRANCH  10  12
HETATM   12  C18 MIQ B 502     -16.868   3.189  17.658  1.00139.82     0.187 C 
HETATM   13  C19 MIQ B 502     -16.059   4.455  17.351  1.00140.06     0.247 C 
HETATM   14  O25 MIQ B 502     -16.568   5.334  16.751  1.00143.95    -0.271 OA
HETATM   15  N20 MIQ B 502     -14.684   4.606  17.784  1.00140.02    -0.296 N 
HETATM   16  H13 MIQ B 502     -14.164   5.435  17.572  1.00142.77     0.171 HD
HETATM   17  C21 MIQ B 502     -14.081   3.516  18.506  1.00142.22     0.224 C 
HETATM   18  C22 MIQ B 502     -14.525   2.117  18.124  1.00139.52     0.106 C 
HETATM   19  O24 MIQ B 502     -13.283   3.705  19.357  1.00146.13    -0.273 OA
HETATM   20  C23 MIQ B 502     -16.033   2.081  18.297  1.00139.15     0.045 C 
ENDBRANCH  10  12
BRANCH   5  21
HETATM   21  N6  MIQ B 502     -18.574   0.959  10.641  1.00140.95    -0.377 N 
HETATM   22  C7  MIQ B 502     -18.732   2.009   9.650  1.00142.12     0.149 C 
HETATM   23  C8  MIQ B 502     -19.184   1.457   8.304  1.00144.10     0.187 C 
HETATM   24  O9  MIQ B 502     -18.436   0.353   7.890  1.00148.65    -0.388 OA
HETATM   25  C10 MIQ B 502     -17.546  -0.269   8.770  1.00147.44     0.187 C 
HETATM   26  C11 MIQ B 502     -17.860  -0.248  10.262  1.00144.08     0.149 C 
ENDBRANCH   5  21
TORSDOF 2
ENDMDL
MODEL 4
REMARK VINA RESULT:      -6.7     18.661     20.970
REMARK  2 active torsions:
REMARK  status: ('A' for Active; 'I' for Inactive)
REMARK    1  A    between atoms: C5_5  and  N6_21 
REMARK    2  A    between atoms: C18_14  and  N17_19 
ROOT
HETATM    1  O1  MIQ B 502      -8.351  11.455   2.923  1.00142.91    -0.171 OA
HETATM    2  C2  MIQ B 502      -7.479  12.535   2.765  1.00141.17     0.195 A 
HETATM    3  C3  MIQ B 502      -6.809  13.354   3.914  1.00141.71     0.035 A 
HETATM    4  C4  MIQ B 502      -6.864  13.268   5.393  1.00142.86     0.046 A 
HETATM    5  C5  MIQ B 502      -6.123  14.176   6.192  1.00139.53     0.031 A 
HETATM    6  C12 MIQ B 502      -5.305  15.198   5.554  1.00139.38     0.030 A 
HETATM    7  C13 MIQ B 502      -5.252  15.280   4.137  1.00141.18     0.019 A 
HETATM    8  C14 MIQ B 502      -6.029  14.323   3.303  1.00138.77     0.033 A 
HETATM    9  C15 MIQ B 502      -6.216  14.103   1.767  1.00142.10     0.195 A 
HETATM   10  N17 MIQ B 502      -7.043  13.078   1.642  1.00139.42    -0.288 N 
HETATM   11  O16 MIQ B 502      -5.629  14.844   0.739  1.00148.93    -0.171 OA
ENDROOT
BRANCH  10  12
HETATM   12  C18 MIQ B 502      -7.460  12.596   0.338  1.00139.82     0.187 C 
HETATM   13  C19 MIQ B 502      -8.863  13.151   0.061  1.00140.06     0.247 C 
HETATM   14  O25 MIQ B 502      -9.059  14.308   0.187  1.00143.95    -0.271 OA
HETATM   15  N20 MIQ B 502      -9.954  12.296  -0.357  1.00140.02    -0.296 N 
HETATM   16  H13 MIQ B 502     -10.867  12.670  -0.528  1.00142.77     0.171 HD
HETATM   17  C21 MIQ B 502      -9.692  10.886  -0.493  1.00142.22     0.224 C 
HETATM   18  C22 MIQ B 502      -8.685  10.285   0.468  1.00139.52     0.106 C 
HETATM   19  O24 MIQ B 502     -10.233  10.234  -1.316  1.00146.13    -0.273 OA
HETATM   20  C23 MIQ B 502      -7.398  11.070   0.291  1.00139.15     0.045 C 
ENDBRANCH  10  12
BRANCH   5  21
HETATM   21  N6  MIQ B 502      -6.198  14.089   7.639  1.00140.95    -0.377 N 
HETATM   22  C7  MIQ B 502      -6.110  12.780   8.261  1.00142.12     0.149 C 
HETATM   23  C8  MIQ B 502      -6.818  12.743   9.610  1.00144.10     0.187 C 
HETATM   24  O9  MIQ B 502      -6.478  13.818  10.432  1.00148.65    -0.388 OA
HETATM   25  C10 MIQ B 502      -5.749  14.896   9.922  1.00147.44     0.187 C 
HETATM   26  C11 MIQ B 502      -5.918  15.260   8.451  1.00144.08     0.149 C 
ENDBRANCH   5  21
TORSDOF 2
ENDMDL
MODEL 5
REMARK VINA RESULT:      -6.5     26.775     31.434
REMARK  2 active torsions:
REMARK  status: ('A' for Active; 'I' for Inactive)
REMARK    1  A    between atoms: C5_5  and  N6_21 
REMARK    2  A    between atoms: C18_14  and  N17_19 
ROOT
HETATM    1  O1  MIQ B 502     -21.059   4.963 -11.415  1.00142.91    -0.171 OA
HETATM    2  C2  MIQ B 502     -21.952   4.926 -12.489  1.00141.17     0.195 A 
HETATM    3  C3  MIQ B 502     -21.585   5.086 -13.999  1.00141.71     0.035 A 
HETATM    4  C4  MIQ B 502     -20.309   5.303 -14.720  1.00142.86     0.046 A 
HETATM    5  C5  MIQ B 502     -20.293   5.409 -16.134  1.00139.53     0.031 A 
HETATM    6  C12 MIQ B 502     -21.539   5.304 -16.880  1.00139.38     0.030 A 
HETATM    7  C13 MIQ B 502     -22.763   5.095 -16.188  1.00141.18     0.019 A 
HETATM    8  C14 MIQ B 502     -22.773   4.982 -14.704  1.00138.77     0.033 A 
HETATM    9  C15 MIQ B 502     -23.883   4.755 -13.626  1.00142.10     0.195 A 
HETATM   10  N17 MIQ B 502     -23.261   4.748 -12.459  1.00139.42    -0.288 N 
HETATM   11  O16 MIQ B 502     -25.250   4.596 -13.856  1.00148.93    -0.171 OA
ENDROOT
BRANCH  10  12
HETATM   12  C18 MIQ B 502     -23.988   4.575 -11.215  1.00139.82     0.187 C 
HETATM   13  C19 MIQ B 502     -23.644   5.759 -10.303  1.00140.06     0.247 C 
HETATM   14  O25 MIQ B 502     -23.744   6.857 -10.722  1.00143.95    -0.271 OA
HETATM   15  N20 MIQ B 502     -23.204   5.568  -8.936  1.00140.02    -0.296 N 
HETATM   16  H13 MIQ B 502     -22.976   6.349  -8.353  1.00142.77     0.171 HD
HETATM   17  C21 MIQ B 502     -23.080   4.218  -8.450  1.00142.22     0.224 C 
HETATM   18  C22 MIQ B 502     -22.651   3.168  -9.457  1.00139.52     0.106 C 
HETATM   19  O24 MIQ B 502     -23.307   3.943  -7.324  1.00146.13    -0.273 OA
HETATM   20  C23 MIQ B 502     -23.659   3.220 -10.591  1.00139.15     0.045 C 
ENDBRANCH  10  12
BRANCH   5  21
HETATM   21  N6  MIQ B 502     -19.038   5.636 -16.826  1.00140.95    -0.377 N 
HETATM   22  C7  MIQ B 502     -18.972   5.366 -18.252  1.00142.12     0.149 C 
HETATM   23  C8  MIQ B 502     -17.559   5.019 -18.700  1.00144.10     0.187 C 
HETATM   24  O9  MIQ B 502     -16.601   5.913 -18.218  1.00148.65    -0.388 OA
HETATM   25  C10 MIQ B 502     -16.940   6.857 -17.245  1.00147.44     0.187 C 
HETATM   26  C11 MIQ B 502     -18.035   6.509 -16.242  1.00144.08     0.149 C 
ENDBRANCH   5  21
TORSDOF 2
ENDMDL
MODEL 6
REMARK VINA RESULT:      -6.4      3.993      7.490
REMARK  2 active torsions:
REMARK  status: ('A' for Active; 'I' for Inactive)
REMARK    1  A    between atoms: C5_5  and  N6_21 
REMARK    2  A    between atoms: C18_14  and  N17_19 
ROOT
HETATM    1  O1  MIQ B 502     -16.897   3.138  17.696  1.00142.91    -0.171 OA
HETATM    2  C2  MIQ B 502     -16.381   2.316  16.691  1.00141.17     0.195 A 
HETATM    3  C3  MIQ B 502     -14.933   1.733  16.630  1.00141.71     0.035 A 
HETATM    4  C4  MIQ B 502     -13.753   1.841  17.519  1.00142.86     0.046 A 
HETATM    5  C5  MIQ B 502     -12.544   1.178  17.188  1.00139.53     0.031 A 
HETATM    6  C12 MIQ B 502     -12.463   0.388  15.968  1.00139.38     0.030 A 
HETATM    7  C13 MIQ B 502     -13.595   0.284  15.116  1.00141.18     0.019 A 
HETATM    8  C14 MIQ B 502     -14.862   0.980  15.469  1.00138.77     0.033 A 
HETATM    9  C15 MIQ B 502     -16.274   1.095  14.807  1.00142.10     0.195 A 
HETATM   10  N17 MIQ B 502     -16.992   1.864  15.610  1.00139.42    -0.288 N 
HETATM   11  O16 MIQ B 502     -16.687   0.506  13.611  1.00148.93    -0.171 OA
ENDROOT
BRANCH  10  12
HETATM   12  C18 MIQ B 502     -18.368   2.206  15.300  1.00139.82     0.187 C 
HETATM   13  C19 MIQ B 502     -18.496   3.733  15.365  1.00140.06     0.247 C 
HETATM   14  O25 MIQ B 502     -17.731   4.401  14.765  1.00143.95    -0.271 OA
HETATM   15  N20 MIQ B 502     -19.537   4.380  16.138  1.00140.02    -0.296 N 
HETATM   16  H13 MIQ B 502     -19.606   5.377  16.178  1.00142.77     0.171 HD
HETATM   17  C21 MIQ B 502     -20.452   3.543  16.870  1.00142.22     0.224 C 
HETATM   18  C22 MIQ B 502     -19.894   2.247  17.427  1.00139.52     0.106 C 
HETATM   19  O24 MIQ B 502     -21.583   3.850  17.022  1.00146.13    -0.273 OA
HETATM   20  C23 MIQ B 502     -19.322   1.482  16.249  1.00139.15     0.045 C 
ENDBRANCH  10  12
BRANCH   5  21
HETATM   21  N6  MIQ B 502     -11.391   1.304  18.061  1.00140.95    -0.377 N 
HETATM   22  C7  MIQ B 502     -10.541   2.475  17.926  1.00142.12     0.149 C 
HETATM   23  C8  MIQ B 502      -9.114   2.198  18.379  1.00144.10     0.187 C 
HETATM   24  O9  MIQ B 502      -9.052   1.556  19.617  1.00148.65    -0.388 OA
HETATM   25  C10 MIQ B 502     -10.210   1.042  20.207  1.00147.44     0.187 C 
HETATM   26  C11 MIQ B 502     -11.333   0.549  19.300  1.00144.08     0.149 C 
ENDBRANCH   5  21
TORSDOF 2
ENDMDL
MODEL 7
REMARK VINA RESULT:      -6.4      1.407      2.572
REMARK  2 active torsions:
REMARK  status: ('A' for Active; 'I' for Inactive)
REMARK    1  A    between atoms: C5_5  and  N6_21 
REMARK    2  A    between atoms: C18_14  and  N17_19 
ROOT
HETATM    1  O1  MIQ B 502     -11.596   1.794  15.592  1.00142.91    -0.171 OA
HETATM    2  C2  MIQ B 502     -12.483   1.160  16.465  1.00141.17     0.195 A 
HETATM    3  C3  MIQ B 502     -13.487   0.023  16.093  1.00141.71     0.035 A 
HETATM    4  C4  MIQ B 502     -13.799  -0.689  14.831  1.00142.86     0.046 A 
HETATM    5  C5  MIQ B 502     -14.788  -1.705  14.806  1.00139.53     0.031 A 
HETATM    6  C12 MIQ B 502     -15.499  -2.050  16.029  1.00139.38     0.030 A 
HETATM    7  C13 MIQ B 502     -15.200  -1.369  17.239  1.00141.18     0.019 A 
HETATM    8  C14 MIQ B 502     -14.159  -0.305  17.259  1.00138.77     0.033 A 
HETATM    9  C15 MIQ B 502     -13.568   0.634  18.361  1.00142.10     0.195 A 
HETATM   10  N17 MIQ B 502     -12.655   1.376  17.758  1.00139.42    -0.288 N 
HETATM   11  O16 MIQ B 502     -13.936   0.678  19.707  1.00148.93    -0.171 OA
ENDROOT
BRANCH  10  12
HETATM   12  C18 MIQ B 502     -11.902   2.386  18.478  1.00139.82     0.187 C 
HETATM   13  C19 MIQ B 502     -11.254   1.708  19.692  1.00140.06     0.247 C 
HETATM   14  O25 MIQ B 502     -10.629   0.721  19.535  1.00143.95    -0.271 OA
HETATM   15  N20 MIQ B 502     -11.385   2.251  21.029  1.00140.02    -0.296 N 
HETATM   16  H13 MIQ B 502     -10.963   1.796  21.814  1.00142.77     0.171 HD
HETATM   17  C21 MIQ B 502     -12.162   3.451  21.197  1.00142.22     0.224 C 
HETATM   18  C22 MIQ B 502     -13.350   3.629  20.271  1.00139.52     0.106 C 
HETATM   19  O24 MIQ B 502     -11.883   4.259  22.013  1.00146.13    -0.273 OA
HETATM   20  C23 MIQ B 502     -12.808   3.557  18.855  1.00139.15     0.045 C 
ENDBRANCH  10  12
BRANCH   5  21
HETATM   21  N6  MIQ B 502     -15.094  -2.383  13.560  1.00140.95    -0.377 N 
HETATM   22  C7  MIQ B 502     -14.280  -2.092  12.393  1.00142.12     0.149 C 
HETATM   23  C8  MIQ B 502     -15.044  -2.321  11.095  1.00144.10     0.187 C 
HETATM   24  O9  MIQ B 502     -15.711  -3.547  11.066  1.00148.65    -0.388 OA
HETATM   25  C10 MIQ B 502     -15.818  -4.322  12.224  1.00147.44     0.187 C 
HETATM   26  C11 MIQ B 502     -15.866  -3.613  13.574  1.00144.08     0.149 C 
ENDBRANCH   5  21
TORSDOF 2
ENDMDL
MODEL 8
REMARK VINA RESULT:      -6.4      1.155      1.319
REMARK  2 active torsions:
REMARK  status: ('A' for Active; 'I' for Inactive)
REMARK    1  A    between atoms: C5_5  and  N6_21 
REMARK    2  A    between atoms: C18_14  and  N17_19 
ROOT
HETATM    1  O1  MIQ B 502     -15.361   0.095  18.906  1.00142.91    -0.171 OA
HETATM    2  C2  MIQ B 502     -14.236   0.286  18.101  1.00141.17     0.195 A 
HETATM    3  C3  MIQ B 502     -14.065  -0.197  16.625  1.00141.71     0.035 A 
HETATM    4  C4  MIQ B 502     -14.944  -0.934  15.686  1.00142.86     0.046 A 
HETATM    5  C5  MIQ B 502     -14.499  -1.233  14.373  1.00139.53     0.031 A 
HETATM    6  C12 MIQ B 502     -13.172  -0.812  13.946  1.00139.38     0.030 A 
HETATM    7  C13 MIQ B 502     -12.330  -0.104  14.846  1.00141.18     0.019 A 
HETATM    8  C14 MIQ B 502     -12.803   0.209  16.222  1.00138.77     0.033 A 
HETATM    9  C15 MIQ B 502     -12.187   0.948  17.455  1.00142.10     0.195 A 
HETATM   10  N17 MIQ B 502     -13.107   0.903  18.404  1.00139.42    -0.288 N 
HETATM   11  O16 MIQ B 502     -10.921   1.531  17.532  1.00148.93    -0.171 OA
ENDROOT
BRANCH  10  12
HETATM   12  C18 MIQ B 502     -12.873   1.484  19.713  1.00139.82     0.187 C 
HETATM   13  C19 MIQ B 502     -12.327   2.902  19.505  1.00140.06     0.247 C 
HETATM   14  O25 MIQ B 502     -12.906   3.643  18.791  1.00143.95    -0.271 OA
HETATM   15  N20 MIQ B 502     -11.122   3.362  20.165  1.00140.02    -0.296 N 
HETATM   16  H13 MIQ B 502     -10.773   4.288  20.015  1.00142.77     0.171 HD
HETATM   17  C21 MIQ B 502     -10.428   2.436  21.022  1.00142.22     0.224 C 
HETATM   18  C22 MIQ B 502     -10.471   0.974  20.623  1.00139.52     0.106 C 
HETATM   19  O24 MIQ B 502      -9.859   2.800  21.992  1.00146.13    -0.273 OA
HETATM   20  C23 MIQ B 502     -11.937   0.594  20.530  1.00139.15     0.045 C 
ENDBRANCH  10  12
BRANCH   5  21
HETATM   21  N6  MIQ B 502     -15.364  -1.969  13.469  1.00140.95    -0.377 N 
HETATM   22  C7  MIQ B 502     -15.103  -3.382  13.254  1.00142.12     0.149 C 
HETATM   23  C8  MIQ B 502     -15.601  -3.851  11.893  1.00144.10     0.187 C 
HETATM   24  O9  MIQ B 502     -16.906  -3.437  11.620  1.00148.65    -0.388 OA
HETATM   25  C10 MIQ B 502     -17.538  -2.501  12.442  1.00147.44     0.187 C 
HETATM   26  C11 MIQ B 502     -16.683  -1.453  13.147  1.00144.08     0.149 C 
ENDBRANCH   5  21
TORSDOF 2
ENDMDL
MODEL 9
REMARK VINA RESULT:      -6.4      1.629      2.200
REMARK  2 active torsions:
REMARK  status: ('A' for Active; 'I' for Inactive)
REMARK    1  A    between atoms: C5_5  and  N6_21 
REMARK    2  A    between atoms: C18_14  and  N17_19 
ROOT
HETATM    1  O1  MIQ B 502     -15.619  -0.229  18.121  1.00142.91    -0.171 OA
HETATM    2  C2  MIQ B 502     -14.475   0.001  17.353  1.00141.17     0.195 A 
HETATM    3  C3  MIQ B 502     -14.195  -0.564  15.924  1.00141.71     0.035 A 
HETATM    4  C4  MIQ B 502     -14.964  -1.434  15.004  1.00142.86     0.046 A 
HETATM    5  C5  MIQ B 502     -14.433  -1.783  13.736  1.00139.53     0.031 A 
HETATM    6  C12 MIQ B 502     -13.126  -1.281  13.337  1.00139.38     0.030 A 
HETATM    7  C13 MIQ B 502     -12.389  -0.446  14.219  1.00141.18     0.019 A 
HETATM    8  C14 MIQ B 502     -12.952  -0.081  15.548  1.00138.77     0.033 A 
HETATM    9  C15 MIQ B 502     -12.458   0.788  16.750  1.00142.10     0.195 A 
HETATM   10  N17 MIQ B 502     -13.416   0.731  17.660  1.00139.42    -0.288 N 
HETATM   11  O16 MIQ B 502     -11.249   1.481  16.839  1.00148.93    -0.171 OA
ENDROOT
BRANCH  10  12
HETATM   12  C18 MIQ B 502     -13.294   1.416  18.933  1.00139.82     0.187 C 
HETATM   13  C19 MIQ B 502     -13.545   0.389  20.044  1.00140.06     0.247 C 
HETATM   14  O25 MIQ B 502     -12.949  -0.629  20.033  1.00143.95    -0.271 OA
HETATM   15  N20 MIQ B 502     -14.492   0.636  21.112  1.00140.02    -0.296 N 
HETATM   16  H13 MIQ B 502     -14.652  -0.045  21.828  1.00142.77     0.171 HD
HETATM   17  C21 MIQ B 502     -15.215   1.882  21.098  1.00142.22     0.224 C 
HETATM   18  C22 MIQ B 502     -15.560   2.454  19.736  1.00139.52     0.106 C 
HETATM   19  O24 MIQ B 502     -15.519   2.431  22.099  1.00146.13    -0.273 OA
HETATM   20  C23 MIQ B 502     -14.248   2.608  18.989  1.00139.15     0.045 C 
ENDBRANCH  10  12
BRANCH   5  21
HETATM   21  N6  MIQ B 502     -15.191  -2.648  12.851  1.00140.95    -0.377 N 
HETATM   22  C7  MIQ B 502     -15.054  -2.466  11.416  1.00142.12     0.149 C 
HETATM   23  C8  MIQ B 502     -16.295  -2.927  10.662  1.00144.10     0.187 C 
HETATM   24  O9  MIQ B 502     -16.736  -4.190  11.064  1.00148.65    -0.388 OA
HETATM   25  C10 MIQ B 502     -16.195  -4.801  12.198  1.00147.44     0.187 C 
HETATM   26  C11 MIQ B 502     -15.704  -3.916  13.339  1.00144.08     0.149 C 
ENDBRANCH   5  21
TORSDOF 2
ENDMDL
