MODEL 1
REMARK VINA RESULT:      -6.9      0.000      0.000
REMARK  2 active torsions:
REMARK  status: ('A' for Active; 'I' for Inactive)
REMARK    1  A    between atoms: C5_5  and  N6_21 
REMARK    2  A    between atoms: C18_14  and  N17_19 
ROOT
HETATM    1  O1  MIQ B 502     -19.231   7.367 -17.796  1.00142.91    -0.171 OA
HETATM    2  C2  MIQ B 502     -19.627   6.357 -16.917  1.00141.17     0.195 A 
HETATM    3  C3  MIQ B 502     -21.077   5.802 -16.742  1.00141.71     0.035 A 
HETATM    4  C4  MIQ B 502     -22.375   6.124 -17.381  1.00142.86     0.046 A 
HETATM    5  C5  MIQ B 502     -23.551   5.429 -17.004  1.00139.53     0.031 A 
HETATM    6  C12 MIQ B 502     -23.483   4.394 -15.982  1.00139.38     0.030 A 
HETATM    7  C13 MIQ B 502     -22.238   4.084 -15.370  1.00141.18     0.019 A 
HETATM    8  C14 MIQ B 502     -21.006   4.815 -15.772  1.00138.77     0.033 A 
HETATM    9  C15 MIQ B 502     -19.503   4.756 -15.343  1.00142.10     0.195 A 
HETATM   10  N17 MIQ B 502     -18.880   5.668 -16.071  1.00139.42    -0.288 N 
HETATM   11  O16 MIQ B 502     -18.941   3.913 -14.384  1.00148.93    -0.171 OA
ENDROOT
BRANCH  10  12
HETATM   12  C18 MIQ B 502     -17.456   5.907 -15.928  1.00139.82     0.187 C 
HETATM   13  C19 MIQ B 502     -17.256   7.406 -15.672  1.00140.06     0.247 C 
HETATM   14  O25 MIQ B 502     -17.879   7.932 -14.819  1.00143.95    -0.271 OA
HETATM   15  N20 MIQ B 502     -16.319   8.195 -16.444  1.00140.02    -0.296 N 
HETATM   16  H13 MIQ B 502     -16.203   9.174 -16.272  1.00142.77     0.171 HD
HETATM   17  C21 MIQ B 502     -15.578   7.532 -17.486  1.00142.22     0.224 C 
HETATM   18  C22 MIQ B 502     -16.286   6.407 -18.217  1.00139.52     0.106 C 
HETATM   19  O24 MIQ B 502     -14.470   7.847 -17.753  1.00146.13    -0.273 OA
HETATM   20  C23 MIQ B 502     -16.705   5.402 -17.159  1.00139.15     0.045 C 
ENDBRANCH  10  12
BRANCH   5  21
HETATM   21  N6  MIQ B 502     -24.818   5.765 -17.627  1.00140.95    -0.377 N 
HETATM   22  C7  MIQ B 502     -25.765   6.578 -16.884  1.00142.12     0.149 C 
HETATM   23  C8  MIQ B 502     -27.201   6.321 -17.321  1.00144.10     0.187 C 
HETATM   24  O9  MIQ B 502     -27.359   6.341 -18.708  1.00148.65    -0.388 OA
HETATM   25  C10 MIQ B 502     -26.242   6.361 -19.547  1.00147.44     0.187 C 
HETATM   26  C11 MIQ B 502     -24.959   5.687 -19.071  1.00144.08     0.149 C 
ENDBRANCH   5  21
TORSDOF 2
ENDMDL
MODEL 2
REMARK VINA RESULT:      -6.7     21.991     24.159
REMARK  2 active torsions:
REMARK  status: ('A' for Active; 'I' for Inactive)
REMARK    1  A    between atoms: C5_5  and  N6_21 
REMARK    2  A    between atoms: C18_14  and  N17_19 
ROOT
HETATM    1  O1  MIQ B 502     -15.832   2.687   7.170  1.00142.91    -0.171 OA
HETATM    2  C2  MIQ B 502     -17.152   3.128   7.051  1.00141.17     0.195 A 
HETATM    3  C3  MIQ B 502     -17.687   4.168   6.015  1.00141.71     0.035 A 
HETATM    4  C4  MIQ B 502     -17.046   4.947   4.930  1.00142.86     0.046 A 
HETATM    5  C5  MIQ B 502     -17.814   5.835   4.135  1.00139.53     0.031 A 
HETATM    6  C12 MIQ B 502     -19.241   5.981   4.387  1.00139.38     0.030 A 
HETATM    7  C13 MIQ B 502     -19.856   5.233   5.427  1.00141.18     0.019 A 
HETATM    8  C14 MIQ B 502     -19.045   4.300   6.257  1.00138.77     0.033 A 
HETATM    9  C15 MIQ B 502     -19.355   3.337   7.449  1.00142.10     0.195 A 
HETATM   10  N17 MIQ B 502     -18.204   2.766   7.765  1.00139.42    -0.288 N 
HETATM   11  O16 MIQ B 502     -20.595   3.128   8.054  1.00148.93    -0.171 OA
ENDROOT
BRANCH  10  12
HETATM   12  C18 MIQ B 502     -18.107   1.811   8.853  1.00139.82     0.187 C 
HETATM   13  C19 MIQ B 502     -16.990   2.283   9.792  1.00140.06     0.247 C 
HETATM   14  O25 MIQ B 502     -16.998   3.396  10.182  1.00143.95    -0.271 OA
HETATM   15  N20 MIQ B 502     -15.925   1.398  10.218  1.00140.02    -0.296 N 
HETATM   16  H13 MIQ B 502     -15.198   1.721  10.826  1.00142.77     0.171 HD
HETATM   17  C21 MIQ B 502     -15.931   0.047   9.719  1.00142.22     0.224 C 
HETATM   18  C22 MIQ B 502     -16.467  -0.159   8.315  1.00139.52     0.106 C 
HETATM   19  O24 MIQ B 502     -15.541  -0.855  10.375  1.00146.13    -0.273 OA
HETATM   20  C23 MIQ B 502     -17.877   0.403   8.306  1.00139.15     0.045 C 
ENDBRANCH  10  12
BRANCH   5  21
HETATM   21  N6  MIQ B 502     -17.170   6.604   3.085  1.00140.95    -0.377 N 
HETATM   22  C7  MIQ B 502     -17.874   7.747   2.530  1.00142.12     0.149 C 
HETATM   23  C8  MIQ B 502     -17.441   8.041   1.099  1.00144.10     0.187 C 
HETATM   24  O9  MIQ B 502     -16.054   8.062   0.944  1.00148.65    -0.388 OA
HETATM   25  C10 MIQ B 502     -15.220   7.619   1.974  1.00147.44     0.187 C 
HETATM   26  C11 MIQ B 502     -15.731   6.525   2.907  1.00144.08     0.149 C 
ENDBRANCH   5  21
TORSDOF 2
ENDMDL
MODEL 3
REMARK VINA RESULT:      -6.6     19.796     21.457
REMARK  2 active torsions:
REMARK  status: ('A' for Active; 'I' for Inactive)
REMARK    1  A    between atoms: C5_5  and  N6_21 
REMARK    2  A    between atoms: C18_14  and  N17_19 
ROOT
HETATM    1  O1  MIQ B 502     -16.165   4.590   3.622  1.00142.91    -0.171 OA
HETATM    2  C2  MIQ B 502     -17.517   4.843   3.862  1.00141.17     0.195 A 
HETATM    3  C3  MIQ B 502     -18.256   6.200   3.635  1.00141.71     0.035 A 
HETATM    4  C4  MIQ B 502     -17.820   7.528   3.141  1.00142.86     0.046 A 
HETATM    5  C5  MIQ B 502     -18.747   8.595   3.042  1.00139.53     0.031 A 
HETATM    6  C12 MIQ B 502     -20.135   8.385   3.428  1.00139.38     0.030 A 
HETATM    7  C13 MIQ B 502     -20.554   7.113   3.902  1.00141.18     0.019 A 
HETATM    8  C14 MIQ B 502     -19.576   5.995   4.001  1.00138.77     0.033 A 
HETATM    9  C15 MIQ B 502     -19.657   4.501   4.457  1.00142.10     0.195 A 
HETATM   10  N17 MIQ B 502     -18.437   4.010   4.316  1.00139.42    -0.288 N 
HETATM   11  O16 MIQ B 502     -20.790   3.829   4.920  1.00148.93    -0.171 OA
ENDROOT
BRANCH  10  12
HETATM   12  C18 MIQ B 502     -18.130   2.635   4.663  1.00139.82     0.187 C 
HETATM   13  C19 MIQ B 502     -16.937   2.651   5.627  1.00140.06     0.247 C 
HETATM   14  O25 MIQ B 502     -16.975   3.348   6.578  1.00143.95    -0.271 OA
HETATM   15  N20 MIQ B 502     -15.765   1.829   5.405  1.00140.02    -0.296 N 
HETATM   16  H13 MIQ B 502     -14.990   1.854   6.038  1.00142.77     0.171 HD
HETATM   17  C21 MIQ B 502     -15.738   0.995   4.231  1.00142.22     0.224 C 
HETATM   18  C22 MIQ B 502     -16.436   1.533   2.997  1.00139.52     0.106 C 
HETATM   19  O24 MIQ B 502     -15.202  -0.058   4.234  1.00146.13    -0.273 OA
HETATM   20  C23 MIQ B 502     -17.872   1.812   3.402  1.00139.15     0.045 C 
ENDBRANCH  10  12
BRANCH   5  21
HETATM   21  N6  MIQ B 502     -18.304   9.894   2.569  1.00140.95    -0.377 N 
HETATM   22  C7  MIQ B 502     -16.877  10.132   2.430  1.00142.12     0.149 C 
HETATM   23  C8  MIQ B 502     -16.531  11.609   2.568  1.00144.10     0.187 C 
HETATM   24  O9  MIQ B 502     -17.352  12.434   1.797  1.00148.65    -0.388 OA
HETATM   25  C10 MIQ B 502     -18.493  11.918   1.179  1.00147.44     0.187 C 
HETATM   26  C11 MIQ B 502     -19.222  10.756   1.845  1.00144.08     0.149 C 
ENDBRANCH   5  21
TORSDOF 2
ENDMDL
MODEL 4
REMARK VINA RESULT:      -6.6      1.941      7.859
REMARK  2 active torsions:
REMARK  status: ('A' for Active; 'I' for Inactive)
REMARK    1  A    between atoms: C5_5  and  N6_21 
REMARK    2  A    between atoms: C18_14  and  N17_19 
ROOT
HETATM    1  O1  MIQ B 502     -22.186   7.814 -18.020  1.00142.91    -0.171 OA
HETATM    2  C2  MIQ B 502     -21.777   6.787 -17.167  1.00141.17     0.195 A 
HETATM    3  C3  MIQ B 502     -20.302   6.413 -16.813  1.00141.71     0.035 A 
HETATM    4  C4  MIQ B 502     -18.987   6.965 -17.217  1.00142.86     0.046 A 
HETATM    5  C5  MIQ B 502     -17.788   6.399 -16.714  1.00139.53     0.031 A 
HETATM    6  C12 MIQ B 502     -17.851   5.271 -15.796  1.00139.38     0.030 A 
HETATM    7  C13 MIQ B 502     -19.112   4.743 -15.408  1.00141.18     0.019 A 
HETATM    8  C14 MIQ B 502     -20.367   5.342 -15.937  1.00138.77     0.033 A 
HETATM    9  C15 MIQ B 502     -21.891   5.050 -15.745  1.00142.10     0.195 A 
HETATM   10  N17 MIQ B 502     -22.530   5.937 -16.490  1.00139.42    -0.288 N 
HETATM   11  O16 MIQ B 502     -22.457   4.051 -14.950  1.00148.93    -0.171 OA
ENDROOT
BRANCH  10  12
HETATM   12  C18 MIQ B 502     -23.979   5.955 -16.570  1.00139.82     0.187 C 
HETATM   13  C19 MIQ B 502     -24.365   5.945 -18.054  1.00140.06     0.247 C 
HETATM   14  O25 MIQ B 502     -23.895   5.129 -18.766  1.00143.95    -0.271 OA
HETATM   15  N20 MIQ B 502     -25.297   6.905 -18.608  1.00140.02    -0.296 N 
HETATM   16  H13 MIQ B 502     -25.536   6.891 -19.580  1.00142.77     0.171 HD
HETATM   17  C21 MIQ B 502     -25.850   7.897 -17.722  1.00142.22     0.224 C 
HETATM   18  C22 MIQ B 502     -24.951   8.387 -16.602  1.00139.52     0.106 C 
HETATM   19  O24 MIQ B 502     -26.951   8.303 -17.859  1.00146.13    -0.273 OA
HETATM   20  C23 MIQ B 502     -24.538   7.158 -15.812  1.00139.15     0.045 C 
ENDBRANCH  10  12
BRANCH   5  21
HETATM   21  N6  MIQ B 502     -16.506   6.939 -17.129  1.00140.95    -0.377 N 
HETATM   22  C7  MIQ B 502     -16.022   6.631 -18.464  1.00142.12     0.149 C 
HETATM   23  C8  MIQ B 502     -14.502   6.678 -18.542  1.00144.10     0.187 C 
HETATM   24  O9  MIQ B 502     -13.963   7.828 -17.963  1.00148.65    -0.388 OA
HETATM   25  C10 MIQ B 502     -14.767   8.682 -17.204  1.00147.44     0.187 C 
HETATM   26  C11 MIQ B 502     -15.944   8.086 -16.438  1.00144.08     0.149 C 
ENDBRANCH   5  21
TORSDOF 2
ENDMDL
MODEL 5
REMARK VINA RESULT:      -6.4     20.413     21.822
REMARK  2 active torsions:
REMARK  status: ('A' for Active; 'I' for Inactive)
REMARK    1  A    between atoms: C5_5  and  N6_21 
REMARK    2  A    between atoms: C18_14  and  N17_19 
ROOT
HETATM    1  O1  MIQ B 502     -19.669   3.482   5.455  1.00142.91    -0.171 OA
HETATM    2  C2  MIQ B 502     -19.135   4.604   4.817  1.00141.17     0.195 A 
HETATM    3  C3  MIQ B 502     -19.925   5.877   4.375  1.00141.71     0.035 A 
HETATM    4  C4  MIQ B 502     -21.348   6.279   4.476  1.00142.86     0.046 A 
HETATM    5  C5  MIQ B 502     -21.776   7.532   3.970  1.00139.53     0.031 A 
HETATM    6  C12 MIQ B 502     -20.812   8.429   3.350  1.00139.38     0.030 A 
HETATM    7  C13 MIQ B 502     -19.447   8.044   3.254  1.00141.18     0.019 A 
HETATM    8  C14 MIQ B 502     -19.003   6.728   3.788  1.00138.77     0.033 A 
HETATM    9  C15 MIQ B 502     -17.632   5.980   3.867  1.00142.10     0.195 A 
HETATM   10  N17 MIQ B 502     -17.880   4.826   4.465  1.00139.42    -0.288 N 
HETATM   11  O16 MIQ B 502     -16.401   6.440   3.398  1.00148.93    -0.171 OA
ENDROOT
BRANCH  10  12
HETATM   12  C18 MIQ B 502     -16.830   3.852   4.697  1.00139.82     0.187 C 
HETATM   13  C19 MIQ B 502     -17.303   2.509   4.129  1.00140.06     0.247 C 
HETATM   14  O25 MIQ B 502     -17.709   2.462   3.022  1.00143.95    -0.271 OA
HETATM   15  N20 MIQ B 502     -17.260   1.291   4.912  1.00140.02    -0.296 N 
HETATM   16  H13 MIQ B 502     -17.578   0.421   4.531  1.00142.77     0.171 HD
HETATM   17  C21 MIQ B 502     -16.770   1.375   6.263  1.00142.22     0.224 C 
HETATM   18  C22 MIQ B 502     -17.063   2.658   7.016  1.00139.52     0.106 C 
HETATM   19  O24 MIQ B 502     -16.164   0.488   6.757  1.00146.13    -0.273 OA
HETATM   20  C23 MIQ B 502     -16.484   3.788   6.184  1.00139.15     0.045 C 
ENDBRANCH  10  12
BRANCH   5  21
HETATM   21  N6  MIQ B 502     -23.176   7.907   4.062  1.00140.95    -0.377 N 
HETATM   22  C7  MIQ B 502     -23.659   8.489   5.303  1.00142.12     0.149 C 
HETATM   23  C8  MIQ B 502     -25.147   8.236   5.508  1.00144.10     0.187 C 
HETATM   24  O9  MIQ B 502     -25.909   8.528   4.375  1.00148.65    -0.388 OA
HETATM   25  C10 MIQ B 502     -25.287   8.791   3.152  1.00147.44     0.187 C 
HETATM   26  C11 MIQ B 502     -23.952   8.116   2.853  1.00144.08     0.149 C 
ENDBRANCH   5  21
TORSDOF 2
ENDMDL
MODEL 6
REMARK VINA RESULT:      -6.4     20.057     21.516
REMARK  2 active torsions:
REMARK  status: ('A' for Active; 'I' for Inactive)
REMARK    1  A    between atoms: C5_5  and  N6_21 
REMARK    2  A    between atoms: C18_14  and  N17_19 
ROOT
HETATM    1  O1  MIQ B 502     -17.288   6.521   3.588  1.00142.91    -0.171 OA
HETATM    2  C2  MIQ B 502     -18.379   5.765   4.021  1.00141.17     0.195 A 
HETATM    3  C3  MIQ B 502     -19.878   6.202   3.981  1.00141.71     0.035 A 
HETATM    4  C4  MIQ B 502     -20.570   7.429   3.518  1.00142.86     0.046 A 
HETATM    5  C5  MIQ B 502     -21.981   7.534   3.611  1.00139.53     0.031 A 
HETATM    6  C12 MIQ B 502     -22.753   6.431   4.164  1.00139.38     0.030 A 
HETATM    7  C13 MIQ B 502     -22.090   5.254   4.606  1.00141.18     0.019 A 
HETATM    8  C14 MIQ B 502     -20.609   5.148   4.504  1.00138.77     0.033 A 
HETATM    9  C15 MIQ B 502     -19.558   4.050   4.870  1.00142.10     0.195 A 
HETATM   10  N17 MIQ B 502     -18.379   4.548   4.538  1.00139.42    -0.288 N 
HETATM   11  O16 MIQ B 502     -19.818   2.800   5.435  1.00148.93    -0.171 OA
ENDROOT
BRANCH  10  12
HETATM   12  C18 MIQ B 502     -17.153   3.801   4.753  1.00139.82     0.187 C 
HETATM   13  C19 MIQ B 502     -17.320   2.428   4.092  1.00140.06     0.247 C 
HETATM   14  O25 MIQ B 502     -17.681   2.369   2.970  1.00143.95    -0.271 OA
HETATM   15  N20 MIQ B 502     -17.042   1.198   4.804  1.00140.02    -0.296 N 
HETATM   16  H13 MIQ B 502     -17.161   0.307   4.363  1.00142.77     0.171 HD
HETATM   17  C21 MIQ B 502     -16.614   1.295   6.176  1.00142.22     0.224 C 
HETATM   18  C22 MIQ B 502     -17.188   2.439   6.989  1.00139.52     0.106 C 
HETATM   19  O24 MIQ B 502     -15.848   0.524   6.640  1.00146.13    -0.273 OA
HETATM   20  C23 MIQ B 502     -16.838   3.715   6.246  1.00139.15     0.045 C 
ENDBRANCH  10  12
BRANCH   5  21
HETATM   21  N6  MIQ B 502     -22.643   8.748   3.169  1.00140.95    -0.377 N 
HETATM   22  C7  MIQ B 502     -21.835   9.927   2.914  1.00142.12     0.149 C 
HETATM   23  C8  MIQ B 502     -22.632  11.213   3.096  1.00144.10     0.187 C 
HETATM   24  O9  MIQ B 502     -23.867  11.184   2.445  1.00148.65    -0.388 OA
HETATM   25  C10 MIQ B 502     -24.355   9.991   1.906  1.00147.44     0.187 C 
HETATM   26  C11 MIQ B 502     -23.967   8.676   2.575  1.00144.08     0.149 C 
ENDBRANCH   5  21
TORSDOF 2
ENDMDL
MODEL 7
REMARK VINA RESULT:      -6.4     19.137     21.445
REMARK  2 active torsions:
REMARK  status: ('A' for Active; 'I' for Inactive)
REMARK    1  A    between atoms: C5_5  and  N6_21 
REMARK    2  A    between atoms: C18_14  and  N17_19 
ROOT
HETATM    1  O1  MIQ B 502     -16.000   4.543   3.880  1.00142.91    -0.171 OA
HETATM    2  C2  MIQ B 502     -17.148   5.326   4.021  1.00141.17     0.195 A 
HETATM    3  C3  MIQ B 502     -17.472   6.637   3.236  1.00141.71     0.035 A 
HETATM    4  C4  MIQ B 502     -16.753   7.404   2.191  1.00142.86     0.046 A 
HETATM    5  C5  MIQ B 502     -17.318   8.588   1.654  1.00139.53     0.031 A 
HETATM    6  C12 MIQ B 502     -18.612   9.053   2.133  1.00139.38     0.030 A 
HETATM    7  C13 MIQ B 502     -19.302   8.317   3.134  1.00141.18     0.019 A 
HETATM    8  C14 MIQ B 502     -18.705   7.073   3.692  1.00138.77     0.033 A 
HETATM    9  C15 MIQ B 502     -19.149   6.027   4.765  1.00142.10     0.195 A 
HETATM   10  N17 MIQ B 502     -18.180   5.129   4.823  1.00139.42    -0.288 N 
HETATM   11  O16 MIQ B 502     -20.330   6.043   5.511  1.00148.93    -0.171 OA
ENDROOT
BRANCH  10  12
HETATM   12  C18 MIQ B 502     -18.243   4.003   5.736  1.00139.82     0.187 C 
HETATM   13  C19 MIQ B 502     -16.979   4.032   6.603  1.00140.06     0.247 C 
HETATM   14  O25 MIQ B 502     -16.683   5.031   7.156  1.00143.95    -0.271 OA
HETATM   15  N20 MIQ B 502     -16.139   2.863   6.768  1.00140.02    -0.296 N 
HETATM   16  H13 MIQ B 502     -15.313   2.897   7.332  1.00142.77     0.171 HD
HETATM   17  C21 MIQ B 502     -16.516   1.658   6.075  1.00142.22     0.224 C 
HETATM   18  C22 MIQ B 502     -17.186   1.830   4.726  1.00139.52     0.106 C 
HETATM   19  O24 MIQ B 502     -16.316   0.590   6.539  1.00146.13    -0.273 OA
HETATM   20  C23 MIQ B 502     -18.410   2.698   4.960  1.00139.15     0.045 C 
ENDBRANCH  10  12
BRANCH   5  21
HETATM   21  N6  MIQ B 502     -16.595   9.337   0.642  1.00140.95    -0.377 N 
HETATM   22  C7  MIQ B 502     -16.195   8.652  -0.575  1.00142.12     0.149 C 
HETATM   23  C8  MIQ B 502     -14.965   9.290  -1.208  1.00144.10     0.187 C 
HETATM   24  O9  MIQ B 502     -15.064  10.679  -1.310  1.00148.65    -0.388 OA
HETATM   25  C10 MIQ B 502     -16.099  11.363  -0.667  1.00147.44     0.187 C 
HETATM   26  C11 MIQ B 502     -16.660  10.788   0.629  1.00144.08     0.149 C 
ENDBRANCH   5  21
TORSDOF 2
ENDMDL
MODEL 8
REMARK VINA RESULT:      -6.3     22.466     24.281
REMARK  2 active torsions:
REMARK  status: ('A' for Active; 'I' for Inactive)
REMARK    1  A    between atoms: C5_5  and  N6_21 
REMARK    2  A    between atoms: C18_14  and  N17_19 
ROOT
HETATM    1  O1  MIQ B 502     -16.427   4.590   7.301  1.00142.91    -0.171 OA
HETATM    2  C2  MIQ B 502     -17.512   3.712   7.247  1.00141.17     0.195 A 
HETATM    3  C3  MIQ B 502     -18.885   3.984   6.553  1.00141.71     0.035 A 
HETATM    4  C4  MIQ B 502     -19.435   5.136   5.800  1.00142.86     0.046 A 
HETATM    5  C5  MIQ B 502     -20.751   5.085   5.275  1.00139.53     0.031 A 
HETATM    6  C12 MIQ B 502     -21.565   3.895   5.477  1.00139.38     0.030 A 
HETATM    7  C13 MIQ B 502     -21.037   2.790   6.198  1.00141.18     0.019 A 
HETATM    8  C14 MIQ B 502     -19.654   2.848   6.745  1.00138.77     0.033 A 
HETATM    9  C15 MIQ B 502     -18.753   1.865   7.562  1.00142.10     0.195 A 
HETATM   10  N17 MIQ B 502     -17.605   2.494   7.753  1.00139.42    -0.288 N 
HETATM   11  O16 MIQ B 502     -19.097   0.585   8.000  1.00148.93    -0.171 OA
ENDROOT
BRANCH  10  12
HETATM   12  C18 MIQ B 502     -16.521   1.882   8.497  1.00139.82     0.187 C 
HETATM   13  C19 MIQ B 502     -16.233   0.515   7.864  1.00140.06     0.247 C 
HETATM   14  O25 MIQ B 502     -16.062   0.444   6.699  1.00143.95    -0.271 OA
HETATM   15  N20 MIQ B 502     -16.158  -0.694   8.659  1.00140.02    -0.296 N 
HETATM   16  H13 MIQ B 502     -15.975  -1.581   8.233  1.00142.77     0.171 HD
HETATM   17  C21 MIQ B 502     -16.379  -0.583  10.078  1.00142.22     0.224 C 
HETATM   18  C22 MIQ B 502     -17.371   0.470  10.532  1.00139.52     0.106 C 
HETATM   19  O24 MIQ B 502     -15.811  -1.276  10.848  1.00146.13    -0.273 OA
HETATM   20  C23 MIQ B 502     -16.876   1.795   9.980  1.00139.15     0.045 C 
ENDBRANCH  10  12
BRANCH   5  21
HETATM   21  N6  MIQ B 502     -21.283   6.226   4.552  1.00140.95    -0.377 N 
HETATM   22  C7  MIQ B 502     -20.411   6.931   3.628  1.00142.12     0.149 C 
HETATM   23  C8  MIQ B 502     -20.825   8.387   3.454  1.00144.10     0.187 C 
HETATM   24  O9  MIQ B 502     -22.192   8.538   3.217  1.00148.65    -0.388 OA
HETATM   25  C10 MIQ B 502     -23.062   7.455   3.372  1.00147.44     0.187 C 
HETATM   26  C11 MIQ B 502     -22.719   6.387   4.405  1.00144.08     0.149 C 
ENDBRANCH   5  21
TORSDOF 2
ENDMDL
MODEL 9
REMARK VINA RESULT:      -6.3     16.374     18.427
REMARK  2 active torsions:
REMARK  status: ('A' for Active; 'I' for Inactive)
REMARK    1  A    between atoms: C5_5  and  N6_21 
REMARK    2  A    between atoms: C18_14  and  N17_19 
ROOT
HETATM    1  O1  MIQ B 502     -15.591   7.562  -1.142  1.00142.91    -0.171 OA
HETATM    2  C2  MIQ B 502     -16.052   8.719  -0.510  1.00141.17     0.195 A 
HETATM    3  C3  MIQ B 502     -17.017   8.778   0.717  1.00141.71     0.035 A 
HETATM    4  C4  MIQ B 502     -17.689   7.741   1.535  1.00142.86     0.046 A 
HETATM    5  C5  MIQ B 502     -18.528   8.114   2.616  1.00139.53     0.031 A 
HETATM    6  C12 MIQ B 502     -18.728   9.523   2.923  1.00139.38     0.030 A 
HETATM    7  C13 MIQ B 502     -18.083  10.517   2.139  1.00141.18     0.019 A 
HETATM    8  C14 MIQ B 502     -17.202  10.120   1.007  1.00138.77     0.033 A 
HETATM    9  C15 MIQ B 502     -16.346  10.898  -0.045  1.00142.10     0.195 A 
HETATM   10  N17 MIQ B 502     -15.775   9.978  -0.804  1.00139.42    -0.288 N 
HETATM   11  O16 MIQ B 502     -16.218  12.284  -0.157  1.00148.93    -0.171 OA
ENDROOT
BRANCH  10  12
HETATM   12  C18 MIQ B 502     -14.910  10.340  -1.911  1.00139.82     0.187 C 
HETATM   13  C19 MIQ B 502     -15.542   9.794  -3.197  1.00140.06     0.247 C 
HETATM   14  O25 MIQ B 502     -16.674  10.031  -3.428  1.00143.95    -0.271 OA
HETATM   15  N20 MIQ B 502     -14.786   8.998  -4.142  1.00140.02    -0.296 N 
HETATM   16  H13 MIQ B 502     -15.212   8.642  -4.975  1.00142.77     0.171 HD
HETATM   17  C21 MIQ B 502     -13.408   8.713  -3.833  1.00142.22     0.224 C 
HETATM   18  C22 MIQ B 502     -13.059   8.544  -2.367  1.00139.52     0.106 C 
HETATM   19  O24 MIQ B 502     -12.591   8.622  -4.682  1.00146.13    -0.273 OA
HETATM   20  C23 MIQ B 502     -13.493   9.821  -1.671  1.00139.15     0.045 C 
ENDBRANCH  10  12
BRANCH   5  21
HETATM   21  N6  MIQ B 502     -19.192   7.088   3.399  1.00140.95    -0.377 N 
HETATM   22  C7  MIQ B 502     -18.376   6.117   4.107  1.00142.12     0.149 C 
HETATM   23  C8  MIQ B 502     -19.114   4.801   4.321  1.00144.10     0.187 C 
HETATM   24  O9  MIQ B 502     -20.403   4.978   4.826  1.00148.65    -0.388 OA
HETATM   25  C10 MIQ B 502     -20.974   6.252   4.881  1.00147.44     0.187 C 
HETATM   26  C11 MIQ B 502     -20.566   7.280   3.830  1.00144.08     0.149 C 
ENDBRANCH   5  21
TORSDOF 2
ENDMDL
