MODEL 1
REMARK VINA RESULT:      -6.1      0.000      0.000
REMARK  2 active torsions:
REMARK  status: ('A' for Active; 'I' for Inactive)
REMARK    1  A    between atoms: C5_5  and  N6_21 
REMARK    2  A    between atoms: C18_14  and  N17_19 
ROOT
HETATM    1  O1  MIQ B 502      12.170 -12.237  13.384  1.00142.91    -0.171 OA
HETATM    2  C2  MIQ B 502      11.752 -12.011  12.071  1.00141.17     0.195 A 
HETATM    3  C3  MIQ B 502      12.671 -11.942  10.810  1.00141.71     0.035 A 
HETATM    4  C4  MIQ B 502      14.133 -12.081  10.605  1.00142.86     0.046 A 
HETATM    5  C5  MIQ B 502      14.688 -11.967   9.306  1.00139.53     0.031 A 
HETATM    6  C12 MIQ B 502      13.818 -11.713   8.167  1.00139.38     0.030 A 
HETATM    7  C13 MIQ B 502      12.416 -11.581   8.363  1.00141.18     0.019 A 
HETATM    8  C14 MIQ B 502      11.838 -11.704   9.729  1.00138.77     0.033 A 
HETATM    9  C15 MIQ B 502      10.394 -11.625  10.322  1.00142.10     0.195 A 
HETATM   10  N17 MIQ B 502      10.523 -11.818  11.624  1.00139.42    -0.288 N 
HETATM   11  O16 MIQ B 502       9.212 -11.394   9.616  1.00148.93    -0.171 OA
ENDROOT
BRANCH  10  12
HETATM   12  C18 MIQ B 502       9.374 -11.796  12.511  1.00139.82     0.187 C 
HETATM   13  C19 MIQ B 502       9.715 -10.884  13.695  1.00140.06     0.247 C 
HETATM   14  O25 MIQ B 502      10.131  -9.800  13.487  1.00143.95    -0.271 OA
HETATM   15  N20 MIQ B 502       9.535 -11.314  15.067  1.00140.02    -0.296 N 
HETATM   16  H13 MIQ B 502       9.768 -10.711  15.832  1.00142.77     0.171 HD
HETATM   17  C21 MIQ B 502       9.036 -12.645  15.296  1.00142.22     0.224 C 
HETATM   18  C22 MIQ B 502       9.448 -13.709  14.297  1.00139.52     0.106 C 
HETATM   19  O24 MIQ B 502       8.335 -12.892  16.215  1.00146.13    -0.273 OA
HETATM   20  C23 MIQ B 502       9.001 -13.216  12.933  1.00139.15     0.045 C 
ENDBRANCH  10  12
BRANCH   5  21
HETATM   21  N6  MIQ B 502      16.123 -12.091   9.122  1.00140.95    -0.377 N 
HETATM   22  C7  MIQ B 502      16.687 -11.770   7.822  1.00142.12     0.149 C 
HETATM   23  C8  MIQ B 502      17.988 -12.519   7.566  1.00144.10     0.187 C 
HETATM   24  O9  MIQ B 502      18.879 -12.443   8.639  1.00148.65    -0.388 OA
HETATM   25  C10 MIQ B 502      18.465 -11.923   9.867  1.00147.44     0.187 C 
HETATM   26  C11 MIQ B 502      17.005 -12.092  10.276  1.00144.08     0.149 C 
ENDBRANCH   5  21
TORSDOF 2
ENDMDL
MODEL 2
REMARK VINA RESULT:      -6.1     23.254     26.057
REMARK  2 active torsions:
REMARK  status: ('A' for Active; 'I' for Inactive)
REMARK    1  A    between atoms: C5_5  and  N6_21 
REMARK    2  A    between atoms: C18_14  and  N17_19 
ROOT
HETATM    1  O1  MIQ B 502      13.819 -31.989  -4.900  1.00142.91    -0.171 OA
HETATM    2  C2  MIQ B 502      15.096 -31.424  -4.853  1.00141.17     0.195 A 
HETATM    3  C3  MIQ B 502      16.409 -32.148  -4.416  1.00141.71     0.035 A 
HETATM    4  C4  MIQ B 502      16.709 -33.525  -3.957  1.00142.86     0.046 A 
HETATM    5  C5  MIQ B 502      18.036 -33.896  -3.623  1.00139.53     0.031 A 
HETATM    6  C12 MIQ B 502      19.109 -32.918  -3.733  1.00139.38     0.030 A 
HETATM    7  C13 MIQ B 502      18.822 -31.598  -4.174  1.00141.18     0.019 A 
HETATM    8  C14 MIQ B 502      17.427 -31.215  -4.525  1.00138.77     0.033 A 
HETATM    9  C15 MIQ B 502      16.742 -29.905  -5.034  1.00142.10     0.195 A 
HETATM   10  N17 MIQ B 502      15.458 -30.192  -5.166  1.00139.42    -0.288 N 
HETATM   11  O16 MIQ B 502      17.365 -28.682  -5.292  1.00148.93    -0.171 OA
ENDROOT
BRANCH  10  12
HETATM   12  C18 MIQ B 502      14.501 -29.196  -5.611  1.00139.82     0.187 C 
HETATM   13  C19 MIQ B 502      15.063 -28.540  -6.878  1.00140.06     0.247 C 
HETATM   14  O25 MIQ B 502      15.431 -29.224  -7.766  1.00143.95    -0.271 OA
HETATM   15  N20 MIQ B 502      15.150 -27.101  -7.019  1.00140.02    -0.296 N 
HETATM   16  H13 MIQ B 502      15.526 -26.685  -7.849  1.00142.77     0.171 HD
HETATM   17  C21 MIQ B 502      14.705 -26.287  -5.917  1.00142.22     0.224 C 
HETATM   18  C22 MIQ B 502      14.918 -26.849  -4.525  1.00139.52     0.106 C 
HETATM   19  O24 MIQ B 502      14.194 -25.236  -6.093  1.00146.13    -0.273 OA
HETATM   20  C23 MIQ B 502      14.217 -28.195  -4.492  1.00139.15     0.045 C 
ENDBRANCH  10  12
BRANCH   5  21
HETATM   21  N6  MIQ B 502      18.313 -35.244  -3.161  1.00140.95    -0.377 N 
HETATM   22  C7  MIQ B 502      19.530 -35.482  -2.404  1.00142.12     0.149 C 
HETATM   23  C8  MIQ B 502      20.015 -36.920  -2.545  1.00144.10     0.187 C 
HETATM   24  O9  MIQ B 502      18.998 -37.857  -2.350  1.00148.65    -0.388 OA
HETATM   25  C10 MIQ B 502      17.664 -37.449  -2.276  1.00147.44     0.187 C 
HETATM   26  C11 MIQ B 502      17.235 -36.211  -3.057  1.00144.08     0.149 C 
ENDBRANCH   5  21
TORSDOF 2
ENDMDL
MODEL 3
REMARK VINA RESULT:      -5.8      3.921      7.252
REMARK  2 active torsions:
REMARK  status: ('A' for Active; 'I' for Inactive)
REMARK    1  A    between atoms: C5_5  and  N6_21 
REMARK    2  A    between atoms: C18_14  and  N17_19 
ROOT
HETATM    1  O1  MIQ B 502      16.029 -13.226   7.900  1.00142.91    -0.171 OA
HETATM    2  C2  MIQ B 502      16.496 -12.133   7.167  1.00141.17     0.195 A 
HETATM    3  C3  MIQ B 502      17.531 -12.181   5.997  1.00141.71     0.035 A 
HETATM    4  C4  MIQ B 502      18.279 -13.281   5.343  1.00142.86     0.046 A 
HETATM    5  C5  MIQ B 502      19.170 -13.005   4.276  1.00139.53     0.031 A 
HETATM    6  C12 MIQ B 502      19.350 -11.634   3.820  1.00139.38     0.030 A 
HETATM    7  C13 MIQ B 502      18.633 -10.580   4.446  1.00141.18     0.019 A 
HETATM    8  C14 MIQ B 502      17.696 -10.875   5.565  1.00138.77     0.033 A 
HETATM    9  C15 MIQ B 502      16.759 -10.012   6.471  1.00142.10     0.195 A 
HETATM   10  N17 MIQ B 502      16.168 -10.859   7.298  1.00139.42    -0.288 N 
HETATM   11  O16 MIQ B 502      16.586  -8.628   6.416  1.00148.93    -0.171 OA
ENDROOT
BRANCH  10  12
HETATM   12  C18 MIQ B 502      15.229 -10.403   8.305  1.00139.82     0.187 C 
HETATM   13  C19 MIQ B 502      15.660 -10.999   9.651  1.00140.06     0.247 C 
HETATM   14  O25 MIQ B 502      16.779 -10.874  10.004  1.00143.95    -0.271 OA
HETATM   15  N20 MIQ B 502      14.730 -11.707  10.506  1.00140.02    -0.296 N 
HETATM   16  H13 MIQ B 502      15.026 -12.097  11.379  1.00142.77     0.171 HD
HETATM   17  C21 MIQ B 502      13.372 -11.856  10.049  1.00142.22     0.224 C 
HETATM   18  C22 MIQ B 502      13.169 -12.002   8.553  1.00139.52     0.106 C 
HETATM   19  O24 MIQ B 502      12.463 -11.858  10.804  1.00146.13    -0.273 OA
HETATM   20  C23 MIQ B 502      13.802 -10.780   7.911  1.00139.15     0.045 C 
ENDBRANCH  10  12
BRANCH   5  21
HETATM   21  N6  MIQ B 502      19.907 -14.090   3.654  1.00140.95    -0.377 N 
HETATM   22  C7  MIQ B 502      19.165 -15.223   3.129  1.00142.12     0.149 C 
HETATM   23  C8  MIQ B 502      20.003 -16.495   3.115  1.00144.10     0.187 C 
HETATM   24  O9  MIQ B 502      21.271 -16.304   2.562  1.00148.65    -0.388 OA
HETATM   25  C10 MIQ B 502      21.739 -15.016   2.292  1.00147.44     0.187 C 
HETATM   26  C11 MIQ B 502      21.259 -13.866   3.171  1.00144.08     0.149 C 
ENDBRANCH   5  21
TORSDOF 2
ENDMDL
MODEL 4
REMARK VINA RESULT:      -5.7     11.397     16.027
REMARK  2 active torsions:
REMARK  status: ('A' for Active; 'I' for Inactive)
REMARK    1  A    between atoms: C5_5  and  N6_21 
REMARK    2  A    between atoms: C18_14  and  N17_19 
ROOT
HETATM    1  O1  MIQ B 502      18.484 -17.337   0.555  1.00142.91    -0.171 OA
HETATM    2  C2  MIQ B 502      19.727 -17.966   0.452  1.00141.17     0.195 A 
HETATM    3  C3  MIQ B 502      20.335 -18.599  -0.840  1.00141.71     0.035 A 
HETATM    4  C4  MIQ B 502      19.854 -18.727  -2.236  1.00142.86     0.046 A 
HETATM    5  C5  MIQ B 502      20.655 -19.370  -3.214  1.00139.53     0.031 A 
HETATM    6  C12 MIQ B 502      21.957 -19.905  -2.844  1.00139.38     0.030 A 
HETATM    7  C13 MIQ B 502      22.419 -19.782  -1.506  1.00141.18     0.019 A 
HETATM    8  C14 MIQ B 502      21.575 -19.104  -0.484  1.00138.77     0.033 A 
HETATM    9  C15 MIQ B 502      21.737 -18.783   1.038  1.00142.10     0.195 A 
HETATM   10  N17 MIQ B 502      20.632 -18.151   1.397  1.00139.42    -0.288 N 
HETATM   11  O16 MIQ B 502      22.828 -19.102   1.848  1.00148.93    -0.171 OA
ENDROOT
BRANCH  10  12
HETATM   12  C18 MIQ B 502      20.422 -17.709   2.763  1.00139.82     0.187 C 
HETATM   13  C19 MIQ B 502      19.104 -18.318   3.256  1.00140.06     0.247 C 
HETATM   14  O25 MIQ B 502      18.925 -19.478   3.136  1.00143.95    -0.271 OA
HETATM   15  N20 MIQ B 502      18.071 -17.509   3.870  1.00140.02    -0.296 N 
HETATM   16  H13 MIQ B 502      17.212 -17.917   4.181  1.00142.77     0.171 HD
HETATM   17  C21 MIQ B 502      18.308 -16.094   3.995  1.00142.22     0.224 C 
HETATM   18  C22 MIQ B 502      19.122 -15.440   2.895  1.00139.52     0.106 C 
HETATM   19  O24 MIQ B 502      17.892 -15.476   4.912  1.00146.13    -0.273 OA
HETATM   20  C23 MIQ B 502      20.444 -16.183   2.837  1.00139.15     0.045 C 
ENDBRANCH  10  12
BRANCH   5  21
HETATM   21  N6  MIQ B 502      20.165 -19.501  -4.574  1.00140.95    -0.377 N 
HETATM   22  C7  MIQ B 502      19.457 -18.381  -5.169  1.00142.12     0.149 C 
HETATM   23  C8  MIQ B 502      18.483 -18.832  -6.250  1.00144.10     0.187 C 
HETATM   24  O9  MIQ B 502      19.054 -19.726  -7.157  1.00148.65    -0.388 OA
HETATM   25  C10 MIQ B 502      20.310 -20.285  -6.905  1.00147.44     0.187 C 
HETATM   26  C11 MIQ B 502      20.733 -20.506  -5.456  1.00144.08     0.149 C 
ENDBRANCH   5  21
TORSDOF 2
ENDMDL
MODEL 5
REMARK VINA RESULT:      -5.6     22.811     25.670
REMARK  2 active torsions:
REMARK  status: ('A' for Active; 'I' for Inactive)
REMARK    1  A    between atoms: C5_5  and  N6_21 
REMARK    2  A    between atoms: C18_14  and  N17_19 
ROOT
HETATM    1  O1  MIQ B 502      17.443 -28.691  -5.382  1.00142.91    -0.171 OA
HETATM    2  C2  MIQ B 502      16.810 -29.906  -5.106  1.00141.17     0.195 A 
HETATM    3  C3  MIQ B 502      17.509 -31.230  -4.664  1.00141.71     0.035 A 
HETATM    4  C4  MIQ B 502      18.921 -31.602  -4.411  1.00142.86     0.046 A 
HETATM    5  C5  MIQ B 502      19.254 -32.920  -4.007  1.00139.53     0.031 A 
HETATM    6  C12 MIQ B 502      18.202 -33.912  -3.839  1.00139.38     0.030 A 
HETATM    7  C13 MIQ B 502      16.848 -33.555  -4.079  1.00141.18     0.019 A 
HETATM    8  C14 MIQ B 502      16.504 -32.170  -4.501  1.00138.77     0.033 A 
HETATM    9  C15 MIQ B 502      15.173 -31.424  -4.845  1.00142.10     0.195 A 
HETATM   10  N17 MIQ B 502      15.519 -30.185  -5.155  1.00139.42    -0.288 N 
HETATM   11  O16 MIQ B 502      13.885 -31.962  -4.828  1.00148.93    -0.171 OA
ENDROOT
BRANCH  10  12
HETATM   12  C18 MIQ B 502      14.529 -29.199  -5.547  1.00139.82     0.187 C 
HETATM   13  C19 MIQ B 502      14.981 -28.588  -6.880  1.00140.06     0.247 C 
HETATM   14  O25 MIQ B 502      15.268 -29.302  -7.773  1.00143.95    -0.271 OA
HETATM   15  N20 MIQ B 502      15.059 -27.155  -7.075  1.00140.02    -0.296 N 
HETATM   16  H13 MIQ B 502      15.362 -26.768  -7.947  1.00142.77     0.171 HD
HETATM   17  C21 MIQ B 502      14.713 -26.303  -5.966  1.00142.22     0.224 C 
HETATM   18  C22 MIQ B 502      15.045 -26.821  -4.580  1.00139.52     0.106 C 
HETATM   19  O24 MIQ B 502      14.191 -25.255  -6.131  1.00146.13    -0.273 OA
HETATM   20  C23 MIQ B 502      14.346 -28.161  -4.441  1.00139.15     0.045 C 
ENDBRANCH  10  12
BRANCH   5  21
HETATM   21  N6  MIQ B 502      20.643 -33.274  -3.778  1.00140.95    -0.377 N 
HETATM   22  C7  MIQ B 502      20.974 -34.668  -3.540  1.00142.12     0.149 C 
HETATM   23  C8  MIQ B 502      22.244 -34.818  -2.712  1.00144.10     0.187 C 
HETATM   24  O9  MIQ B 502      23.295 -34.027  -3.181  1.00148.65    -0.388 OA
HETATM   25  C10 MIQ B 502      23.067 -33.054  -4.158  1.00147.44     0.187 C 
HETATM   26  C11 MIQ B 502      21.701 -32.377  -4.208  1.00144.08     0.149 C 
ENDBRANCH   5  21
TORSDOF 2
ENDMDL
MODEL 6
REMARK VINA RESULT:      -5.6     20.608     22.068
REMARK  2 active torsions:
REMARK  status: ('A' for Active; 'I' for Inactive)
REMARK    1  A    between atoms: C5_5  and  N6_21 
REMARK    2  A    between atoms: C18_14  and  N17_19 
ROOT
HETATM    1  O1  MIQ B 502       2.824 -27.592   1.991  1.00142.91    -0.171 OA
HETATM    2  C2  MIQ B 502       1.696 -27.010   1.409  1.00141.17     0.195 A 
HETATM    3  C3  MIQ B 502       1.249 -27.152  -0.081  1.00141.71     0.035 A 
HETATM    4  C4  MIQ B 502       1.808 -27.874  -1.248  1.00142.86     0.046 A 
HETATM    5  C5  MIQ B 502       1.159 -27.813  -2.507  1.00139.53     0.031 A 
HETATM    6  C12 MIQ B 502      -0.064 -27.037  -2.652  1.00139.38     0.030 A 
HETATM    7  C13 MIQ B 502      -0.601 -26.346  -1.533  1.00141.18     0.019 A 
HETATM    8  C14 MIQ B 502       0.083 -26.415  -0.213  1.00138.77     0.033 A 
HETATM    9  C15 MIQ B 502      -0.196 -25.813   1.202  1.00142.10     0.195 A 
HETATM   10  N17 MIQ B 502       0.785 -26.240   1.980  1.00139.42    -0.288 N 
HETATM   11  O16 MIQ B 502      -1.263 -24.990   1.565  1.00148.93    -0.171 OA
ENDROOT
BRANCH  10  12
HETATM   12  C18 MIQ B 502       0.862 -25.861   3.379  1.00139.82     0.187 C 
HETATM   13  C19 MIQ B 502       2.218 -25.182   3.606  1.00140.06     0.247 C 
HETATM   14  O25 MIQ B 502       2.548 -24.302   2.893  1.00143.95    -0.271 OA
HETATM   15  N20 MIQ B 502       3.106 -25.587   4.677  1.00140.02    -0.296 N 
HETATM   16  H13 MIQ B 502       3.991 -25.140   4.810  1.00142.77     0.171 HD
HETATM   17  C21 MIQ B 502       2.686 -26.670   5.528  1.00142.22     0.224 C 
HETATM   18  C22 MIQ B 502       1.856 -27.763   4.881  1.00139.52     0.106 C 
HETATM   19  O24 MIQ B 502       2.970 -26.701   6.675  1.00146.13    -0.273 OA
HETATM   20  C23 MIQ B 502       0.644 -27.081   4.273  1.00139.15     0.045 C 
ENDBRANCH  10  12
BRANCH   5  21
HETATM   21  N6  MIQ B 502       1.726 -28.513  -3.645  1.00140.95    -0.377 N 
HETATM   22  C7  MIQ B 502       2.971 -29.240  -3.464  1.00142.12     0.149 C 
HETATM   23  C8  MIQ B 502       3.756 -29.357  -4.764  1.00144.10     0.187 C 
HETATM   24  O9  MIQ B 502       2.970 -29.779  -5.838  1.00148.65    -0.388 OA
HETATM   25  C10 MIQ B 502       1.579 -29.839  -5.716  1.00147.44     0.187 C 
HETATM   26  C11 MIQ B 502       0.886 -28.855  -4.779  1.00144.08     0.149 C 
ENDBRANCH   5  21
TORSDOF 2
ENDMDL
MODEL 7
REMARK VINA RESULT:      -5.5      5.652     11.664
REMARK  2 active torsions:
REMARK  status: ('A' for Active; 'I' for Inactive)
REMARK    1  A    between atoms: C5_5  and  N6_21 
REMARK    2  A    between atoms: C18_14  and  N17_19 
ROOT
HETATM    1  O1  MIQ B 502      17.934 -15.357   3.244  1.00142.91    -0.171 OA
HETATM    2  C2  MIQ B 502      18.534 -15.731   4.449  1.00141.17     0.195 A 
HETATM    3  C3  MIQ B 502      18.324 -15.046   5.836  1.00141.71     0.035 A 
HETATM    4  C4  MIQ B 502      17.505 -13.897   6.291  1.00142.86     0.046 A 
HETATM    5  C5  MIQ B 502      17.520 -13.501   7.653  1.00139.53     0.031 A 
HETATM    6  C12 MIQ B 502      18.345 -14.227   8.608  1.00139.38     0.030 A 
HETATM    7  C13 MIQ B 502      19.129 -15.329   8.172  1.00141.18     0.019 A 
HETATM    8  C14 MIQ B 502      19.107 -15.742   6.742  1.00138.77     0.033 A 
HETATM    9  C15 MIQ B 502      19.808 -16.867   5.912  1.00142.10     0.195 A 
HETATM   10  N17 MIQ B 502      19.382 -16.722   4.668  1.00139.42    -0.288 N 
HETATM   11  O16 MIQ B 502      20.703 -17.825   6.391  1.00148.93    -0.171 OA
ENDROOT
BRANCH  10  12
HETATM   12  C18 MIQ B 502      19.841 -17.594   3.603  1.00139.82     0.187 C 
HETATM   13  C19 MIQ B 502      20.440 -16.712   2.501  1.00140.06     0.247 C 
HETATM   14  O25 MIQ B 502      21.249 -15.903   2.787  1.00143.95    -0.271 OA
HETATM   15  N20 MIQ B 502      20.044 -16.848   1.115  1.00140.02    -0.296 N 
HETATM   16  H13 MIQ B 502      20.438 -16.262   0.405  1.00142.77     0.171 HD
HETATM   17  C21 MIQ B 502      19.047 -17.836   0.792  1.00142.22     0.224 C 
HETATM   18  C22 MIQ B 502      17.975 -18.088   1.834  1.00139.52     0.106 C 
HETATM   19  O24 MIQ B 502      19.069 -18.424  -0.234  1.00146.13    -0.273 OA
HETATM   20  C23 MIQ B 502      18.698 -18.479   3.110  1.00139.15     0.045 C 
ENDBRANCH  10  12
BRANCH   5  21
HETATM   21  N6  MIQ B 502      16.725 -12.365   8.082  1.00140.95    -0.377 N 
HETATM   22  C7  MIQ B 502      16.806 -11.945   9.470  1.00142.12     0.149 C 
HETATM   23  C8  MIQ B 502      15.535 -11.241   9.927  1.00144.10     0.187 C 
HETATM   24  O9  MIQ B 502      15.105 -10.260   9.031  1.00148.65    -0.388 OA
HETATM   25  C10 MIQ B 502      15.687 -10.153   7.765  1.00147.44     0.187 C 
HETATM   26  C11 MIQ B 502      16.226 -11.416   7.101  1.00144.08     0.149 C 
ENDBRANCH   5  21
TORSDOF 2
ENDMDL
MODEL 8
REMARK VINA RESULT:      -5.5      7.569     13.653
REMARK  2 active torsions:
REMARK  status: ('A' for Active; 'I' for Inactive)
REMARK    1  A    between atoms: C5_5  and  N6_21 
REMARK    2  A    between atoms: C18_14  and  N17_19 
ROOT
HETATM    1  O1  MIQ B 502      17.270 -17.422   2.587  1.00142.91    -0.171 OA
HETATM    2  C2  MIQ B 502      18.500 -16.762   2.537  1.00141.17     0.195 A 
HETATM    3  C3  MIQ B 502      18.839 -15.392   3.207  1.00141.71     0.035 A 
HETATM    4  C4  MIQ B 502      18.058 -14.440   4.031  1.00142.86     0.046 A 
HETATM    5  C5  MIQ B 502      18.657 -13.247   4.509  1.00139.53     0.031 A 
HETATM    6  C12 MIQ B 502      20.048 -12.958   4.188  1.00139.38     0.030 A 
HETATM    7  C13 MIQ B 502      20.797 -13.872   3.399  1.00141.18     0.019 A 
HETATM    8  C14 MIQ B 502      20.164 -15.124   2.902  1.00138.77     0.033 A 
HETATM    9  C15 MIQ B 502      20.650 -16.334   2.039  1.00142.10     0.195 A 
HETATM   10  N17 MIQ B 502      19.612 -17.147   1.934  1.00139.42    -0.288 N 
HETATM   11  O16 MIQ B 502      21.921 -16.512   1.491  1.00148.93    -0.171 OA
ENDROOT
BRANCH  10  12
HETATM   12  C18 MIQ B 502      19.692 -18.384   1.179  1.00139.82     0.187 C 
HETATM   13  C19 MIQ B 502      20.938 -19.142   1.653  1.00140.06     0.247 C 
HETATM   14  O25 MIQ B 502      21.098 -19.321   2.808  1.00143.95    -0.271 OA
HETATM   15  N20 MIQ B 502      21.923 -19.651   0.722  1.00140.02    -0.296 N 
HETATM   16  H13 MIQ B 502      22.735 -20.139   1.045  1.00142.77     0.171 HD
HETATM   17  C21 MIQ B 502      21.711 -19.411  -0.682  1.00142.22     0.224 C 
HETATM   18  C22 MIQ B 502      21.030 -18.109  -1.056  1.00139.52     0.106 C 
HETATM   19  O24 MIQ B 502      22.047 -20.195  -1.501  1.00146.13    -0.273 OA
HETATM   20  C23 MIQ B 502      19.702 -18.090  -0.321  1.00139.15     0.045 C 
ENDBRANCH  10  12
BRANCH   5  21
HETATM   21  N6  MIQ B 502      17.876 -12.316   5.302  1.00140.95    -0.377 N 
HETATM   22  C7  MIQ B 502      17.788 -12.529   6.736  1.00142.12     0.149 C 
HETATM   23  C8  MIQ B 502      16.508 -11.946   7.320  1.00144.10     0.187 C 
HETATM   24  O9  MIQ B 502      16.263 -10.639   6.895  1.00148.65    -0.388 OA
HETATM   25  C10 MIQ B 502      17.020 -10.076   5.865  1.00147.44     0.187 C 
HETATM   26  C11 MIQ B 502      17.573 -10.994   4.780  1.00144.08     0.149 C 
ENDBRANCH   5  21
TORSDOF 2
ENDMDL
MODEL 9
REMARK VINA RESULT:      -5.4      7.186      9.779
REMARK  2 active torsions:
REMARK  status: ('A' for Active; 'I' for Inactive)
REMARK    1  A    between atoms: C5_5  and  N6_21 
REMARK    2  A    between atoms: C18_14  and  N17_19 
ROOT
HETATM    1  O1  MIQ B 502      19.081 -13.612   8.354  1.00142.91    -0.171 OA
HETATM    2  C2  MIQ B 502      18.748 -13.396   7.015  1.00141.17     0.195 A 
HETATM    3  C3  MIQ B 502      18.905 -14.421   5.847  1.00141.71     0.035 A 
HETATM    4  C4  MIQ B 502      19.403 -15.815   5.776  1.00142.86     0.046 A 
HETATM    5  C5  MIQ B 502      19.424 -16.507   4.539  1.00139.53     0.031 A 
HETATM    6  C12 MIQ B 502      18.952 -15.843   3.332  1.00139.38     0.030 A 
HETATM    7  C13 MIQ B 502      18.473 -14.507   3.400  1.00141.18     0.019 A 
HETATM    8  C14 MIQ B 502      18.452 -13.786   4.703  1.00138.77     0.033 A 
HETATM    9  C15 MIQ B 502      18.010 -12.359   5.162  1.00142.10     0.195 A 
HETATM   10  N17 MIQ B 502      18.236 -12.308   6.465  1.00139.42    -0.288 N 
HETATM   11  O16 MIQ B 502      17.485 -11.346   4.356  1.00148.93    -0.171 OA
ENDROOT
BRANCH  10  12
HETATM   12  C18 MIQ B 502      17.955 -11.111   7.236  1.00139.82     0.187 C 
HETATM   13  C19 MIQ B 502      16.529 -10.660   6.897  1.00140.06     0.247 C 
HETATM   14  O25 MIQ B 502      15.648 -11.441   6.959  1.00143.95    -0.271 OA
HETATM   15  N20 MIQ B 502      16.232  -9.297   6.506  1.00140.02    -0.296 N 
HETATM   16  H13 MIQ B 502      15.298  -9.017   6.281  1.00142.77     0.171 HD
HETATM   17  C21 MIQ B 502      17.326  -8.364   6.426  1.00142.22     0.224 C 
HETATM   18  C22 MIQ B 502      18.666  -8.922   5.987  1.00139.52     0.106 C 
HETATM   19  O24 MIQ B 502      17.186  -7.222   6.696  1.00146.13    -0.273 OA
HETATM   20  C23 MIQ B 502      19.007 -10.039   6.956  1.00139.15     0.045 C 
ENDBRANCH  10  12
BRANCH   5  21
HETATM   21  N6  MIQ B 502      19.928 -17.867   4.481  1.00140.95    -0.377 N 
HETATM   22  C7  MIQ B 502      20.470 -18.354   3.224  1.00142.12     0.149 C 
HETATM   23  C8  MIQ B 502      20.353 -19.868   3.103  1.00144.10     0.187 C 
HETATM   24  O9  MIQ B 502      20.795 -20.540   4.244  1.00148.65    -0.388 OA
HETATM   25  C10 MIQ B 502      21.076 -19.835   5.417  1.00147.44     0.187 C 
HETATM   26  C11 MIQ B 502      20.294 -18.557   5.705  1.00144.08     0.149 C 
ENDBRANCH   5  21
TORSDOF 2
ENDMDL
