MODEL 1
REMARK VINA RESULT:      -6.5      0.000      0.000
REMARK  2 active torsions:
REMARK  status: ('A' for Active; 'I' for Inactive)
REMARK    1  A    between atoms: C5_5  and  N6_21 
REMARK    2  A    between atoms: C18_14  and  N17_19 
ROOT
HETATM    1  O1  MIQ B 502      14.890 -13.384 -12.693  1.00142.91    -0.171 OA
HETATM    2  C2  MIQ B 502      13.995 -14.179 -13.412  1.00141.17     0.195 A 
HETATM    3  C3  MIQ B 502      12.870 -13.669 -14.368  1.00141.71     0.035 A 
HETATM    4  C4  MIQ B 502      12.426 -12.319 -14.789  1.00142.86     0.046 A 
HETATM    5  C5  MIQ B 502      11.346 -12.170 -15.696  1.00139.53     0.031 A 
HETATM    6  C12 MIQ B 502      10.672 -13.351 -16.216  1.00139.38     0.030 A 
HETATM    7  C13 MIQ B 502      11.099 -14.645 -15.814  1.00141.18     0.019 A 
HETATM    8  C14 MIQ B 502      12.234 -14.795 -14.863  1.00138.77     0.033 A 
HETATM    9  C15 MIQ B 502      12.969 -16.012 -14.211  1.00142.10     0.195 A 
HETATM   10  N17 MIQ B 502      13.914 -15.498 -13.442  1.00139.42    -0.288 N 
HETATM   11  O16 MIQ B 502      12.679 -17.364 -14.404  1.00148.93    -0.171 OA
ENDROOT
BRANCH  10  12
HETATM   12  C18 MIQ B 502      14.796 -16.344 -12.659  1.00139.82     0.187 C 
HETATM   13  C19 MIQ B 502      14.776 -15.830 -11.214  1.00140.06     0.247 C 
HETATM   14  O25 MIQ B 502      13.740 -15.659 -10.678  1.00143.95    -0.271 OA
HETATM   15  N20 MIQ B 502      15.997 -15.552 -10.486  1.00140.02    -0.296 N 
HETATM   16  H13 MIQ B 502      15.971 -15.211  -9.545  1.00142.77     0.171 HD
HETATM   17  C21 MIQ B 502      17.250 -15.759 -11.165  1.00142.22     0.224 C 
HETATM   18  C22 MIQ B 502      17.270 -15.484 -12.657  1.00139.52     0.106 C 
HETATM   19  O24 MIQ B 502      18.213 -16.129 -10.588  1.00146.13    -0.273 OA
HETATM   20  C23 MIQ B 502      16.196 -16.363 -13.271  1.00139.15     0.045 C 
ENDBRANCH  10  12
BRANCH   5  21
HETATM   21  N6  MIQ B 502      10.911 -10.842 -16.088  1.00140.95    -0.377 N 
HETATM   22  C7  MIQ B 502       9.493 -10.611 -16.303  1.00142.12     0.149 C 
HETATM   23  C8  MIQ B 502       9.246  -9.470 -17.282  1.00144.10     0.187 C 
HETATM   24  O9  MIQ B 502       9.999  -8.331 -16.991  1.00148.65    -0.388 OA
HETATM   25  C10 MIQ B 502      11.019  -8.382 -16.038  1.00147.44     0.187 C 
HETATM   26  C11 MIQ B 502      11.768  -9.696 -15.841  1.00144.08     0.149 C 
ENDBRANCH   5  21
TORSDOF 2
ENDMDL
MODEL 2
REMARK VINA RESULT:      -6.4      2.746      8.684
REMARK  2 active torsions:
REMARK  status: ('A' for Active; 'I' for Inactive)
REMARK    1  A    between atoms: C5_5  and  N6_21 
REMARK    2  A    between atoms: C18_14  and  N17_19 
ROOT
HETATM    1  O1  MIQ B 502       9.199 -13.288 -17.229  1.00142.91    -0.171 OA
HETATM    2  C2  MIQ B 502      10.123 -12.363 -16.739  1.00141.17     0.195 A 
HETATM    3  C3  MIQ B 502      11.064 -12.562 -15.509  1.00141.71     0.035 A 
HETATM    4  C4  MIQ B 502      11.273 -13.678 -14.556  1.00142.86     0.046 A 
HETATM    5  C5  MIQ B 502      12.228 -13.562 -13.514  1.00139.53     0.031 A 
HETATM    6  C12 MIQ B 502      13.006 -12.339 -13.381  1.00139.38     0.030 A 
HETATM    7  C13 MIQ B 502      12.807 -11.269 -14.295  1.00141.18     0.019 A 
HETATM    8  C14 MIQ B 502      11.805 -11.398 -15.388  1.00138.77     0.033 A 
HETATM    9  C15 MIQ B 502      11.321 -10.471 -16.550  1.00142.10     0.195 A 
HETATM   10  N17 MIQ B 502      10.395 -11.154 -17.201  1.00139.42    -0.288 N 
HETATM   11  O16 MIQ B 502      11.777  -9.183 -16.837  1.00148.93    -0.171 OA
ENDROOT
BRANCH  10  12
HETATM   12  C18 MIQ B 502       9.703 -10.592 -18.347  1.00139.82     0.187 C 
HETATM   13  C19 MIQ B 502       8.197 -10.691 -18.078  1.00140.06     0.247 C 
HETATM   14  O25 MIQ B 502       7.765 -10.281 -17.059  1.00143.95    -0.271 OA
HETATM   15  N20 MIQ B 502       7.285 -11.267 -19.045  1.00140.02    -0.296 N 
HETATM   16  H13 MIQ B 502       6.304 -11.332 -18.855  1.00142.77     0.171 HD
HETATM   17  C21 MIQ B 502       7.837 -11.769 -20.277  1.00142.22     0.224 C 
HETATM   18  C22 MIQ B 502       9.225 -12.375 -20.204  1.00139.52     0.106 C 
HETATM   19  O24 MIQ B 502       7.237 -11.707 -21.293  1.00146.13    -0.273 OA
HETATM   20  C23 MIQ B 502      10.133 -11.303 -19.629  1.00139.15     0.045 C 
ENDBRANCH  10  12
BRANCH   5  21
HETATM   21  N6  MIQ B 502      12.411 -14.657 -12.579  1.00140.95    -0.377 N 
HETATM   22  C7  MIQ B 502      11.551 -14.725 -11.411  1.00142.12     0.149 C 
HETATM   23  C8  MIQ B 502      12.218 -15.458 -10.254  1.00144.10     0.187 C 
HETATM   24  O9  MIQ B 502      12.797 -16.668 -10.640  1.00148.65    -0.388 OA
HETATM   25  C10 MIQ B 502      12.920 -16.995 -11.993  1.00147.44     0.187 C 
HETATM   26  C11 MIQ B 502      13.097 -15.865 -13.003  1.00144.08     0.149 C 
ENDBRANCH   5  21
TORSDOF 2
ENDMDL
MODEL 3
REMARK VINA RESULT:      -6.3      2.424      8.618
REMARK  2 active torsions:
REMARK  status: ('A' for Active; 'I' for Inactive)
REMARK    1  A    between atoms: C5_5  and  N6_21 
REMARK    2  A    between atoms: C18_14  and  N17_19 
ROOT
HETATM    1  O1  MIQ B 502       9.669 -13.457 -17.065  1.00142.91    -0.171 OA
HETATM    2  C2  MIQ B 502      10.573 -12.544 -16.515  1.00141.17     0.195 A 
HETATM    3  C3  MIQ B 502      11.687 -12.866 -15.469  1.00141.71     0.035 A 
HETATM    4  C4  MIQ B 502      12.114 -14.110 -14.785  1.00142.86     0.046 A 
HETATM    5  C5  MIQ B 502      13.190 -14.087 -13.862  1.00139.53     0.031 A 
HETATM    6  C12 MIQ B 502      13.877 -12.834 -13.584  1.00139.38     0.030 A 
HETATM    7  C13 MIQ B 502      13.468 -11.641 -14.240  1.00141.18     0.019 A 
HETATM    8  C14 MIQ B 502      12.340 -11.672 -15.211  1.00138.77     0.033 A 
HETATM    9  C15 MIQ B 502      11.628 -10.603 -16.103  1.00142.10     0.195 A 
HETATM   10  N17 MIQ B 502      10.680 -11.250 -16.761  1.00139.42    -0.288 N 
HETATM   11  O16 MIQ B 502      11.934  -9.244 -16.183  1.00148.93    -0.171 OA
ENDROOT
BRANCH  10  12
HETATM   12  C18 MIQ B 502       9.795 -10.563 -17.683  1.00139.82     0.187 C 
HETATM   13  C19 MIQ B 502       8.352 -10.888 -17.277  1.00140.06     0.247 C 
HETATM   14  O25 MIQ B 502       8.022 -10.736 -16.155  1.00143.95    -0.271 OA
HETATM   15  N20 MIQ B 502       7.380 -11.371 -18.235  1.00140.02    -0.296 N 
HETATM   16  H13 MIQ B 502       6.443 -11.585 -17.956  1.00142.77     0.171 HD
HETATM   17  C21 MIQ B 502       7.810 -11.558 -19.597  1.00142.22     0.224 C 
HETATM   18  C22 MIQ B 502       9.246 -11.998 -19.803  1.00139.52     0.106 C 
HETATM   19  O24 MIQ B 502       7.079 -11.371 -20.507  1.00146.13    -0.273 OA
HETATM   20  C23 MIQ B 502      10.118 -10.959 -19.123  1.00139.15     0.045 C 
ENDBRANCH  10  12
BRANCH   5  21
HETATM   21  N6  MIQ B 502      13.588 -15.309 -13.188  1.00140.95    -0.377 N 
HETATM   22  C7  MIQ B 502      14.660 -15.246 -12.210  1.00142.12     0.149 C 
HETATM   23  C8  MIQ B 502      15.389 -16.577 -12.078  1.00144.10     0.187 C 
HETATM   24  O9  MIQ B 502      14.520 -17.661 -11.941  1.00148.65    -0.388 OA
HETATM   25  C10 MIQ B 502      13.148 -17.499 -12.150  1.00147.44     0.187 C 
HETATM   26  C11 MIQ B 502      12.681 -16.443 -13.146  1.00144.08     0.149 C 
ENDBRANCH   5  21
TORSDOF 2
ENDMDL
MODEL 4
REMARK VINA RESULT:      -6.3      5.525      8.401
REMARK  2 active torsions:
REMARK  status: ('A' for Active; 'I' for Inactive)
REMARK    1  A    between atoms: C5_5  and  N6_21 
REMARK    2  A    between atoms: C18_14  and  N17_19 
ROOT
HETATM    1  O1  MIQ B 502      11.180 -11.118 -18.808  1.00142.91    -0.171 OA
HETATM    2  C2  MIQ B 502      10.766 -12.293 -18.176  1.00141.17     0.195 A 
HETATM    3  C3  MIQ B 502      11.029 -13.750 -18.675  1.00141.71     0.035 A 
HETATM    4  C4  MIQ B 502      11.730 -14.312 -19.853  1.00142.86     0.046 A 
HETATM    5  C5  MIQ B 502      11.807 -15.716 -20.039  1.00139.53     0.031 A 
HETATM    6  C12 MIQ B 502      11.193 -16.608 -19.066  1.00139.38     0.030 A 
HETATM    7  C13 MIQ B 502      10.521 -16.069 -17.936  1.00141.18     0.019 A 
HETATM    8  C14 MIQ B 502      10.447 -14.595 -17.744  1.00138.77     0.033 A 
HETATM    9  C15 MIQ B 502       9.819 -13.657 -16.661  1.00142.10     0.195 A 
HETATM   10  N17 MIQ B 502      10.088 -12.421 -17.049  1.00139.42    -0.288 N 
HETATM   11  O16 MIQ B 502       9.117 -14.051 -15.521  1.00148.93    -0.171 OA
ENDROOT
BRANCH  10  12
HETATM   12  C18 MIQ B 502       9.639 -11.273 -16.283  1.00139.82     0.187 C 
HETATM   13  C19 MIQ B 502       8.942 -10.309 -17.250  1.00140.06     0.247 C 
HETATM   14  O25 MIQ B 502       8.098 -10.719 -17.964  1.00143.95    -0.271 OA
HETATM   15  N20 MIQ B 502       9.288  -8.903 -17.309  1.00140.02    -0.296 N 
HETATM   16  H13 MIQ B 502       8.831  -8.285 -17.950  1.00142.77     0.171 HD
HETATM   17  C21 MIQ B 502      10.330  -8.428 -16.435  1.00142.22     0.224 C 
HETATM   18  C22 MIQ B 502      11.458  -9.395 -16.130  1.00139.52     0.106 C 
HETATM   19  O24 MIQ B 502      10.302  -7.340 -15.975  1.00146.13    -0.273 OA
HETATM   20  C23 MIQ B 502      10.813 -10.637 -15.541  1.00139.15     0.045 C 
ENDBRANCH  10  12
BRANCH   5  21
HETATM   21  N6  MIQ B 502      12.483 -16.253 -21.205  1.00140.95    -0.377 N 
HETATM   22  C7  MIQ B 502      13.935 -16.303 -21.204  1.00142.12     0.149 C 
HETATM   23  C8  MIQ B 502      14.508 -16.254 -22.615  1.00144.10     0.187 C 
HETATM   24  O9  MIQ B 502      13.880 -17.146 -23.487  1.00148.65    -0.388 OA
HETATM   25  C10 MIQ B 502      12.710 -17.806 -23.103  1.00147.44     0.187 C 
HETATM   26  C11 MIQ B 502      11.763 -17.108 -22.132  1.00144.08     0.149 C 
ENDBRANCH   5  21
TORSDOF 2
ENDMDL
MODEL 5
REMARK VINA RESULT:      -6.1      2.008      7.906
REMARK  2 active torsions:
REMARK  status: ('A' for Active; 'I' for Inactive)
REMARK    1  A    between atoms: C5_5  and  N6_21 
REMARK    2  A    between atoms: C18_14  and  N17_19 
ROOT
HETATM    1  O1  MIQ B 502      13.041 -11.321 -15.358  1.00142.91    -0.171 OA
HETATM    2  C2  MIQ B 502      12.260 -12.406 -14.956  1.00141.17     0.195 A 
HETATM    3  C3  MIQ B 502      12.723 -13.591 -14.049  1.00141.71     0.035 A 
HETATM    4  C4  MIQ B 502      14.004 -13.922 -13.381  1.00142.86     0.046 A 
HETATM    5  C5  MIQ B 502      14.122 -15.100 -12.601  1.00139.53     0.031 A 
HETATM    6  C12 MIQ B 502      12.977 -15.987 -12.455  1.00139.38     0.030 A 
HETATM    7  C13 MIQ B 502      11.748 -15.669 -13.094  1.00141.18     0.019 A 
HETATM    8  C14 MIQ B 502      11.630 -14.430 -13.911  1.00138.77     0.033 A 
HETATM    9  C15 MIQ B 502      10.481 -13.763 -14.735  1.00142.10     0.195 A 
HETATM   10  N17 MIQ B 502      10.994 -12.655 -15.245  1.00139.42    -0.288 N 
HETATM   11  O16 MIQ B 502       9.181 -14.245 -14.900  1.00148.93    -0.171 OA
ENDROOT
BRANCH  10  12
HETATM   12  C18 MIQ B 502      10.208 -11.777 -16.092  1.00139.82     0.187 C 
HETATM   13  C19 MIQ B 502      10.854 -11.768 -17.483  1.00140.06     0.247 C 
HETATM   14  O25 MIQ B 502      11.093 -12.794 -18.014  1.00143.95    -0.271 OA
HETATM   15  N20 MIQ B 502      11.175 -10.533 -18.168  1.00140.02    -0.296 N 
HETATM   16  H13 MIQ B 502      11.603 -10.540 -19.073  1.00142.77     0.171 HD
HETATM   17  C21 MIQ B 502      10.884  -9.293 -17.495  1.00142.22     0.224 C 
HETATM   18  C22 MIQ B 502      11.019  -9.290 -15.985  1.00139.52     0.106 C 
HETATM   19  O24 MIQ B 502      10.550  -8.329 -18.092  1.00146.13    -0.273 OA
HETATM   20  C23 MIQ B 502      10.107 -10.387 -15.467  1.00139.15     0.045 C 
ENDBRANCH  10  12
BRANCH   5  21
HETATM   21  N6  MIQ B 502      15.386 -15.420 -11.965  1.00140.95    -0.377 N 
HETATM   22  C7  MIQ B 502      16.271 -14.330 -11.591  1.00142.12     0.149 C 
HETATM   23  C8  MIQ B 502      17.730 -14.767 -11.557  1.00144.10     0.187 C 
HETATM   24  O9  MIQ B 502      17.923 -15.960 -10.857  1.00148.65    -0.388 OA
HETATM   25  C10 MIQ B 502      16.829 -16.734 -10.462  1.00147.44     0.187 C 
HETATM   26  C11 MIQ B 502      15.570 -16.709 -11.322  1.00144.08     0.149 C 
ENDBRANCH   5  21
TORSDOF 2
ENDMDL
MODEL 6
REMARK VINA RESULT:      -6.1      2.581      8.275
REMARK  2 active torsions:
REMARK  status: ('A' for Active; 'I' for Inactive)
REMARK    1  A    between atoms: C5_5  and  N6_21 
REMARK    2  A    between atoms: C18_14  and  N17_19 
ROOT
HETATM    1  O1  MIQ B 502      11.214 -10.488 -15.042  1.00142.91    -0.171 OA
HETATM    2  C2  MIQ B 502      11.055 -11.785 -15.535  1.00141.17     0.195 A 
HETATM    3  C3  MIQ B 502      11.791 -13.064 -15.021  1.00141.71     0.035 A 
HETATM    4  C4  MIQ B 502      12.791 -13.304 -13.954  1.00142.86     0.046 A 
HETATM    5  C5  MIQ B 502      13.285 -14.612 -13.717  1.00139.53     0.031 A 
HETATM    6  C12 MIQ B 502      12.806 -15.724 -14.526  1.00139.38     0.030 A 
HETATM    7  C13 MIQ B 502      11.846 -15.493 -15.548  1.00141.18     0.019 A 
HETATM    8  C14 MIQ B 502      11.329 -14.119 -15.791  1.00138.77     0.033 A 
HETATM    9  C15 MIQ B 502      10.301 -13.492 -16.788  1.00142.10     0.195 A 
HETATM   10  N17 MIQ B 502      10.266 -12.199 -16.512  1.00139.42    -0.288 N 
HETATM   11  O16 MIQ B 502       9.573 -14.165 -17.771  1.00148.93    -0.171 OA
ENDROOT
BRANCH  10  12
HETATM   12  C18 MIQ B 502       9.420 -11.287 -17.259  1.00139.82     0.187 C 
HETATM   13  C19 MIQ B 502       7.979 -11.803 -17.165  1.00140.06     0.247 C 
HETATM   14  O25 MIQ B 502       7.525 -12.056 -16.106  1.00143.95    -0.271 OA
HETATM   15  N20 MIQ B 502       7.154 -11.983 -18.342  1.00140.02    -0.296 N 
HETATM   16  H13 MIQ B 502       6.217 -12.327 -18.268  1.00142.77     0.171 HD
HETATM   17  C21 MIQ B 502       7.733 -11.678 -19.625  1.00142.22     0.224 C 
HETATM   18  C22 MIQ B 502       9.217 -11.949 -19.785  1.00139.52     0.106 C 
HETATM   19  O24 MIQ B 502       7.084 -11.233 -20.506  1.00146.13    -0.273 OA
HETATM   20  C23 MIQ B 502       9.920 -11.157 -18.697  1.00139.15     0.045 C 
ENDBRANCH  10  12
BRANCH   5  21
HETATM   21  N6  MIQ B 502      14.276 -14.831 -12.678  1.00140.95    -0.377 N 
HETATM   22  C7  MIQ B 502      15.383 -13.896 -12.566  1.00142.12     0.149 C 
HETATM   23  C8  MIQ B 502      16.613 -14.544 -11.944  1.00144.10     0.187 C 
HETATM   24  O9  MIQ B 502      16.320 -15.264 -10.784  1.00148.65    -0.388 OA
HETATM   25  C10 MIQ B 502      14.993 -15.517 -10.424  1.00147.44     0.187 C 
HETATM   26  C11 MIQ B 502      13.952 -15.659 -11.530  1.00144.08     0.149 C 
ENDBRANCH   5  21
TORSDOF 2
ENDMDL
MODEL 7
REMARK VINA RESULT:      -6.1      1.426      2.433
REMARK  2 active torsions:
REMARK  status: ('A' for Active; 'I' for Inactive)
REMARK    1  A    between atoms: C5_5  and  N6_21 
REMARK    2  A    between atoms: C18_14  and  N17_19 
ROOT
HETATM    1  O1  MIQ B 502      11.336 -16.386 -13.400  1.00142.91    -0.171 OA
HETATM    2  C2  MIQ B 502      12.280 -15.360 -13.318  1.00141.17     0.195 A 
HETATM    3  C3  MIQ B 502      12.207 -13.979 -14.044  1.00141.71     0.035 A 
HETATM    4  C4  MIQ B 502      11.219 -13.361 -14.960  1.00142.86     0.046 A 
HETATM    5  C5  MIQ B 502      11.434 -12.055 -15.469  1.00139.53     0.031 A 
HETATM    6  C12 MIQ B 502      12.631 -11.318 -15.089  1.00139.38     0.030 A 
HETATM    7  C13 MIQ B 502      13.577 -11.911 -14.209  1.00141.18     0.019 A 
HETATM    8  C14 MIQ B 502      13.345 -13.281 -13.676  1.00138.77     0.033 A 
HETATM    9  C15 MIQ B 502      14.129 -14.233 -12.716  1.00142.10     0.195 A 
HETATM   10  N17 MIQ B 502      13.404 -15.336 -12.622  1.00139.42    -0.288 N 
HETATM   11  O16 MIQ B 502      15.348 -13.970 -12.089  1.00148.93    -0.171 OA
ENDROOT
BRANCH  10  12
HETATM   12  C18 MIQ B 502      13.837 -16.461 -11.815  1.00139.82     0.187 C 
HETATM   13  C19 MIQ B 502      13.892 -15.996 -10.355  1.00140.06     0.247 C 
HETATM   14  O25 MIQ B 502      12.954 -15.454  -9.888  1.00143.95    -0.271 OA
HETATM   15  N20 MIQ B 502      15.063 -16.209  -9.529  1.00140.02    -0.296 N 
HETATM   16  H13 MIQ B 502      15.088 -15.895  -8.579  1.00142.77     0.171 HD
HETATM   17  C21 MIQ B 502      16.199 -16.863 -10.125  1.00142.22     0.224 C 
HETATM   18  C22 MIQ B 502      16.443 -16.597 -11.598  1.00139.52     0.106 C 
HETATM   19  O24 MIQ B 502      16.901 -17.577  -9.497  1.00146.13    -0.273 OA
HETATM   20  C23 MIQ B 502      15.173 -16.999 -12.326  1.00139.15     0.045 C 
ENDBRANCH  10  12
BRANCH   5  21
HETATM   21  N6  MIQ B 502      10.466 -11.467 -16.377  1.00140.95    -0.377 N 
HETATM   22  C7  MIQ B 502       9.897 -10.173 -16.044  1.00142.12     0.149 C 
HETATM   23  C8  MIQ B 502       8.517  -9.982 -16.659  1.00144.10     0.187 C 
HETATM   24  O9  MIQ B 502       8.473 -10.323 -18.012  1.00148.65    -0.388 OA
HETATM   25  C10 MIQ B 502       9.550 -10.981 -18.612  1.00147.44     0.187 C 
HETATM   26  C11 MIQ B 502      10.400 -11.916 -17.757  1.00144.08     0.149 C 
ENDBRANCH   5  21
TORSDOF 2
ENDMDL
MODEL 8
REMARK VINA RESULT:      -5.9      3.480      8.777
REMARK  2 active torsions:
REMARK  status: ('A' for Active; 'I' for Inactive)
REMARK    1  A    between atoms: C5_5  and  N6_21 
REMARK    2  A    between atoms: C18_14  and  N17_19 
ROOT
HETATM    1  O1  MIQ B 502       9.878 -14.099 -18.365  1.00142.91    -0.171 OA
HETATM    2  C2  MIQ B 502      10.078 -12.849 -17.775  1.00141.17     0.195 A 
HETATM    3  C3  MIQ B 502      10.898 -12.562 -16.477  1.00141.71     0.035 A 
HETATM    4  C4  MIQ B 502      11.660 -13.423 -15.541  1.00142.86     0.046 A 
HETATM    5  C5  MIQ B 502      12.319 -12.857 -14.421  1.00139.53     0.031 A 
HETATM    6  C12 MIQ B 502      12.248 -11.421 -14.191  1.00139.38     0.030 A 
HETATM    7  C13 MIQ B 502      11.519 -10.595 -15.088  1.00141.18     0.019 A 
HETATM    8  C14 MIQ B 502      10.831 -11.195 -16.263  1.00138.77     0.033 A 
HETATM    9  C15 MIQ B 502       9.964 -10.629 -17.436  1.00142.10     0.195 A 
HETATM   10  N17 MIQ B 502       9.632 -11.672 -18.179  1.00139.42    -0.288 N 
HETATM   11  O16 MIQ B 502       9.613  -9.295 -17.647  1.00148.93    -0.171 OA
ENDROOT
BRANCH  10  12
HETATM   12  C18 MIQ B 502       8.804 -11.525 -19.362  1.00139.82     0.187 C 
HETATM   13  C19 MIQ B 502       7.644 -12.522 -19.247  1.00140.06     0.247 C 
HETATM   14  O25 MIQ B 502       7.000 -12.546 -18.259  1.00143.95    -0.271 OA
HETATM   15  N20 MIQ B 502       7.312 -13.434 -20.323  1.00140.02    -0.296 N 
HETATM   16  H13 MIQ B 502       6.556 -14.085 -20.233  1.00142.77     0.171 HD
HETATM   17  C21 MIQ B 502       8.119 -13.393 -21.515  1.00142.22     0.224 C 
HETATM   18  C22 MIQ B 502       9.587 -13.061 -21.333  1.00139.52     0.106 C 
HETATM   19  O24 MIQ B 502       7.656 -13.604 -22.582  1.00146.13    -0.273 OA
HETATM   20  C23 MIQ B 502       9.641 -11.719 -20.625  1.00139.15     0.045 C 
ENDBRANCH  10  12
BRANCH   5  21
HETATM   21  N6  MIQ B 502      13.049 -13.714 -13.505  1.00140.95    -0.377 N 
HETATM   22  C7  MIQ B 502      14.391 -13.324 -13.108  1.00142.12     0.149 C 
HETATM   23  C8  MIQ B 502      15.242 -14.527 -12.721  1.00144.10     0.187 C 
HETATM   24  O9  MIQ B 502      14.588 -15.395 -11.844  1.00148.65    -0.388 OA
HETATM   25  C10 MIQ B 502      13.225 -15.241 -11.580  1.00147.44     0.187 C 
HETATM   26  C11 MIQ B 502      12.331 -14.665 -12.673  1.00144.08     0.149 C 
ENDBRANCH   5  21
TORSDOF 2
ENDMDL
MODEL 9
REMARK VINA RESULT:      -5.9      3.636      5.357
REMARK  2 active torsions:
REMARK  status: ('A' for Active; 'I' for Inactive)
REMARK    1  A    between atoms: C5_5  and  N6_21 
REMARK    2  A    between atoms: C18_14  and  N17_19 
ROOT
HETATM    1  O1  MIQ B 502      11.779 -15.059 -15.205  1.00142.91    -0.171 OA
HETATM    2  C2  MIQ B 502      11.595 -13.714 -15.530  1.00141.17     0.195 A 
HETATM    3  C3  MIQ B 502      11.122 -13.154 -16.909  1.00141.71     0.035 A 
HETATM    4  C4  MIQ B 502      10.748 -13.792 -18.194  1.00142.86     0.046 A 
HETATM    5  C5  MIQ B 502      10.348 -12.999 -19.298  1.00139.53     0.031 A 
HETATM    6  C12 MIQ B 502      10.304 -11.549 -19.169  1.00139.38     0.030 A 
HETATM    7  C13 MIQ B 502      10.662 -10.937 -17.938  1.00141.18     0.019 A 
HETATM    8  C14 MIQ B 502      11.079 -11.775 -16.780  1.00138.77     0.033 A 
HETATM    9  C15 MIQ B 502      11.527 -11.477 -15.312  1.00142.10     0.195 A 
HETATM   10  N17 MIQ B 502      11.772 -12.654 -14.759  1.00139.42    -0.288 N 
HETATM   11  O16 MIQ B 502      11.646 -10.222 -14.713  1.00148.93    -0.171 OA
ENDROOT
BRANCH  10  12
HETATM   12  C18 MIQ B 502      12.231 -12.765 -13.387  1.00139.82     0.187 C 
HETATM   13  C19 MIQ B 502      13.535 -13.572 -13.394  1.00140.06     0.247 C 
HETATM   14  O25 MIQ B 502      14.405 -13.254 -14.124  1.00143.95    -0.271 OA
HETATM   15  N20 MIQ B 502      13.733 -14.712 -12.522  1.00140.02    -0.296 N 
HETATM   16  H13 MIQ B 502      14.586 -15.234 -12.541  1.00142.77     0.171 HD
HETATM   17  C21 MIQ B 502      12.652 -15.087 -11.647  1.00142.22     0.224 C 
HETATM   18  C22 MIQ B 502      11.245 -14.862 -12.166  1.00139.52     0.106 C 
HETATM   19  O24 MIQ B 502      12.855 -15.542 -10.575  1.00146.13    -0.273 OA
HETATM   20  C23 MIQ B 502      11.144 -13.387 -12.512  1.00139.15     0.045 C 
ENDBRANCH  10  12
BRANCH   5  21
HETATM   21  N6  MIQ B 502       9.998 -13.637 -20.555  1.00140.95    -0.377 N 
HETATM   22  C7  MIQ B 502       9.651 -12.796 -21.687  1.00142.12     0.149 C 
HETATM   23  C8  MIQ B 502       8.726 -13.511 -22.664  1.00144.10     0.187 C 
HETATM   24  O9  MIQ B 502       9.167 -14.796 -22.988  1.00148.65    -0.388 OA
HETATM   25  C10 MIQ B 502      10.216 -15.384 -22.277  1.00147.44     0.187 C 
HETATM   26  C11 MIQ B 502      10.406 -15.007 -20.811  1.00144.08     0.149 C 
ENDBRANCH   5  21
TORSDOF 2
ENDMDL
