MODEL 1
REMARK VINA RESULT:      -6.6      0.000      0.000
REMARK  2 active torsions:
REMARK  status: ('A' for Active; 'I' for Inactive)
REMARK    1  A    between atoms: C5_5  and  N6_21 
REMARK    2  A    between atoms: C18_14  and  N17_19 
ROOT
HETATM    1  O1  MIQ B 502     -13.692  -3.750  18.270  1.00142.91    -0.171 OA
HETATM    2  C2  MIQ B 502     -13.105  -3.659  17.006  1.00141.17     0.195 A 
HETATM    3  C3  MIQ B 502     -12.366  -4.807  16.247  1.00141.71     0.035 A 
HETATM    4  C4  MIQ B 502     -12.073  -6.222  16.576  1.00142.86     0.046 A 
HETATM    5  C5  MIQ B 502     -11.364  -7.039  15.659  1.00139.53     0.031 A 
HETATM    6  C12 MIQ B 502     -10.922  -6.483  14.388  1.00139.38     0.030 A 
HETATM    7  C13 MIQ B 502     -11.203  -5.126  14.072  1.00141.18     0.019 A 
HETATM    8  C14 MIQ B 502     -11.950  -4.274  15.038  1.00138.77     0.033 A 
HETATM    9  C15 MIQ B 502     -12.435  -2.788  15.045  1.00142.10     0.195 A 
HETATM   10  N17 MIQ B 502     -13.056  -2.612  16.200  1.00139.42    -0.288 N 
HETATM   11  O16 MIQ B 502     -12.246  -1.842  14.036  1.00148.93    -0.171 OA
ENDROOT
BRANCH  10  12
HETATM   12  C18 MIQ B 502     -13.630  -1.330  16.564  1.00139.82     0.187 C 
HETATM   13  C19 MIQ B 502     -14.582  -0.907  15.437  1.00140.06     0.247 C 
HETATM   14  O25 MIQ B 502     -15.402  -1.667  15.061  1.00143.95    -0.271 OA
HETATM   15  N20 MIQ B 502     -14.505   0.403  14.825  1.00140.02    -0.296 N 
HETATM   16  H13 MIQ B 502     -15.127   0.664  14.086  1.00142.77     0.171 HD
HETATM   17  C21 MIQ B 502     -13.488   1.309  15.294  1.00142.22     0.224 C 
HETATM   18  C22 MIQ B 502     -12.179   0.689  15.743  1.00139.52     0.106 C 
HETATM   19  O24 MIQ B 502     -13.669   2.476  15.331  1.00146.13    -0.273 OA
HETATM   20  C23 MIQ B 502     -12.526  -0.310  16.832  1.00139.15     0.045 C 
ENDBRANCH  10  12
BRANCH   5  21
HETATM   21  N6  MIQ B 502     -11.071  -8.419  16.000  1.00140.95    -0.377 N 
HETATM   22  C7  MIQ B 502     -11.923  -9.091  16.966  1.00142.12     0.149 C 
HETATM   23  C8  MIQ B 502     -11.187 -10.210  17.692  1.00144.10     0.187 C 
HETATM   24  O9  MIQ B 502     -10.487 -11.052  16.826  1.00148.65    -0.388 OA
HETATM   25  C10 MIQ B 502     -10.328 -10.709  15.481  1.00147.44     0.187 C 
HETATM   26  C11 MIQ B 502     -10.265  -9.232  15.107  1.00144.08     0.149 C 
ENDBRANCH   5  21
TORSDOF 2
ENDMDL
MODEL 2
REMARK VINA RESULT:      -6.4     28.105     29.730
REMARK  2 active torsions:
REMARK  status: ('A' for Active; 'I' for Inactive)
REMARK    1  A    between atoms: C5_5  and  N6_21 
REMARK    2  A    between atoms: C18_14  and  N17_19 
ROOT
HETATM    1  O1  MIQ B 502      14.257  10.341  22.461  1.00142.91    -0.171 OA
HETATM    2  C2  MIQ B 502      13.174   9.804  21.760  1.00141.17     0.195 A 
HETATM    3  C3  MIQ B 502      13.257   8.821  20.548  1.00141.71     0.035 A 
HETATM    4  C4  MIQ B 502      14.385   8.196  19.818  1.00142.86     0.046 A 
HETATM    5  C5  MIQ B 502      14.137   7.321  18.730  1.00139.53     0.031 A 
HETATM    6  C12 MIQ B 502      12.767   7.037  18.329  1.00139.38     0.030 A 
HETATM    7  C13 MIQ B 502      11.685   7.635  19.029  1.00141.18     0.019 A 
HETATM    8  C14 MIQ B 502      11.951   8.551  20.172  1.00138.77     0.033 A 
HETATM    9  C15 MIQ B 502      11.053   9.369  21.157  1.00142.10     0.195 A 
HETATM   10  N17 MIQ B 502      11.884  10.001  21.969  1.00139.42    -0.288 N 
HETATM   11  O16 MIQ B 502       9.658   9.420  21.170  1.00148.93    -0.171 OA
ENDROOT
BRANCH  10  12
HETATM   12  C18 MIQ B 502      11.398  10.880  23.016  1.00139.82     0.187 C 
HETATM   13  C19 MIQ B 502      12.080  12.242  22.839  1.00140.06     0.247 C 
HETATM   14  O25 MIQ B 502      12.058  12.764  21.781  1.00143.95    -0.271 OA
HETATM   15  N20 MIQ B 502      12.747  12.910  23.937  1.00140.02    -0.296 N 
HETATM   16  H13 MIQ B 502      13.195  13.796  23.807  1.00142.77     0.171 HD
HETATM   17  C21 MIQ B 502      12.770  12.249  25.216  1.00142.22     0.224 C 
HETATM   18  C22 MIQ B 502      12.838  10.734  25.198  1.00139.52     0.106 C 
HETATM   19  O24 MIQ B 502      12.731  12.858  26.228  1.00146.13    -0.273 OA
HETATM   20  C23 MIQ B 502      11.645  10.258  24.390  1.00139.15     0.045 C 
ENDBRANCH  10  12
BRANCH   5  21
HETATM   21  N6  MIQ B 502      15.252   6.728  18.014  1.00140.95    -0.377 N 
HETATM   22  C7  MIQ B 502      14.970   5.758  16.970  1.00142.12     0.149 C 
HETATM   23  C8  MIQ B 502      16.123   4.783  16.772  1.00144.10     0.187 C 
HETATM   24  O9  MIQ B 502      17.362   5.420  16.676  1.00148.65    -0.388 OA
HETATM   25  C10 MIQ B 502      17.484   6.780  16.974  1.00147.44     0.187 C 
HETATM   26  C11 MIQ B 502      16.547   7.385  18.014  1.00144.08     0.149 C 
ENDBRANCH   5  21
TORSDOF 2
ENDMDL
MODEL 3
REMARK VINA RESULT:      -6.3     28.060     30.092
REMARK  2 active torsions:
REMARK  status: ('A' for Active; 'I' for Inactive)
REMARK    1  A    between atoms: C5_5  and  N6_21 
REMARK    2  A    between atoms: C18_14  and  N17_19 
ROOT
HETATM    1  O1  MIQ B 502      14.402   8.240  20.304  1.00142.91    -0.171 OA
HETATM    2  C2  MIQ B 502      13.173   8.388  20.951  1.00141.17     0.195 A 
HETATM    3  C3  MIQ B 502      12.951   8.936  22.397  1.00141.71     0.035 A 
HETATM    4  C4  MIQ B 502      13.869   9.430  23.451  1.00142.86     0.046 A 
HETATM    5  C5  MIQ B 502      13.356   9.875  24.696  1.00139.53     0.031 A 
HETATM    6  C12 MIQ B 502      11.921   9.846  24.939  1.00139.38     0.030 A 
HETATM    7  C13 MIQ B 502      11.041   9.373  23.928  1.00141.18     0.019 A 
HETATM    8  C14 MIQ B 502      11.585   8.910  22.622  1.00138.77     0.033 A 
HETATM    9  C15 MIQ B 502      10.954   8.343  21.308  1.00142.10     0.195 A 
HETATM   10  N17 MIQ B 502      11.966   8.110  20.489  1.00139.42    -0.288 N 
HETATM   11  O16 MIQ B 502       9.598   8.127  21.058  1.00148.93    -0.171 OA
ENDROOT
BRANCH  10  12
HETATM   12  C18 MIQ B 502      11.755   7.558  19.163  1.00139.82     0.187 C 
HETATM   13  C19 MIQ B 502      12.605   6.286  19.046  1.00140.06     0.247 C 
HETATM   14  O25 MIQ B 502      12.525   5.461  19.885  1.00143.95    -0.271 OA
HETATM   15  N20 MIQ B 502      13.500   6.067  17.929  1.00140.02    -0.296 N 
HETATM   16  H13 MIQ B 502      14.055   5.235  17.867  1.00142.77     0.171 HD
HETATM   17  C21 MIQ B 502      13.588   7.094  16.923  1.00142.22     0.224 C 
HETATM   18  C22 MIQ B 502      13.427   8.526  17.395  1.00139.52     0.106 C 
HETATM   19  O24 MIQ B 502      13.772   6.831  15.785  1.00146.13    -0.273 OA
HETATM   20  C23 MIQ B 502      12.082   8.600  18.095  1.00139.15     0.045 C 
ENDBRANCH  10  12
BRANCH   5  21
HETATM   21  N6  MIQ B 502      14.268  10.343  25.724  1.00140.95    -0.377 N 
HETATM   22  C7  MIQ B 502      15.546   9.671  25.878  1.00142.12     0.149 C 
HETATM   23  C8  MIQ B 502      16.085   9.789  27.298  1.00144.10     0.187 C 
HETATM   24  O9  MIQ B 502      16.034  11.094  27.791  1.00148.65    -0.388 OA
HETATM   25  C10 MIQ B 502      15.337  12.087  27.097  1.00147.44     0.187 C 
HETATM   26  C11 MIQ B 502      14.121  11.681  26.269  1.00144.08     0.149 C 
ENDBRANCH   5  21
TORSDOF 2
ENDMDL
MODEL 4
REMARK VINA RESULT:      -6.3     28.698     31.085
REMARK  2 active torsions:
REMARK  status: ('A' for Active; 'I' for Inactive)
REMARK    1  A    between atoms: C5_5  and  N6_21 
REMARK    2  A    between atoms: C18_14  and  N17_19 
ROOT
HETATM    1  O1  MIQ B 502      12.612   9.046  23.179  1.00142.91    -0.171 OA
HETATM    2  C2  MIQ B 502      12.383  10.392  22.884  1.00141.17     0.195 A 
HETATM    3  C3  MIQ B 502      12.510  11.589  23.879  1.00141.71     0.035 A 
HETATM    4  C4  MIQ B 502      12.877  11.689  25.312  1.00142.86     0.046 A 
HETATM    5  C5  MIQ B 502      12.906  12.951  25.958  1.00139.53     0.031 A 
HETATM    6  C12 MIQ B 502      12.572  14.154  25.209  1.00139.38     0.030 A 
HETATM    7  C13 MIQ B 502      12.221  14.059  23.836  1.00141.18     0.019 A 
HETATM    8  C14 MIQ B 502      12.195  12.732  23.162  1.00138.77     0.033 A 
HETATM    9  C15 MIQ B 502      11.872  12.241  21.713  1.00142.10     0.195 A 
HETATM   10  N17 MIQ B 502      12.026  10.927  21.729  1.00139.42    -0.288 N 
HETATM   11  O16 MIQ B 502      11.496  13.033  20.626  1.00148.93    -0.171 OA
ENDROOT
BRANCH  10  12
HETATM   12  C18 MIQ B 502      11.791  10.122  20.545  1.00139.82     0.187 C 
HETATM   13  C19 MIQ B 502      10.861   8.969  20.940  1.00140.06     0.247 C 
HETATM   14  O25 MIQ B 502       9.859   9.208  21.515  1.00143.95    -0.271 OA
HETATM   15  N20 MIQ B 502      11.175   7.591  20.621  1.00140.02    -0.296 N 
HETATM   16  H13 MIQ B 502      10.563   6.847  20.891  1.00142.77     0.171 HD
HETATM   17  C21 MIQ B 502      12.409   7.324  19.928  1.00142.22     0.224 C 
HETATM   18  C22 MIQ B 502      13.580   8.233  20.245  1.00139.52     0.106 C 
HETATM   19  O24 MIQ B 502      12.499   6.441  19.147  1.00146.13    -0.273 OA
HETATM   20  C23 MIQ B 502      13.118   9.649  19.953  1.00139.15     0.045 C 
ENDBRANCH  10  12
BRANCH   5  21
HETATM   21  N6  MIQ B 502      13.253  13.032  27.365  1.00140.95    -0.377 N 
HETATM   22  C7  MIQ B 502      14.134  12.021  27.923  1.00142.12     0.149 C 
HETATM   23  C8  MIQ B 502      13.905  11.828  29.416  1.00144.10     0.187 C 
HETATM   24  O9  MIQ B 502      13.861  13.034  30.119  1.00148.65    -0.388 OA
HETATM   25  C10 MIQ B 502      13.802  14.251  29.434  1.00147.44     0.187 C 
HETATM   26  C11 MIQ B 502      13.109  14.290  28.076  1.00144.08     0.149 C 
ENDBRANCH   5  21
TORSDOF 2
ENDMDL
MODEL 5
REMARK VINA RESULT:      -6.2     18.144     20.671
REMARK  2 active torsions:
REMARK  status: ('A' for Active; 'I' for Inactive)
REMARK    1  A    between atoms: C5_5  and  N6_21 
REMARK    2  A    between atoms: C18_14  and  N17_19 
ROOT
HETATM    1  O1  MIQ B 502       6.932 -10.361  16.771  1.00142.91    -0.171 OA
HETATM    2  C2  MIQ B 502       6.688  -9.291  15.906  1.00141.17     0.195 A 
HETATM    3  C3  MIQ B 502       7.763  -8.482  15.113  1.00141.71     0.035 A 
HETATM    4  C4  MIQ B 502       9.240  -8.570  15.019  1.00142.86     0.046 A 
HETATM    5  C5  MIQ B 502       9.960  -7.673  14.190  1.00139.53     0.031 A 
HETATM    6  C12 MIQ B 502       9.243  -6.661  13.427  1.00139.38     0.030 A 
HETATM    7  C13 MIQ B 502       7.827  -6.577  13.516  1.00141.18     0.019 A 
HETATM    8  C14 MIQ B 502       7.077  -7.524  14.386  1.00138.77     0.033 A 
HETATM    9  C15 MIQ B 502       5.566  -7.739  14.729  1.00142.10     0.195 A 
HETATM   10  N17 MIQ B 502       5.526  -8.753  15.578  1.00139.42    -0.288 N 
HETATM   11  O16 MIQ B 502       4.485  -7.005  14.239  1.00148.93    -0.171 OA
ENDROOT
BRANCH  10  12
HETATM   12  C18 MIQ B 502       4.271  -9.228  16.131  1.00139.82     0.187 C 
HETATM   13  C19 MIQ B 502       3.332  -9.541  14.959  1.00140.06     0.247 C 
HETATM   14  O25 MIQ B 502       3.716 -10.230  14.082  1.00143.95    -0.271 OA
HETATM   15  N20 MIQ B 502       1.983  -9.018  14.901  1.00140.02    -0.296 N 
HETATM   16  H13 MIQ B 502       1.382  -9.225  14.127  1.00142.77     0.171 HD
HETATM   17  C21 MIQ B 502       1.541  -8.171  15.978  1.00142.22     0.224 C 
HETATM   18  C22 MIQ B 502       2.589  -7.281  16.619  1.00139.52     0.106 C 
HETATM   19  O24 MIQ B 502       0.417  -8.174  16.346  1.00146.13    -0.273 OA
HETATM   20  C23 MIQ B 502       3.696  -8.200  17.104  1.00139.15     0.045 C 
ENDBRANCH  10  12
BRANCH   5  21
HETATM   21  N6  MIQ B 502      11.407  -7.760  14.119  1.00140.95    -0.377 N 
HETATM   22  C7  MIQ B 502      12.192  -6.593  14.482  1.00142.12     0.149 C 
HETATM   23  C8  MIQ B 502      13.545  -6.578  13.783  1.00144.10     0.187 C 
HETATM   24  O9  MIQ B 502      14.216  -7.799  13.871  1.00148.65    -0.388 OA
HETATM   25  C10 MIQ B 502      13.559  -8.934  14.355  1.00147.44     0.187 C 
HETATM   26  C11 MIQ B 502      12.056  -9.059  14.128  1.00144.08     0.149 C 
ENDBRANCH   5  21
TORSDOF 2
ENDMDL
MODEL 6
REMARK VINA RESULT:      -6.1     10.894     12.219
REMARK  2 active torsions:
REMARK  status: ('A' for Active; 'I' for Inactive)
REMARK    1  A    between atoms: C5_5  and  N6_21 
REMARK    2  A    between atoms: C18_14  and  N17_19 
ROOT
HETATM    1  O1  MIQ B 502      -4.654  -5.952  21.015  1.00142.91    -0.171 OA
HETATM    2  C2  MIQ B 502      -4.501  -5.590  22.355  1.00141.17     0.195 A 
HETATM    3  C3  MIQ B 502      -3.254  -5.878  23.251  1.00141.71     0.035 A 
HETATM    4  C4  MIQ B 502      -1.957  -6.552  23.006  1.00142.86     0.046 A 
HETATM    5  C5  MIQ B 502      -0.998  -6.659  24.045  1.00139.53     0.031 A 
HETATM    6  C12 MIQ B 502      -1.290  -6.103  25.358  1.00139.38     0.030 A 
HETATM    7  C13 MIQ B 502      -2.533  -5.456  25.593  1.00141.18     0.019 A 
HETATM    8  C14 MIQ B 502      -3.535  -5.344  24.498  1.00138.77     0.033 A 
HETATM    9  C15 MIQ B 502      -4.964  -4.721  24.376  1.00142.10     0.195 A 
HETATM   10  N17 MIQ B 502      -5.353  -4.941  23.130  1.00139.42    -0.288 N 
HETATM   11  O16 MIQ B 502      -5.681  -4.069  25.380  1.00148.93    -0.171 OA
ENDROOT
BRANCH  10  12
HETATM   12  C18 MIQ B 502      -6.654  -4.509  22.656  1.00139.82     0.187 C 
HETATM   13  C19 MIQ B 502      -7.347  -5.722  22.021  1.00140.06     0.247 C 
HETATM   14  O25 MIQ B 502      -7.412  -6.731  22.629  1.00143.95    -0.271 OA
HETATM   15  N20 MIQ B 502      -7.929  -5.662  20.696  1.00140.02    -0.296 N 
HETATM   16  H13 MIQ B 502      -8.373  -6.462  20.291  1.00142.77     0.171 HD
HETATM   17  C21 MIQ B 502      -7.827  -4.422  19.970  1.00142.22     0.224 C 
HETATM   18  C22 MIQ B 502      -6.576  -3.598  20.202  1.00139.52     0.106 C 
HETATM   19  O24 MIQ B 502      -8.681  -4.065  19.235  1.00146.13    -0.273 OA
HETATM   20  C23 MIQ B 502      -6.505  -3.331  21.695  1.00139.15     0.045 C 
ENDBRANCH  10  12
BRANCH   5  21
HETATM   21  N6  MIQ B 502       0.262  -7.335  23.795  1.00140.95    -0.377 N 
HETATM   22  C7  MIQ B 502       0.825  -7.284  22.457  1.00142.12     0.149 C 
HETATM   23  C8  MIQ B 502       1.715  -8.485  22.168  1.00144.10     0.187 C 
HETATM   24  O9  MIQ B 502       2.631  -8.742  23.190  1.00148.65    -0.388 OA
HETATM   25  C10 MIQ B 502       2.527  -8.079  24.416  1.00147.44     0.187 C 
HETATM   26  C11 MIQ B 502       1.144  -7.659  24.903  1.00144.08     0.149 C 
ENDBRANCH   5  21
TORSDOF 2
ENDMDL
MODEL 7
REMARK VINA RESULT:      -6.0     28.775     30.929
REMARK  2 active torsions:
REMARK  status: ('A' for Active; 'I' for Inactive)
REMARK    1  A    between atoms: C5_5  and  N6_21 
REMARK    2  A    between atoms: C18_14  and  N17_19 
ROOT
HETATM    1  O1  MIQ B 502      13.719   8.129  22.319  1.00142.91    -0.171 OA
HETATM    2  C2  MIQ B 502      13.083   9.372  22.353  1.00141.17     0.195 A 
HETATM    3  C3  MIQ B 502      13.101  10.385  23.542  1.00141.71     0.035 A 
HETATM    4  C4  MIQ B 502      13.732  10.371  24.883  1.00142.86     0.046 A 
HETATM    5  C5  MIQ B 502      13.565  11.468  25.766  1.00139.53     0.031 A 
HETATM    6  C12 MIQ B 502      12.770  12.615  25.350  1.00139.38     0.030 A 
HETATM    7  C13 MIQ B 502      12.166  12.629  24.064  1.00141.18     0.019 A 
HETATM    8  C14 MIQ B 502      12.346  11.475  23.141  1.00138.77     0.033 A 
HETATM    9  C15 MIQ B 502      11.857  11.137  21.695  1.00142.10     0.195 A 
HETATM   10  N17 MIQ B 502      12.353   9.944  21.411  1.00139.42    -0.288 N 
HETATM   11  O16 MIQ B 502      11.057  11.936  20.876  1.00148.93    -0.171 OA
ENDROOT
BRANCH  10  12
HETATM   12  C18 MIQ B 502      12.088   9.297  20.140  1.00139.82     0.187 C 
HETATM   13  C19 MIQ B 502      11.607   7.871  20.433  1.00140.06     0.247 C 
HETATM   14  O25 MIQ B 502      10.729   7.706  21.202  1.00143.95    -0.271 OA
HETATM   15  N20 MIQ B 502      12.198   6.717  19.785  1.00140.02    -0.296 N 
HETATM   16  H13 MIQ B 502      11.880   5.791  19.990  1.00142.77     0.171 HD
HETATM   17  C21 MIQ B 502      13.277   6.944  18.857  1.00142.22     0.224 C 
HETATM   18  C22 MIQ B 502      14.204   8.104  19.161  1.00139.52     0.106 C 
HETATM   19  O24 MIQ B 502      13.426   6.260  17.905  1.00146.13    -0.273 OA
HETATM   20  C23 MIQ B 502      13.330   9.342  19.251  1.00139.15     0.045 C 
ENDBRANCH  10  12
BRANCH   5  21
HETATM   21  N6  MIQ B 502      14.177  11.434  27.082  1.00140.95    -0.377 N 
HETATM   22  C7  MIQ B 502      15.460  10.771  27.235  1.00142.12     0.149 C 
HETATM   23  C8  MIQ B 502      15.665  10.248  28.651  1.00144.10     0.187 C 
HETATM   24  O9  MIQ B 502      15.364  11.198  29.629  1.00148.65    -0.388 OA
HETATM   25  C10 MIQ B 502      14.725  12.392  29.284  1.00147.44     0.187 C 
HETATM   26  C11 MIQ B 502      13.769  12.390  28.096  1.00144.08     0.149 C 
ENDBRANCH   5  21
TORSDOF 2
ENDMDL
MODEL 8
REMARK VINA RESULT:      -6.0     19.389     22.097
REMARK  2 active torsions:
REMARK  status: ('A' for Active; 'I' for Inactive)
REMARK    1  A    between atoms: C5_5  and  N6_21 
REMARK    2  A    between atoms: C18_14  and  N17_19 
ROOT
HETATM    1  O1  MIQ B 502       6.643  -5.672  13.989  1.00142.91    -0.171 OA
HETATM    2  C2  MIQ B 502       7.216  -6.927  14.209  1.00141.17     0.195 A 
HETATM    3  C3  MIQ B 502       8.700  -7.325  13.929  1.00141.71     0.035 A 
HETATM    4  C4  MIQ B 502       9.870  -6.587  13.397  1.00142.86     0.046 A 
HETATM    5  C5  MIQ B 502      11.123  -7.236  13.255  1.00139.53     0.031 A 
HETATM    6  C12 MIQ B 502      11.259  -8.635  13.634  1.00139.38     0.030 A 
HETATM    7  C13 MIQ B 502      10.137  -9.343  14.145  1.00141.18     0.019 A 
HETATM    8  C14 MIQ B 502       8.825  -8.655  14.294  1.00138.77     0.033 A 
HETATM    9  C15 MIQ B 502       7.411  -9.085  14.805  1.00142.10     0.195 A 
HETATM   10  N17 MIQ B 502       6.642  -8.015  14.693  1.00139.42    -0.288 N 
HETATM   11  O16 MIQ B 502       7.041 -10.345  15.278  1.00148.93    -0.171 OA
ENDROOT
BRANCH  10  12
HETATM   12  C18 MIQ B 502       5.240  -8.048  15.065  1.00139.82     0.187 C 
HETATM   13  C19 MIQ B 502       5.141  -8.672  16.463  1.00140.06     0.247 C 
HETATM   14  O25 MIQ B 502       5.817  -8.248  17.332  1.00143.95    -0.271 OA
HETATM   15  N20 MIQ B 502       4.235  -9.765  16.748  1.00140.02    -0.296 N 
HETATM   16  H13 MIQ B 502       4.185 -10.168  17.663  1.00142.77     0.171 HD
HETATM   17  C21 MIQ B 502       3.427 -10.272  15.669  1.00142.22     0.224 C 
HETATM   18  C22 MIQ B 502       4.046 -10.244  14.284  1.00139.52     0.106 C 
HETATM   19  O24 MIQ B 502       2.335 -10.684  15.854  1.00146.13    -0.273 OA
HETATM   20  C23 MIQ B 502       4.428  -8.800  14.012  1.00139.15     0.045 C 
ENDBRANCH  10  12
BRANCH   5  21
HETATM   21  N6  MIQ B 502      12.256  -6.505  12.719  1.00140.95    -0.377 N 
HETATM   22  C7  MIQ B 502      12.034  -5.591  11.612  1.00142.12     0.149 C 
HETATM   23  C8  MIQ B 502      13.285  -5.410  10.763  1.00144.10     0.187 C 
HETATM   24  O9  MIQ B 502      14.427  -5.156  11.526  1.00148.65    -0.388 OA
HETATM   25  C10 MIQ B 502      14.397  -5.302  12.915  1.00147.44     0.187 C 
HETATM   26  C11 MIQ B 502      13.457  -6.341  13.520  1.00144.08     0.149 C 
ENDBRANCH   5  21
TORSDOF 2
ENDMDL
MODEL 9
REMARK VINA RESULT:      -6.0     21.926     24.353
REMARK  2 active torsions:
REMARK  status: ('A' for Active; 'I' for Inactive)
REMARK    1  A    between atoms: C5_5  and  N6_21 
REMARK    2  A    between atoms: C18_14  and  N17_19 
ROOT
HETATM    1  O1  MIQ B 502       8.827  -7.350  13.139  1.00142.91    -0.171 OA
HETATM    2  C2  MIQ B 502       9.851  -7.197  14.076  1.00141.17     0.195 A 
HETATM    3  C3  MIQ B 502      11.293  -6.668  13.789  1.00141.71     0.035 A 
HETATM    4  C4  MIQ B 502      11.981  -6.201  12.562  1.00142.86     0.046 A 
HETATM    5  C5  MIQ B 502      13.331  -5.769  12.618  1.00139.53     0.031 A 
HETATM    6  C12 MIQ B 502      14.043  -5.785  13.888  1.00139.38     0.030 A 
HETATM    7  C13 MIQ B 502      13.383  -6.232  15.064  1.00141.18     0.019 A 
HETATM    8  C14 MIQ B 502      11.965  -6.682  15.000  1.00138.77     0.033 A 
HETATM    9  C15 MIQ B 502      10.935  -7.220  16.046  1.00142.10     0.195 A 
HETATM   10  N17 MIQ B 502       9.820  -7.453  15.373  1.00139.42    -0.288 N 
HETATM   11  O16 MIQ B 502      11.154  -7.417  17.410  1.00148.93    -0.171 OA
ENDROOT
BRANCH  10  12
HETATM   12  C18 MIQ B 502       8.638  -7.983  16.026  1.00139.82     0.187 C 
HETATM   13  C19 MIQ B 502       8.213  -9.248  15.272  1.00140.06     0.247 C 
HETATM   14  O25 MIQ B 502       9.013 -10.089  15.061  1.00143.95    -0.271 OA
HETATM   15  N20 MIQ B 502       6.853  -9.444  14.814  1.00140.02    -0.296 N 
HETATM   16  H13 MIQ B 502       6.589 -10.272  14.316  1.00142.77     0.171 HD
HETATM   17  C21 MIQ B 502       5.896  -8.399  15.074  1.00142.22     0.224 C 
HETATM   18  C22 MIQ B 502       6.421  -6.976  15.060  1.00139.52     0.106 C 
HETATM   19  O24 MIQ B 502       4.760  -8.641  15.292  1.00146.13    -0.273 OA
HETATM   20  C23 MIQ B 502       7.541  -6.920  16.084  1.00139.15     0.045 C 
ENDBRANCH  10  12
BRANCH   5  21
HETATM   21  N6  MIQ B 502      13.997  -5.328  11.406  1.00140.95    -0.377 N 
HETATM   22  C7  MIQ B 502      13.393  -4.258  10.632  1.00142.12     0.149 C 
HETATM   23  C8  MIQ B 502      13.778  -4.333   9.160  1.00144.10     0.187 C 
HETATM   24  O9  MIQ B 502      15.149  -4.511   8.965  1.00148.65    -0.388 OA
HETATM   25  C10 MIQ B 502      15.984  -4.814  10.044  1.00147.44     0.187 C 
HETATM   26  C11 MIQ B 502      15.408  -5.611  11.209  1.00144.08     0.149 C 
ENDBRANCH   5  21
TORSDOF 2
ENDMDL
