MODEL 1
REMARK VINA RESULT:      -7.2      0.000      0.000
REMARK  2 active torsions:
REMARK  status: ('A' for Active; 'I' for Inactive)
REMARK    1  A    between atoms: C5_5  and  N6_21 
REMARK    2  A    between atoms: C18_14  and  N17_19 
ROOT
HETATM    1  O1  MIQ B 502       0.377  -2.970  21.095  1.00142.91    -0.171 OA
HETATM    2  C2  MIQ B 502       0.276  -3.096  19.708  1.00141.17     0.195 A 
HETATM    3  C3  MIQ B 502       1.467  -3.183  18.701  1.00141.71     0.035 A 
HETATM    4  C4  MIQ B 502       2.940  -3.166  18.862  1.00142.86     0.046 A 
HETATM    5  C5  MIQ B 502       3.786  -3.267  17.728  1.00139.53     0.031 A 
HETATM    6  C12 MIQ B 502       3.203  -3.387  16.400  1.00139.38     0.030 A 
HETATM    7  C13 MIQ B 502       1.790  -3.404  16.246  1.00141.18     0.019 A 
HETATM    8  C14 MIQ B 502       0.907  -3.300  17.440  1.00138.77     0.033 A 
HETATM    9  C15 MIQ B 502      -0.640  -3.287  17.664  1.00142.10     0.195 A 
HETATM   10  N17 MIQ B 502      -0.818  -3.171  18.970  1.00139.42    -0.288 N 
HETATM   11  O16 MIQ B 502      -1.628  -3.377  16.683  1.00148.93    -0.171 OA
ENDROOT
BRANCH  10  12
HETATM   12  C18 MIQ B 502      -2.147  -3.109  19.551  1.00139.82     0.187 C 
HETATM   13  C19 MIQ B 502      -2.213  -1.857  20.433  1.00140.06     0.247 C 
HETATM   14  O25 MIQ B 502      -1.880  -0.818  19.985  1.00143.95    -0.271 OA
HETATM   15  N20 MIQ B 502      -2.681  -1.912  21.803  1.00140.02    -0.296 N 
HETATM   16  H13 MIQ B 502      -2.713  -1.088  22.371  1.00142.77     0.171 HD
HETATM   17  C21 MIQ B 502      -3.073  -3.193  22.331  1.00142.22     0.224 C 
HETATM   18  C22 MIQ B 502      -2.311  -4.402  21.822  1.00139.52     0.106 C 
HETATM   19  O24 MIQ B 502      -3.949  -3.296  23.118  1.00146.13    -0.273 OA
HETATM   20  C23 MIQ B 502      -2.455  -4.398  20.311  1.00139.15     0.045 C 
ENDBRANCH  10  12
BRANCH   5  21
HETATM   21  N6  MIQ B 502       5.227  -3.235  17.899  1.00140.95    -0.377 N 
HETATM   22  C7  MIQ B 502       5.909  -1.955  17.809  1.00142.12     0.149 C 
HETATM   23  C8  MIQ B 502       7.358  -2.112  17.364  1.00144.10     0.187 C 
HETATM   24  O9  MIQ B 502       8.039  -3.103  18.074  1.00148.65    -0.388 OA
HETATM   25  C10 MIQ B 502       7.345  -3.974  18.917  1.00147.44     0.187 C 
HETATM   26  C11 MIQ B 502       5.903  -4.332  18.569  1.00144.08     0.149 C 
ENDBRANCH   5  21
TORSDOF 2
ENDMDL
MODEL 2
REMARK VINA RESULT:      -6.7      1.569      1.962
REMARK  2 active torsions:
REMARK  status: ('A' for Active; 'I' for Inactive)
REMARK    1  A    between atoms: C5_5  and  N6_21 
REMARK    2  A    between atoms: C18_14  and  N17_19 
ROOT
HETATM    1  O1  MIQ B 502       0.670  -3.970  20.703  1.00142.91    -0.171 OA
HETATM    2  C2  MIQ B 502       0.892  -3.122  19.616  1.00141.17     0.195 A 
HETATM    3  C3  MIQ B 502       2.283  -2.713  19.035  1.00141.71     0.035 A 
HETATM    4  C4  MIQ B 502       3.679  -3.054  19.397  1.00142.86     0.046 A 
HETATM    5  C5  MIQ B 502       4.763  -2.513  18.661  1.00139.53     0.031 A 
HETATM    6  C12 MIQ B 502       4.502  -1.619  17.542  1.00139.38     0.030 A 
HETATM    7  C13 MIQ B 502       3.164  -1.294  17.193  1.00141.18     0.019 A 
HETATM    8  C14 MIQ B 502       2.030  -1.866  17.968  1.00138.77     0.033 A 
HETATM    9  C15 MIQ B 502       0.473  -1.748  17.887  1.00142.10     0.195 A 
HETATM   10  N17 MIQ B 502      -0.002  -2.503  18.865  1.00139.42    -0.288 N 
HETATM   11  O16 MIQ B 502      -0.262  -0.995  16.970  1.00148.93    -0.171 OA
ENDROOT
BRANCH  10  12
HETATM   12  C18 MIQ B 502      -1.428  -2.623  19.105  1.00139.82     0.187 C 
HETATM   13  C19 MIQ B 502      -1.677  -2.341  20.591  1.00140.06     0.247 C 
HETATM   14  O25 MIQ B 502      -1.230  -1.363  21.075  1.00143.95    -0.271 OA
HETATM   15  N20 MIQ B 502      -2.453  -3.242  21.420  1.00140.02    -0.296 N 
HETATM   16  H13 MIQ B 502      -2.603  -3.050  22.391  1.00142.77     0.171 HD
HETATM   17  C21 MIQ B 502      -2.980  -4.435  20.809  1.00142.22     0.224 C 
HETATM   18  C22 MIQ B 502      -2.141  -5.068  19.715  1.00139.52     0.106 C 
HETATM   19  O24 MIQ B 502      -4.017  -4.893  21.142  1.00146.13    -0.273 OA
HETATM   20  C23 MIQ B 502      -1.928  -3.997  18.661  1.00139.15     0.045 C 
ENDBRANCH  10  12
BRANCH   5  21
HETATM   21  N6  MIQ B 502       6.126  -2.843  19.036  1.00140.95    -0.377 N 
HETATM   22  C7  MIQ B 502       6.599  -4.199  18.815  1.00142.12     0.149 C 
HETATM   23  C8  MIQ B 502       7.713  -4.578  19.782  1.00144.10     0.187 C 
HETATM   24  O9  MIQ B 502       8.710  -3.606  19.870  1.00148.65    -0.388 OA
HETATM   25  C10 MIQ B 502       8.525  -2.347  19.291  1.00147.44     0.187 C 
HETATM   26  C11 MIQ B 502       7.110  -1.787  19.201  1.00144.08     0.149 C 
ENDBRANCH   5  21
TORSDOF 2
ENDMDL
MODEL 3
REMARK VINA RESULT:      -6.6      2.827      4.733
REMARK  2 active torsions:
REMARK  status: ('A' for Active; 'I' for Inactive)
REMARK    1  A    between atoms: C5_5  and  N6_21 
REMARK    2  A    between atoms: C18_14  and  N17_19 
ROOT
HETATM    1  O1  MIQ B 502       3.371   0.523  19.371  1.00142.91    -0.171 OA
HETATM    2  C2  MIQ B 502       3.710  -0.705  18.798  1.00141.17     0.195 A 
HETATM    3  C3  MIQ B 502       5.156  -1.216  18.503  1.00141.71     0.035 A 
HETATM    4  C4  MIQ B 502       6.505  -0.636  18.710  1.00142.86     0.046 A 
HETATM    5  C5  MIQ B 502       7.663  -1.361  18.331  1.00139.53     0.031 A 
HETATM    6  C12 MIQ B 502       7.525  -2.682  17.735  1.00139.38     0.030 A 
HETATM    7  C13 MIQ B 502       6.233  -3.239  17.537  1.00141.18     0.019 A 
HETATM    8  C14 MIQ B 502       5.021  -2.474  17.939  1.00138.77     0.033 A 
HETATM    9  C15 MIQ B 502       3.482  -2.746  17.885  1.00142.10     0.195 A 
HETATM   10  N17 MIQ B 502       2.904  -1.673  18.399  1.00139.42    -0.288 N 
HETATM   11  O16 MIQ B 502       2.852  -3.889  17.391  1.00148.93    -0.171 OA
ENDROOT
BRANCH  10  12
HETATM   12  C18 MIQ B 502       1.460  -1.564  18.497  1.00139.82     0.187 C 
HETATM   13  C19 MIQ B 502       0.952  -2.777  19.286  1.00140.06     0.247 C 
HETATM   14  O25 MIQ B 502       1.445  -3.035  20.326  1.00143.95    -0.271 OA
HETATM   15  N20 MIQ B 502      -0.123  -3.613  18.793  1.00140.02    -0.296 N 
HETATM   16  H13 MIQ B 502      -0.441  -4.406  19.315  1.00142.77     0.171 HD
HETATM   17  C21 MIQ B 502      -0.702  -3.285  17.516  1.00142.22     0.224 C 
HETATM   18  C22 MIQ B 502       0.230  -2.691  16.478  1.00139.52     0.106 C 
HETATM   19  O24 MIQ B 502      -1.849  -3.464  17.293  1.00146.13    -0.273 OA
HETATM   20  C23 MIQ B 502       0.840  -1.451  17.105  1.00139.15     0.045 C 
ENDBRANCH  10  12
BRANCH   5  21
HETATM   21  N6  MIQ B 502       8.976  -0.774  18.527  1.00140.95    -0.377 N 
HETATM   22  C7  MIQ B 502       9.502  -0.683  19.878  1.00142.12     0.149 C 
HETATM   23  C8  MIQ B 502      10.497   0.460  20.025  1.00144.10     0.187 C 
HETATM   24  O9  MIQ B 502      11.455   0.481  19.009  1.00148.65    -0.388 OA
HETATM   25  C10 MIQ B 502      11.315  -0.340  17.887  1.00147.44     0.187 C 
HETATM   26  C11 MIQ B 502       9.909  -0.697  17.416  1.00144.08     0.149 C 
ENDBRANCH   5  21
TORSDOF 2
ENDMDL
MODEL 4
REMARK VINA RESULT:      -6.5     14.784     18.119
REMARK  2 active torsions:
REMARK  status: ('A' for Active; 'I' for Inactive)
REMARK    1  A    between atoms: C5_5  and  N6_21 
REMARK    2  A    between atoms: C18_14  and  N17_19 
ROOT
HETATM    1  O1  MIQ B 502      10.522 -17.129  10.789  1.00142.91    -0.171 OA
HETATM    2  C2  MIQ B 502      10.117 -16.047  10.003  1.00141.17     0.195 A 
HETATM    3  C3  MIQ B 502      10.202 -14.538  10.397  1.00141.71     0.035 A 
HETATM    4  C4  MIQ B 502      10.691 -13.825  11.601  1.00142.86     0.046 A 
HETATM    5  C5  MIQ B 502      10.640 -12.410  11.666  1.00139.53     0.031 A 
HETATM    6  C12 MIQ B 502      10.103 -11.654  10.543  1.00139.38     0.030 A 
HETATM    7  C13 MIQ B 502       9.636 -12.337   9.388  1.00141.18     0.019 A 
HETATM    8  C14 MIQ B 502       9.695 -13.823   9.325  1.00138.77     0.033 A 
HETATM    9  C15 MIQ B 502       9.292 -14.894   8.259  1.00142.10     0.195 A 
HETATM   10  N17 MIQ B 502       9.593 -16.068   8.790  1.00139.42    -0.288 N 
HETATM   11  O16 MIQ B 502       8.728 -14.654   7.005  1.00148.93    -0.171 OA
ENDROOT
BRANCH  10  12
HETATM   12  C18 MIQ B 502       9.338 -17.307   8.080  1.00139.82     0.187 C 
HETATM   13  C19 MIQ B 502      10.018 -17.209   6.708  1.00140.06     0.247 C 
HETATM   14  O25 MIQ B 502      11.153 -16.893   6.649  1.00143.95    -0.271 OA
HETATM   15  N20 MIQ B 502       9.306 -17.500   5.481  1.00140.02    -0.296 N 
HETATM   16  H13 MIQ B 502       9.760 -17.425   4.591  1.00142.77     0.171 HD
HETATM   17  C21 MIQ B 502       7.919 -17.873   5.578  1.00142.22     0.224 C 
HETATM   18  C22 MIQ B 502       7.117 -17.233   6.694  1.00139.52     0.106 C 
HETATM   19  O24 MIQ B 502       7.432 -18.645   4.826  1.00146.13    -0.273 OA
HETATM   20  C23 MIQ B 502       7.836 -17.569   7.988  1.00139.15     0.045 C 
ENDBRANCH  10  12
BRANCH   5  21
HETATM   21  N6  MIQ B 502      11.108 -11.725  12.857  1.00140.95    -0.377 N 
HETATM   22  C7  MIQ B 502      10.893 -10.293  12.965  1.00142.12     0.149 C 
HETATM   23  C8  MIQ B 502      11.932  -9.627  13.859  1.00144.10     0.187 C 
HETATM   24  O9  MIQ B 502      12.115 -10.296  15.071  1.00148.65    -0.388 OA
HETATM   25  C10 MIQ B 502      11.551 -11.558  15.275  1.00147.44     0.187 C 
HETATM   26  C11 MIQ B 502      11.367 -12.478  14.072  1.00144.08     0.149 C 
ENDBRANCH   5  21
TORSDOF 2
ENDMDL
MODEL 5
REMARK VINA RESULT:      -6.5      2.318      3.069
REMARK  2 active torsions:
REMARK  status: ('A' for Active; 'I' for Inactive)
REMARK    1  A    between atoms: C5_5  and  N6_21 
REMARK    2  A    between atoms: C18_14  and  N17_19 
ROOT
HETATM    1  O1  MIQ B 502       0.842  -2.336  21.178  1.00142.91    -0.171 OA
HETATM    2  C2  MIQ B 502       1.043  -2.218  19.801  1.00141.17     0.195 A 
HETATM    3  C3  MIQ B 502       2.400  -2.398  19.049  1.00141.71     0.035 A 
HETATM    4  C4  MIQ B 502       3.777  -2.722  19.493  1.00142.86     0.046 A 
HETATM    5  C5  MIQ B 502       4.830  -2.822  18.549  1.00139.53     0.031 A 
HETATM    6  C12 MIQ B 502       4.556  -2.605  17.136  1.00139.38     0.030 A 
HETATM    7  C13 MIQ B 502       3.237  -2.295  16.709  1.00141.18     0.019 A 
HETATM    8  C14 MIQ B 502       2.134  -2.194  17.705  1.00138.77     0.033 A 
HETATM    9  C15 MIQ B 502       0.604  -1.886  17.622  1.00142.10     0.195 A 
HETATM   10  N17 MIQ B 502       0.153  -1.941  18.864  1.00139.42    -0.288 N 
HETATM   11  O16 MIQ B 502      -0.132  -1.607  16.469  1.00148.93    -0.171 OA
ENDROOT
BRANCH  10  12
HETATM   12  C18 MIQ B 502      -1.242  -1.688  19.175  1.00139.82     0.187 C 
HETATM   13  C19 MIQ B 502      -2.095  -2.514  18.205  1.00140.06     0.247 C 
HETATM   14  O25 MIQ B 502      -1.873  -3.666  18.081  1.00143.95    -0.271 OA
HETATM   15  N20 MIQ B 502      -3.171  -1.921  17.439  1.00140.02    -0.296 N 
HETATM   16  H13 MIQ B 502      -3.717  -2.470  16.804  1.00142.77     0.171 HD
HETATM   17  C21 MIQ B 502      -3.416  -0.511  17.600  1.00142.22     0.224 C 
HETATM   18  C22 MIQ B 502      -2.207   0.364  17.866  1.00139.52     0.106 C 
HETATM   19  O24 MIQ B 502      -4.507  -0.061  17.533  1.00146.13    -0.273 OA
HETATM   20  C23 MIQ B 502      -1.538  -0.191  19.111  1.00139.15     0.045 C 
ENDBRANCH  10  12
BRANCH   5  21
HETATM   21  N6  MIQ B 502       6.176  -3.126  19.000  1.00140.95    -0.377 N 
HETATM   22  C7  MIQ B 502       6.732  -4.432  18.694  1.00142.12     0.149 C 
HETATM   23  C8  MIQ B 502       7.789  -4.852  19.708  1.00144.10     0.187 C 
HETATM   24  O9  MIQ B 502       8.726  -3.848  19.963  1.00148.65    -0.388 OA
HETATM   25  C10 MIQ B 502       8.521  -2.551  19.487  1.00147.44     0.187 C 
HETATM   26  C11 MIQ B 502       7.089  -2.047  19.336  1.00144.08     0.149 C 
ENDBRANCH   5  21
TORSDOF 2
ENDMDL
MODEL 6
REMARK VINA RESULT:      -6.4      1.878      7.948
REMARK  2 active torsions:
REMARK  status: ('A' for Active; 'I' for Inactive)
REMARK    1  A    between atoms: C5_5  and  N6_21 
REMARK    2  A    between atoms: C18_14  and  N17_19 
ROOT
HETATM    1  O1  MIQ B 502       4.501  -2.694  20.333  1.00142.91    -0.171 OA
HETATM    2  C2  MIQ B 502       3.762  -2.955  19.177  1.00141.17     0.195 A 
HETATM    3  C3  MIQ B 502       2.213  -3.139  19.094  1.00141.71     0.035 A 
HETATM    4  C4  MIQ B 502       1.127  -3.100  20.102  1.00142.86     0.046 A 
HETATM    5  C5  MIQ B 502      -0.220  -3.309  19.713  1.00139.53     0.031 A 
HETATM    6  C12 MIQ B 502      -0.537  -3.562  18.315  1.00139.38     0.030 A 
HETATM    7  C13 MIQ B 502       0.504  -3.599  17.348  1.00141.18     0.019 A 
HETATM    8  C14 MIQ B 502       1.916  -3.377  17.762  1.00138.77     0.033 A 
HETATM    9  C15 MIQ B 502       3.288  -3.339  17.013  1.00142.10     0.195 A 
HETATM   10  N17 MIQ B 502       4.202  -3.093  17.938  1.00139.42    -0.288 N 
HETATM   11  O16 MIQ B 502       3.500  -3.530  15.647  1.00148.93    -0.171 OA
ENDROOT
BRANCH  10  12
HETATM   12  C18 MIQ B 502       5.611  -3.003  17.604  1.00139.82     0.187 C 
HETATM   13  C19 MIQ B 502       6.376  -3.939  18.549  1.00140.06     0.247 C 
HETATM   14  O25 MIQ B 502       6.021  -5.058  18.663  1.00143.95    -0.271 OA
HETATM   15  N20 MIQ B 502       7.528  -3.488  19.302  1.00140.02    -0.296 N 
HETATM   16  H13 MIQ B 502       8.015  -4.106  19.921  1.00142.77     0.171 HD
HETATM   17  C21 MIQ B 502       7.936  -2.114  19.154  1.00142.22     0.224 C 
HETATM   18  C22 MIQ B 502       6.834  -1.098  18.920  1.00139.52     0.106 C 
HETATM   19  O24 MIQ B 502       9.073  -1.798  19.207  1.00146.13    -0.273 OA
HETATM   20  C23 MIQ B 502       6.084  -1.553  17.681  1.00139.15     0.045 C 
ENDBRANCH  10  12
BRANCH   5  21
HETATM   21  N6  MIQ B 502      -1.272  -3.282  20.713  1.00140.95    -0.377 N 
HETATM   22  C7  MIQ B 502      -1.899  -2.010  21.027  1.00142.12     0.149 C 
HETATM   23  C8  MIQ B 502      -2.460  -1.987  22.443  1.00144.10     0.187 C 
HETATM   24  O9  MIQ B 502      -3.221  -3.118  22.745  1.00148.65    -0.388 OA
HETATM   25  C10 MIQ B 502      -3.227  -4.217  21.883  1.00147.44     0.187 C 
HETATM   26  C11 MIQ B 502      -1.978  -4.504  21.057  1.00144.08     0.149 C 
ENDBRANCH   5  21
TORSDOF 2
ENDMDL
MODEL 7
REMARK VINA RESULT:      -6.3      3.827      4.513
REMARK  2 active torsions:
REMARK  status: ('A' for Active; 'I' for Inactive)
REMARK    1  A    between atoms: C5_5  and  N6_21 
REMARK    2  A    between atoms: C18_14  and  N17_19 
ROOT
HETATM    1  O1  MIQ B 502      -0.258  -1.595  20.016  1.00142.91    -0.171 OA
HETATM    2  C2  MIQ B 502       0.855  -1.902  19.230  1.00141.17     0.195 A 
HETATM    3  C3  MIQ B 502       2.143  -1.031  19.074  1.00141.71     0.035 A 
HETATM    4  C4  MIQ B 502       2.570   0.268  19.646  1.00142.86     0.046 A 
HETATM    5  C5  MIQ B 502       3.832   0.819  19.309  1.00139.53     0.031 A 
HETATM    6  C12 MIQ B 502       4.712   0.105  18.395  1.00139.38     0.030 A 
HETATM    7  C13 MIQ B 502       4.303  -1.141  17.847  1.00141.18     0.019 A 
HETATM    8  C14 MIQ B 502       2.978  -1.716  18.207  1.00138.77     0.033 A 
HETATM    9  C15 MIQ B 502       2.205  -3.020  17.823  1.00142.10     0.195 A 
HETATM   10  N17 MIQ B 502       1.055  -2.968  18.474  1.00139.42    -0.288 N 
HETATM   11  O16 MIQ B 502       2.644  -4.029  16.964  1.00148.93    -0.171 OA
ENDROOT
BRANCH  10  12
HETATM   12  C18 MIQ B 502       0.062  -4.018  18.343  1.00139.82     0.187 C 
HETATM   13  C19 MIQ B 502      -1.277  -3.356  17.996  1.00140.06     0.247 C 
HETATM   14  O25 MIQ B 502      -1.325  -2.590  17.100  1.00143.95    -0.271 OA
HETATM   15  N20 MIQ B 502      -2.488  -3.649  18.734  1.00140.02    -0.296 N 
HETATM   16  H13 MIQ B 502      -3.354  -3.205  18.502  1.00142.77     0.171 HD
HETATM   17  C21 MIQ B 502      -2.401  -4.579  19.831  1.00142.22     0.224 C 
HETATM   18  C22 MIQ B 502      -1.105  -4.585  20.618  1.00139.52     0.106 C 
HETATM   19  O24 MIQ B 502      -3.295  -5.303  20.098  1.00146.13    -0.273 OA
HETATM   20  C23 MIQ B 502       0.005  -4.857  19.619  1.00139.15     0.045 C 
ENDBRANCH  10  12
BRANCH   5  21
HETATM   21  N6  MIQ B 502       4.231   2.099  19.866  1.00140.95    -0.377 N 
HETATM   22  C7  MIQ B 502       3.288   3.203  19.815  1.00142.12     0.149 C 
HETATM   23  C8  MIQ B 502       3.993   4.553  19.810  1.00144.10     0.187 C 
HETATM   24  O9  MIQ B 502       4.980   4.655  20.793  1.00148.65    -0.388 OA
HETATM   25  C10 MIQ B 502       5.384   3.526  21.509  1.00147.44     0.187 C 
HETATM   26  C11 MIQ B 502       5.322   2.165  20.823  1.00144.08     0.149 C 
ENDBRANCH   5  21
TORSDOF 2
ENDMDL
MODEL 8
REMARK VINA RESULT:      -6.3      2.655      3.404
REMARK  2 active torsions:
REMARK  status: ('A' for Active; 'I' for Inactive)
REMARK    1  A    between atoms: C5_5  and  N6_21 
REMARK    2  A    between atoms: C18_14  and  N17_19 
ROOT
HETATM    1  O1  MIQ B 502       1.178  -2.405  20.342  1.00142.91    -0.171 OA
HETATM    2  C2  MIQ B 502       1.929  -2.712  19.205  1.00141.17     0.195 A 
HETATM    3  C3  MIQ B 502       3.406  -2.283  18.933  1.00141.71     0.035 A 
HETATM    4  C4  MIQ B 502       4.398  -1.496  19.704  1.00142.86     0.046 A 
HETATM    5  C5  MIQ B 502       5.696  -1.269  19.181  1.00139.53     0.031 A 
HETATM    6  C12 MIQ B 502       6.056  -1.814  17.879  1.00139.38     0.030 A 
HETATM    7  C13 MIQ B 502       5.106  -2.569  17.140  1.00141.18     0.019 A 
HETATM    8  C14 MIQ B 502       3.745  -2.806  17.696  1.00138.77     0.033 A 
HETATM    9  C15 MIQ B 502       2.472  -3.565  17.198  1.00142.10     0.195 A 
HETATM   10  N17 MIQ B 502       1.564  -3.417  18.148  1.00139.42    -0.288 N 
HETATM   11  O16 MIQ B 502       2.327  -4.253  15.992  1.00148.93    -0.171 OA
ENDROOT
BRANCH  10  12
HETATM   12  C18 MIQ B 502       0.235  -3.984  18.020  1.00139.82     0.187 C 
HETATM   13  C19 MIQ B 502      -0.779  -2.855  18.247  1.00140.06     0.247 C 
HETATM   14  O25 MIQ B 502      -0.668  -1.851  17.639  1.00143.95    -0.271 OA
HETATM   15  N20 MIQ B 502      -1.874  -2.990  19.185  1.00140.02    -0.296 N 
HETATM   16  H13 MIQ B 502      -2.525  -2.243  19.329  1.00142.77     0.171 HD
HETATM   17  C21 MIQ B 502      -1.983  -4.222  19.924  1.00142.22     0.224 C 
HETATM   18  C22 MIQ B 502      -0.683  -4.913  20.290  1.00139.52     0.106 C 
HETATM   19  O24 MIQ B 502      -3.033  -4.672  20.223  1.00146.13    -0.273 OA
HETATM   20  C23 MIQ B 502       0.059  -5.153  18.988  1.00139.15     0.045 C 
ENDBRANCH  10  12
BRANCH   5  21
HETATM   21  N6  MIQ B 502       6.652  -0.484  19.940  1.00140.95    -0.377 N 
HETATM   22  C7  MIQ B 502       6.289  -0.054  21.279  1.00142.12     0.149 C 
HETATM   23  C8  MIQ B 502       7.020   1.220  21.685  1.00144.10     0.187 C 
HETATM   24  O9  MIQ B 502       8.391   1.165  21.426  1.00148.65    -0.388 OA
HETATM   25  C10 MIQ B 502       8.927   0.125  20.663  1.00147.44     0.187 C 
HETATM   26  C11 MIQ B 502       8.059  -0.506  19.579  1.00144.08     0.149 C 
ENDBRANCH   5  21
TORSDOF 2
ENDMDL
MODEL 9
REMARK VINA RESULT:      -6.2      2.120      3.459
REMARK  2 active torsions:
REMARK  status: ('A' for Active; 'I' for Inactive)
REMARK    1  A    between atoms: C5_5  and  N6_21 
REMARK    2  A    between atoms: C18_14  and  N17_19 
ROOT
HETATM    1  O1  MIQ B 502       0.163  -1.088  17.620  1.00142.91    -0.171 OA
HETATM    2  C2  MIQ B 502       0.466  -1.766  18.803  1.00141.17     0.195 A 
HETATM    3  C3  MIQ B 502       1.891  -2.176  19.292  1.00141.71     0.035 A 
HETATM    4  C4  MIQ B 502       3.251  -2.000  18.729  1.00142.86     0.046 A 
HETATM    5  C5  MIQ B 502       4.384  -2.493  19.425  1.00139.53     0.031 A 
HETATM    6  C12 MIQ B 502       4.209  -3.175  20.699  1.00139.38     0.030 A 
HETATM    7  C13 MIQ B 502       2.906  -3.343  21.239  1.00141.18     0.019 A 
HETATM    8  C14 MIQ B 502       1.720  -2.821  20.506  1.00138.77     0.033 A 
HETATM    9  C15 MIQ B 502       0.180  -2.811  20.772  1.00142.10     0.195 A 
HETATM   10  N17 MIQ B 502      -0.366  -2.190  19.739  1.00139.42    -0.288 N 
HETATM   11  O16 MIQ B 502      -0.481  -3.352  21.876  1.00148.93    -0.171 OA
ENDROOT
BRANCH  10  12
HETATM   12  C18 MIQ B 502      -1.801  -2.007  19.638  1.00139.82     0.187 C 
HETATM   13  C19 MIQ B 502      -2.241  -2.512  18.258  1.00140.06     0.247 C 
HETATM   14  O25 MIQ B 502      -1.908  -3.587  17.906  1.00143.95    -0.271 OA
HETATM   15  N20 MIQ B 502      -3.059  -1.707  17.375  1.00140.02    -0.296 N 
HETATM   16  H13 MIQ B 502      -3.334  -2.046  16.474  1.00142.77     0.171 HD
HETATM   17  C21 MIQ B 502      -3.444  -0.393  17.823  1.00142.22     0.224 C 
HETATM   18  C22 MIQ B 502      -2.448   0.349  18.693  1.00139.52     0.106 C 
HETATM   19  O24 MIQ B 502      -4.487   0.079  17.530  1.00146.13    -0.273 OA
HETATM   20  C23 MIQ B 502      -2.170  -0.545  19.888  1.00139.15     0.045 C 
ENDBRANCH  10  12
BRANCH   5  21
HETATM   21  N6  MIQ B 502       5.709  -2.326  18.855  1.00140.95    -0.377 N 
HETATM   22  C7  MIQ B 502       6.837  -2.167  19.755  1.00142.12     0.149 C 
HETATM   23  C8  MIQ B 502       7.976  -1.389  19.107  1.00144.10     0.187 C 
HETATM   24  O9  MIQ B 502       8.293  -1.854  17.830  1.00148.65    -0.388 OA
HETATM   25  C10 MIQ B 502       7.463  -2.774  17.185  1.00147.44     0.187 C 
HETATM   26  C11 MIQ B 502       5.969  -2.747  17.489  1.00144.08     0.149 C 
ENDBRANCH   5  21
TORSDOF 2
ENDMDL
