MODEL 1
REMARK VINA RESULT:      -6.7      0.000      0.000
REMARK  2 active torsions:
REMARK  status: ('A' for Active; 'I' for Inactive)
REMARK    1  A    between atoms: C5_5  and  N6_21 
REMARK    2  A    between atoms: C18_14  and  N17_19 
ROOT
HETATM    1  O1  MIQ B 502     -10.239   6.070 -10.954  1.00142.91    -0.171 OA
HETATM    2  C2  MIQ B 502      -9.767   7.373 -11.129  1.00141.17     0.195 A 
HETATM    3  C3  MIQ B 502      -8.348   7.779 -11.642  1.00141.71     0.035 A 
HETATM    4  C4  MIQ B 502      -7.160   7.004 -12.072  1.00142.86     0.046 A 
HETATM    5  C5  MIQ B 502      -5.985   7.672 -12.499  1.00139.53     0.031 A 
HETATM    6  C12 MIQ B 502      -5.947   9.128 -12.516  1.00139.38     0.030 A 
HETATM    7  C13 MIQ B 502      -7.086   9.871 -12.105  1.00141.18     0.019 A 
HETATM    8  C14 MIQ B 502      -8.318   9.164 -11.660  1.00138.77     0.033 A 
HETATM    9  C15 MIQ B 502      -9.726   9.620 -11.155  1.00142.10     0.195 A 
HETATM   10  N17 MIQ B 502     -10.403   8.511 -10.908  1.00139.42    -0.288 N 
HETATM   11  O16 MIQ B 502     -10.171  10.934 -10.996  1.00148.93    -0.171 OA
ENDROOT
BRANCH  10  12
HETATM   12  C18 MIQ B 502     -11.762   8.550 -10.403  1.00139.82     0.187 C 
HETATM   13  C19 MIQ B 502     -11.800   7.743  -9.099  1.00140.06     0.247 C 
HETATM   14  O25 MIQ B 502     -11.009   7.975  -8.255  1.00143.95    -0.271 OA
HETATM   15  N20 MIQ B 502     -12.784   6.705  -8.872  1.00140.02    -0.296 N 
HETATM   16  H13 MIQ B 502     -12.794   6.181  -8.019  1.00142.77     0.171 HD
HETATM   17  C21 MIQ B 502     -13.732   6.433  -9.922  1.00142.22     0.224 C 
HETATM   18  C22 MIQ B 502     -13.240   6.604 -11.346  1.00139.52     0.106 C 
HETATM   19  O24 MIQ B 502     -14.840   6.097  -9.682  1.00146.13    -0.273 OA
HETATM   20  C23 MIQ B 502     -12.737   8.032 -11.459  1.00139.15     0.045 C 
ENDBRANCH  10  12
BRANCH   5  21
HETATM   21  N6  MIQ B 502      -4.823   6.901 -12.903  1.00140.95    -0.377 N 
HETATM   22  C7  MIQ B 502      -3.510   7.341 -12.464  1.00142.12     0.149 C 
HETATM   23  C8  MIQ B 502      -2.412   6.894 -13.421  1.00144.10     0.187 C 
HETATM   24  O9  MIQ B 502      -2.505   5.544 -13.763  1.00148.65    -0.388 OA
HETATM   25  C10 MIQ B 502      -3.639   4.804 -13.420  1.00147.44     0.187 C 
HETATM   26  C11 MIQ B 502      -4.982   5.523 -13.335  1.00144.08     0.149 C 
ENDBRANCH   5  21
TORSDOF 2
ENDMDL
MODEL 2
REMARK VINA RESULT:      -6.7      4.437      8.292
REMARK  2 active torsions:
REMARK  status: ('A' for Active; 'I' for Inactive)
REMARK    1  A    between atoms: C5_5  and  N6_21 
REMARK    2  A    between atoms: C18_14  and  N17_19 
ROOT
HETATM    1  O1  MIQ B 502      -0.773   7.262 -12.662  1.00142.91    -0.171 OA
HETATM    2  C2  MIQ B 502      -1.600   6.753 -13.666  1.00141.17     0.195 A 
HETATM    3  C3  MIQ B 502      -1.155   6.341 -15.105  1.00141.71     0.035 A 
HETATM    4  C4  MIQ B 502       0.148   6.348 -15.811  1.00142.86     0.046 A 
HETATM    5  C5  MIQ B 502       0.239   5.900 -17.153  1.00139.53     0.031 A 
HETATM    6  C12 MIQ B 502      -0.955   5.430 -17.841  1.00139.38     0.030 A 
HETATM    7  C13 MIQ B 502      -2.204   5.422 -17.164  1.00141.18     0.019 A 
HETATM    8  C14 MIQ B 502      -2.294   5.891 -15.754  1.00138.77     0.033 A 
HETATM    9  C15 MIQ B 502      -3.451   6.024 -14.711  1.00142.10     0.195 A 
HETATM   10  N17 MIQ B 502      -2.898   6.511 -13.613  1.00139.42    -0.288 N 
HETATM   11  O16 MIQ B 502      -4.794   5.696 -14.907  1.00148.93    -0.171 OA
ENDROOT
BRANCH  10  12
HETATM   12  C18 MIQ B 502      -3.686   6.784 -12.425  1.00139.82     0.187 C 
HETATM   13  C19 MIQ B 502      -4.590   5.570 -12.175  1.00140.06     0.247 C 
HETATM   14  O25 MIQ B 502      -4.112   4.492 -12.149  1.00143.95    -0.271 OA
HETATM   15  N20 MIQ B 502      -6.016   5.710 -11.964  1.00140.02    -0.296 N 
HETATM   16  H13 MIQ B 502      -6.596   4.909 -11.808  1.00142.77     0.171 HD
HETATM   17  C21 MIQ B 502      -6.578   7.036 -12.011  1.00142.22     0.224 C 
HETATM   18  C22 MIQ B 502      -5.932   8.016 -12.971  1.00139.52     0.106 C 
HETATM   19  O24 MIQ B 502      -7.494   7.343 -11.330  1.00146.13    -0.273 OA
HETATM   20  C23 MIQ B 502      -4.464   8.088 -12.591  1.00139.15     0.045 C 
ENDBRANCH  10  12
BRANCH   5  21
HETATM   21  N6  MIQ B 502       1.520   5.927 -17.836  1.00140.95    -0.377 N 
HETATM   22  C7  MIQ B 502       1.532   5.927 -19.289  1.00142.12     0.149 C 
HETATM   23  C8  MIQ B 502       2.814   5.323 -19.847  1.00144.10     0.187 C 
HETATM   24  O9  MIQ B 502       3.964   5.832 -19.241  1.00148.65    -0.388 OA
HETATM   25  C10 MIQ B 502       3.867   6.626 -18.095  1.00147.44     0.187 C 
HETATM   26  C11 MIQ B 502       2.707   6.384 -17.136  1.00144.08     0.149 C 
ENDBRANCH   5  21
TORSDOF 2
ENDMDL
MODEL 3
REMARK VINA RESULT:      -6.4      3.133      5.374
REMARK  2 active torsions:
REMARK  status: ('A' for Active; 'I' for Inactive)
REMARK    1  A    between atoms: C5_5  and  N6_21 
REMARK    2  A    between atoms: C18_14  and  N17_19 
ROOT
HETATM    1  O1  MIQ B 502     -13.229   9.941  -8.106  1.00142.91    -0.171 OA
HETATM    2  C2  MIQ B 502     -13.208   8.627  -8.576  1.00141.17     0.195 A 
HETATM    3  C3  MIQ B 502     -12.038   7.944  -9.354  1.00141.71     0.035 A 
HETATM    4  C4  MIQ B 502     -10.704   8.410  -9.802  1.00142.86     0.046 A 
HETATM    5  C5  MIQ B 502      -9.839   7.535 -10.506  1.00139.53     0.031 A 
HETATM    6  C12 MIQ B 502     -10.264   6.172 -10.790  1.00139.38     0.030 A 
HETATM    7  C13 MIQ B 502     -11.543   5.725 -10.360  1.00141.18     0.019 A 
HETATM    8  C14 MIQ B 502     -12.446   6.647  -9.619  1.00138.77     0.033 A 
HETATM    9  C15 MIQ B 502     -13.877   6.523  -9.001  1.00142.10     0.195 A 
HETATM   10  N17 MIQ B 502     -14.146   7.701  -8.463  1.00139.42    -0.288 N 
HETATM   11  O16 MIQ B 502     -14.700   5.396  -9.019  1.00148.93    -0.171 OA
ENDROOT
BRANCH  10  12
HETATM   12  C18 MIQ B 502     -15.412   7.962  -7.804  1.00139.82     0.187 C 
HETATM   13  C19 MIQ B 502     -15.966   9.279  -8.361  1.00140.06     0.247 C 
HETATM   14  O25 MIQ B 502     -16.040   9.425  -9.529  1.00143.95    -0.271 OA
HETATM   15  N20 MIQ B 502     -16.409  10.349  -7.491  1.00140.02    -0.296 N 
HETATM   16  H13 MIQ B 502     -16.763  11.207  -7.867  1.00142.77     0.171 HD
HETATM   17  C21 MIQ B 502     -16.301  10.152  -6.069  1.00142.22     0.224 C 
HETATM   18  C22 MIQ B 502     -15.127   9.322  -5.584  1.00139.52     0.106 C 
HETATM   19  O24 MIQ B 502     -17.091  10.610  -5.319  1.00146.13    -0.273 OA
HETATM   20  C23 MIQ B 502     -15.229   7.980  -6.287  1.00139.15     0.045 C 
ENDBRANCH  10  12
BRANCH   5  21
HETATM   21  N6  MIQ B 502      -8.541   8.008 -10.952  1.00140.95    -0.377 N 
HETATM   22  C7  MIQ B 502      -7.799   7.205 -11.908  1.00142.12     0.149 C 
HETATM   23  C8  MIQ B 502      -6.297   7.431 -11.796  1.00144.10     0.187 C 
HETATM   24  O9  MIQ B 502      -5.952   8.783 -11.759  1.00148.65    -0.388 OA
HETATM   25  C10 MIQ B 502      -6.938   9.761 -11.605  1.00147.44     0.187 C 
HETATM   26  C11 MIQ B 502      -8.195   9.412 -10.813  1.00144.08     0.149 C 
ENDBRANCH   5  21
TORSDOF 2
ENDMDL
MODEL 4
REMARK VINA RESULT:      -6.4      5.743      9.853
REMARK  2 active torsions:
REMARK  status: ('A' for Active; 'I' for Inactive)
REMARK    1  A    between atoms: C5_5  and  N6_21 
REMARK    2  A    between atoms: C18_14  and  N17_19 
ROOT
HETATM    1  O1  MIQ B 502     -14.466   8.801 -11.087  1.00142.91    -0.171 OA
HETATM    2  C2  MIQ B 502     -14.524   8.018  -9.933  1.00141.17     0.195 A 
HETATM    3  C3  MIQ B 502     -14.880   8.517  -8.496  1.00141.71     0.035 A 
HETATM    4  C4  MIQ B 502     -15.239   9.843  -7.938  1.00142.86     0.046 A 
HETATM    5  C5  MIQ B 502     -15.518   9.987  -6.555  1.00139.53     0.031 A 
HETATM    6  C12 MIQ B 502     -15.451   8.825  -5.680  1.00139.38     0.030 A 
HETATM    7  C13 MIQ B 502     -15.108   7.554  -6.215  1.00141.18     0.019 A 
HETATM    8  C14 MIQ B 502     -14.819   7.409  -7.668  1.00138.77     0.033 A 
HETATM    9  C15 MIQ B 502     -14.424   6.214  -8.595  1.00142.10     0.195 A 
HETATM   10  N17 MIQ B 502     -14.302   6.720  -9.811  1.00139.42    -0.288 N 
HETATM   11  O16 MIQ B 502     -14.235   4.885  -8.212  1.00148.93    -0.171 OA
ENDROOT
BRANCH  10  12
HETATM   12  C18 MIQ B 502     -13.924   5.893 -10.942  1.00139.82     0.187 C 
HETATM   13  C19 MIQ B 502     -12.713   6.548 -11.617  1.00140.06     0.247 C 
HETATM   14  O25 MIQ B 502     -11.780   6.849 -10.960  1.00143.95    -0.271 OA
HETATM   15  N20 MIQ B 502     -12.678   6.804 -13.042  1.00140.02    -0.296 N 
HETATM   16  H13 MIQ B 502     -11.884   7.238 -13.470  1.00142.77     0.171 HD
HETATM   17  C21 MIQ B 502     -13.833   6.438 -13.821  1.00142.22     0.224 C 
HETATM   18  C22 MIQ B 502     -15.182   6.561 -13.140  1.00139.52     0.106 C 
HETATM   19  O24 MIQ B 502     -13.731   6.055 -14.935  1.00146.13    -0.273 OA
HETATM   20  C23 MIQ B 502     -15.111   5.708 -11.886  1.00139.15     0.045 C 
ENDBRANCH  10  12
BRANCH   5  21
HETATM   21  N6  MIQ B 502     -15.853  11.294  -6.020  1.00140.95    -0.377 N 
HETATM   22  C7  MIQ B 502     -15.496  12.472  -6.790  1.00142.12     0.149 C 
HETATM   23  C8  MIQ B 502     -15.300  13.694  -5.902  1.00144.10     0.187 C 
HETATM   24  O9  MIQ B 502     -16.339  13.872  -4.986  1.00148.65    -0.388 OA
HETATM   25  C10 MIQ B 502     -17.296  12.872  -4.799  1.00147.44     0.187 C 
HETATM   26  C11 MIQ B 502     -16.883  11.418  -5.003  1.00144.08     0.149 C 
ENDBRANCH   5  21
TORSDOF 2
ENDMDL
MODEL 5
REMARK VINA RESULT:      -6.2      8.841     12.296
REMARK  2 active torsions:
REMARK  status: ('A' for Active; 'I' for Inactive)
REMARK    1  A    between atoms: C5_5  and  N6_21 
REMARK    2  A    between atoms: C18_14  and  N17_19 
ROOT
HETATM    1  O1  MIQ B 502      -5.539   7.639 -20.354  1.00142.91    -0.171 OA
HETATM    2  C2  MIQ B 502      -4.151   7.479 -20.352  1.00141.17     0.195 A 
HETATM    3  C3  MIQ B 502      -3.214   7.546 -21.600  1.00141.71     0.035 A 
HETATM    4  C4  MIQ B 502      -3.454   7.778 -23.044  1.00142.86     0.046 A 
HETATM    5  C5  MIQ B 502      -2.371   7.782 -23.959  1.00139.53     0.031 A 
HETATM    6  C12 MIQ B 502      -1.016   7.557 -23.476  1.00139.38     0.030 A 
HETATM    7  C13 MIQ B 502      -0.785   7.336 -22.091  1.00141.18     0.019 A 
HETATM    8  C14 MIQ B 502      -1.926   7.335 -21.135  1.00138.77     0.033 A 
HETATM    9  C15 MIQ B 502      -2.064   7.137 -19.590  1.00142.10     0.195 A 
HETATM   10  N17 MIQ B 502      -3.355   7.249 -19.322  1.00139.42    -0.288 N 
HETATM   11  O16 MIQ B 502      -1.032   6.890 -18.683  1.00148.93    -0.171 OA
ENDROOT
BRANCH  10  12
HETATM   12  C18 MIQ B 502      -3.863   7.105 -17.971  1.00139.82     0.187 C 
HETATM   13  C19 MIQ B 502      -3.073   8.061 -17.069  1.00140.06     0.247 C 
HETATM   14  O25 MIQ B 502      -2.969   9.194 -17.382  1.00143.95    -0.271 OA
HETATM   15  N20 MIQ B 502      -2.453   7.614 -15.838  1.00140.02    -0.296 N 
HETATM   16  H13 MIQ B 502      -1.934   8.247 -15.262  1.00142.77     0.171 HD
HETATM   17  C21 MIQ B 502      -2.585   6.225 -15.483  1.00142.22     0.224 C 
HETATM   18  C22 MIQ B 502      -2.623   5.230 -16.627  1.00139.52     0.106 C 
HETATM   19  O24 MIQ B 502      -2.664   5.880 -14.356  1.00146.13    -0.273 OA
HETATM   20  C23 MIQ B 502      -3.776   5.647 -17.523  1.00139.15     0.045 C 
ENDBRANCH  10  12
BRANCH   5  21
HETATM   21  N6  MIQ B 502      -2.623   7.996 -25.372  1.00140.95    -0.377 N 
HETATM   22  C7  MIQ B 502      -1.500   8.319 -26.236  1.00142.12     0.149 C 
HETATM   23  C8  MIQ B 502      -1.935   9.119 -27.458  1.00144.10     0.187 C 
HETATM   24  O9  MIQ B 502      -3.045   8.568 -28.101  1.00148.65    -0.388 OA
HETATM   25  C10 MIQ B 502      -3.769   7.534 -27.503  1.00147.44     0.187 C 
HETATM   26  C11 MIQ B 502      -3.835   7.476 -25.980  1.00144.08     0.149 C 
ENDBRANCH   5  21
TORSDOF 2
ENDMDL
MODEL 6
REMARK VINA RESULT:      -6.2      3.163      8.915
REMARK  2 active torsions:
REMARK  status: ('A' for Active; 'I' for Inactive)
REMARK    1  A    between atoms: C5_5  and  N6_21 
REMARK    2  A    between atoms: C18_14  and  N17_19 
ROOT
HETATM    1  O1  MIQ B 502     -10.312  11.725  -9.809  1.00142.91    -0.171 OA
HETATM    2  C2  MIQ B 502     -10.576  10.365  -9.988  1.00141.17     0.195 A 
HETATM    3  C3  MIQ B 502     -11.685   9.538  -9.264  1.00141.71     0.035 A 
HETATM    4  C4  MIQ B 502     -12.718   9.880  -8.258  1.00142.86     0.046 A 
HETATM    5  C5  MIQ B 502     -13.608   8.886  -7.778  1.00139.53     0.031 A 
HETATM    6  C12 MIQ B 502     -13.506   7.523  -8.277  1.00139.38     0.030 A 
HETATM    7  C13 MIQ B 502     -12.516   7.194  -9.243  1.00141.18     0.019 A 
HETATM    8  C14 MIQ B 502     -11.586   8.242  -9.745  1.00138.77     0.033 A 
HETATM    9  C15 MIQ B 502     -10.409   8.266 -10.774  1.00142.10     0.195 A 
HETATM   10  N17 MIQ B 502      -9.964   9.511 -10.791  1.00139.42    -0.288 N 
HETATM   11  O16 MIQ B 502      -9.929   7.187 -11.519  1.00148.93    -0.171 OA
ENDROOT
BRANCH  10  12
HETATM   12  C18 MIQ B 502      -8.849   9.905 -11.632  1.00139.82     0.187 C 
HETATM   13  C19 MIQ B 502      -9.157   9.446 -13.062  1.00140.06     0.247 C 
HETATM   14  O25 MIQ B 502     -10.195   9.727 -13.547  1.00143.95    -0.271 OA
HETATM   15  N20 MIQ B 502      -8.205   8.679 -13.840  1.00140.02    -0.296 N 
HETATM   16  H13 MIQ B 502      -8.421   8.380 -14.770  1.00142.77     0.171 HD
HETATM   17  C21 MIQ B 502      -6.949   8.339 -13.223  1.00142.22     0.224 C 
HETATM   18  C22 MIQ B 502      -6.971   8.082 -11.728  1.00139.52     0.106 C 
HETATM   19  O24 MIQ B 502      -5.951   8.268 -13.852  1.00146.13    -0.273 OA
HETATM   20  C23 MIQ B 502      -7.542   9.333 -11.085  1.00139.15     0.045 C 
ENDBRANCH  10  12
BRANCH   5  21
HETATM   21  N6  MIQ B 502     -14.605   9.232  -6.781  1.00140.95    -0.377 N 
HETATM   22  C7  MIQ B 502     -14.990  10.626  -6.638  1.00142.12     0.149 C 
HETATM   23  C8  MIQ B 502     -15.491  10.936  -5.234  1.00144.10     0.187 C 
HETATM   24  O9  MIQ B 502     -16.427  10.008  -4.773  1.00148.65    -0.388 OA
HETATM   25  C10 MIQ B 502     -16.654   8.823  -5.477  1.00147.44     0.187 C 
HETATM   26  C11 MIQ B 502     -15.502   8.212  -6.267  1.00144.08     0.149 C 
ENDBRANCH   5  21
TORSDOF 2
ENDMDL
MODEL 7
REMARK VINA RESULT:      -6.2      8.066     11.914
REMARK  2 active torsions:
REMARK  status: ('A' for Active; 'I' for Inactive)
REMARK    1  A    between atoms: C5_5  and  N6_21 
REMARK    2  A    between atoms: C18_14  and  N17_19 
ROOT
HETATM    1  O1  MIQ B 502       0.327   6.966 -19.407  1.00142.91    -0.171 OA
HETATM    2  C2  MIQ B 502      -1.066   7.065 -19.437  1.00141.17     0.195 A 
HETATM    3  C3  MIQ B 502      -1.945   7.326 -20.701  1.00141.71     0.035 A 
HETATM    4  C4  MIQ B 502      -1.632   7.530 -22.136  1.00142.86     0.046 A 
HETATM    5  C5  MIQ B 502      -2.674   7.749 -23.072  1.00139.53     0.031 A 
HETATM    6  C12 MIQ B 502      -4.058   7.773 -22.621  1.00139.38     0.030 A 
HETATM    7  C13 MIQ B 502      -4.358   7.577 -21.246  1.00141.18     0.019 A 
HETATM    8  C14 MIQ B 502      -3.261   7.345 -20.268  1.00138.77     0.033 A 
HETATM    9  C15 MIQ B 502      -3.198   7.094 -18.726  1.00142.10     0.195 A 
HETATM   10  N17 MIQ B 502      -1.916   6.958 -18.430  1.00139.42    -0.288 N 
HETATM   11  O16 MIQ B 502      -4.279   7.030 -17.845  1.00148.93    -0.171 OA
ENDROOT
BRANCH  10  12
HETATM   12  C18 MIQ B 502      -1.474   6.725 -17.068  1.00139.82     0.187 C 
HETATM   13  C19 MIQ B 502      -2.258   5.527 -16.519  1.00140.06     0.247 C 
HETATM   14  O25 MIQ B 502      -2.296   4.528 -17.146  1.00143.95    -0.271 OA
HETATM   15  N20 MIQ B 502      -2.950   5.584 -15.248  1.00140.02    -0.296 N 
HETATM   16  H13 MIQ B 502      -3.464   4.797 -14.904  1.00142.77     0.171 HD
HETATM   17  C21 MIQ B 502      -2.897   6.817 -14.506  1.00142.22     0.224 C 
HETATM   18  C22 MIQ B 502      -2.854   8.099 -15.316  1.00139.52     0.106 C 
HETATM   19  O24 MIQ B 502      -2.882   6.827 -13.324  1.00146.13    -0.273 OA
HETATM   20  C23 MIQ B 502      -1.646   7.991 -16.229  1.00139.15     0.045 C 
ENDBRANCH  10  12
BRANCH   5  21
HETATM   21  N6  MIQ B 502      -2.352   7.961 -24.472  1.00140.95    -0.377 N 
HETATM   22  C7  MIQ B 502      -3.399   8.434 -25.361  1.00142.12     0.149 C 
HETATM   23  C8  MIQ B 502      -3.154   8.010 -26.804  1.00144.10     0.187 C 
HETATM   24  O9  MIQ B 502      -1.849   8.262 -27.231  1.00148.65    -0.388 OA
HETATM   25  C10 MIQ B 502      -0.866   8.643 -26.314  1.00147.44     0.187 C 
HETATM   26  C11 MIQ B 502      -0.969   8.134 -24.880  1.00144.08     0.149 C 
ENDBRANCH   5  21
TORSDOF 2
ENDMDL
MODEL 8
REMARK VINA RESULT:      -6.1      6.416     12.791
REMARK  2 active torsions:
REMARK  status: ('A' for Active; 'I' for Inactive)
REMARK    1  A    between atoms: C5_5  and  N6_21 
REMARK    2  A    between atoms: C18_14  and  N17_19 
ROOT
HETATM    1  O1  MIQ B 502       1.510   9.091 -14.806  1.00142.91    -0.171 OA
HETATM    2  C2  MIQ B 502       1.370   8.183 -15.858  1.00141.17     0.195 A 
HETATM    3  C3  MIQ B 502       0.166   7.214 -16.086  1.00141.71     0.035 A 
HETATM    4  C4  MIQ B 502      -1.094   6.963 -15.346  1.00142.86     0.046 A 
HETATM    5  C5  MIQ B 502      -2.018   5.995 -15.813  1.00139.53     0.031 A 
HETATM    6  C12 MIQ B 502      -1.726   5.244 -17.026  1.00139.38     0.030 A 
HETATM    7  C13 MIQ B 502      -0.519   5.485 -17.736  1.00141.18     0.019 A 
HETATM    8  C14 MIQ B 502       0.446   6.505 -17.242  1.00138.77     0.033 A 
HETATM    9  C15 MIQ B 502       1.831   7.037 -17.735  1.00142.10     0.195 A 
HETATM   10  N17 MIQ B 502       2.201   7.959 -16.862  1.00139.42    -0.288 N 
HETATM   11  O16 MIQ B 502       2.533   6.617 -18.867  1.00148.93    -0.171 OA
ENDROOT
BRANCH  10  12
HETATM   12  C18 MIQ B 502       3.461   8.666 -16.994  1.00139.82     0.187 C 
HETATM   13  C19 MIQ B 502       4.196   8.565 -15.652  1.00140.06     0.247 C 
HETATM   14  O25 MIQ B 502       4.336   7.507 -15.149  1.00143.95    -0.271 OA
HETATM   15  N20 MIQ B 502       4.732   9.735 -14.985  1.00140.02    -0.296 N 
HETATM   16  H13 MIQ B 502       5.204   9.657 -14.106  1.00142.77     0.171 HD
HETATM   17  C21 MIQ B 502       4.540  11.016 -15.614  1.00142.22     0.224 C 
HETATM   18  C22 MIQ B 502       3.254  11.206 -16.395  1.00139.52     0.106 C 
HETATM   19  O24 MIQ B 502       5.349  11.874 -15.527  1.00146.13    -0.273 OA
HETATM   20  C23 MIQ B 502       3.218  10.106 -17.440  1.00139.15     0.045 C 
ENDBRANCH  10  12
BRANCH   5  21
HETATM   21  N6  MIQ B 502      -3.241   5.748 -15.071  1.00140.95    -0.377 N 
HETATM   22  C7  MIQ B 502      -3.191   5.781 -13.619  1.00142.12     0.149 C 
HETATM   23  C8  MIQ B 502      -4.277   4.917 -12.993  1.00144.10     0.187 C 
HETATM   24  O9  MIQ B 502      -5.538   5.139 -13.552  1.00148.65    -0.388 OA
HETATM   25  C10 MIQ B 502      -5.672   5.907 -14.712  1.00147.44     0.187 C 
HETATM   26  C11 MIQ B 502      -4.529   5.910 -15.721  1.00144.08     0.149 C 
ENDBRANCH   5  21
TORSDOF 2
ENDMDL
MODEL 9
REMARK VINA RESULT:      -6.1      4.506      8.203
REMARK  2 active torsions:
REMARK  status: ('A' for Active; 'I' for Inactive)
REMARK    1  A    between atoms: C5_5  and  N6_21 
REMARK    2  A    between atoms: C18_14  and  N17_19 
ROOT
HETATM    1  O1  MIQ B 502      -2.950   7.403 -13.407  1.00142.91    -0.171 OA
HETATM    2  C2  MIQ B 502      -2.974   6.901 -14.710  1.00141.17     0.195 A 
HETATM    3  C3  MIQ B 502      -1.745   6.745 -15.661  1.00141.71     0.035 A 
HETATM    4  C4  MIQ B 502      -0.300   7.040 -15.516  1.00142.86     0.046 A 
HETATM    5  C5  MIQ B 502       0.595   6.782 -16.584  1.00139.53     0.031 A 
HETATM    6  C12 MIQ B 502       0.091   6.223 -17.830  1.00139.38     0.030 A 
HETATM    7  C13 MIQ B 502      -1.294   5.938 -17.970  1.00141.18     0.019 A 
HETATM    8  C14 MIQ B 502      -2.229   6.209 -16.843  1.00138.77     0.033 A 
HETATM    9  C15 MIQ B 502      -3.767   6.031 -16.625  1.00142.10     0.195 A 
HETATM   10  N17 MIQ B 502      -4.013   6.458 -15.397  1.00139.42    -0.288 N 
HETATM   11  O16 MIQ B 502      -4.689   5.527 -17.544  1.00148.93    -0.171 OA
ENDROOT
BRANCH  10  12
HETATM   12  C18 MIQ B 502      -5.357   6.456 -14.849  1.00139.82     0.187 C 
HETATM   13  C19 MIQ B 502      -5.669   7.879 -14.370  1.00140.06     0.247 C 
HETATM   14  O25 MIQ B 502      -5.494   8.785 -15.104  1.00143.95    -0.271 OA
HETATM   15  N20 MIQ B 502      -6.178   8.142 -13.039  1.00140.02    -0.296 N 
HETATM   16  H13 MIQ B 502      -6.372   9.076 -12.736  1.00142.77     0.171 HD
HETATM   17  C21 MIQ B 502      -6.374   7.019 -12.158  1.00142.22     0.224 C 
HETATM   18  C22 MIQ B 502      -5.400   5.865 -12.298  1.00139.52     0.106 C 
HETATM   19  O24 MIQ B 502      -7.253   6.999 -11.369  1.00146.13    -0.273 OA
HETATM   20  C23 MIQ B 502      -5.479   5.408 -13.744  1.00139.15     0.045 C 
ENDBRANCH  10  12
BRANCH   5  21
HETATM   21  N6  MIQ B 502       2.006   7.090 -16.434  1.00140.95    -0.377 N 
HETATM   22  C7  MIQ B 502       2.849   7.081 -17.617  1.00142.12     0.149 C 
HETATM   23  C8  MIQ B 502       4.302   6.776 -17.277  1.00144.10     0.187 C 
HETATM   24  O9  MIQ B 502       4.781   7.535 -16.208  1.00148.65    -0.388 OA
HETATM   25  C10 MIQ B 502       3.904   8.297 -15.432  1.00147.44     0.187 C 
HETATM   26  C11 MIQ B 502       2.470   7.809 -15.260  1.00144.08     0.149 C 
ENDBRANCH   5  21
TORSDOF 2
ENDMDL
