MODEL 1
REMARK VINA RESULT:      -7.2      0.000      0.000
REMARK  2 active torsions:
REMARK  status: ('A' for Active; 'I' for Inactive)
REMARK    1  A    between atoms: C5_5  and  N6_21 
REMARK    2  A    between atoms: C18_14  and  N17_19 
ROOT
HETATM    1  O1  MIQ B 502     -17.192   4.135  -4.548  1.00142.91    -0.171 OA
HETATM    2  C2  MIQ B 502     -18.284   3.555  -3.899  1.00141.17     0.195 A 
HETATM    3  C3  MIQ B 502     -19.562   2.974  -4.584  1.00141.71     0.035 A 
HETATM    4  C4  MIQ B 502     -19.995   2.853  -5.997  1.00142.86     0.046 A 
HETATM    5  C5  MIQ B 502     -21.243   2.260  -6.315  1.00139.53     0.031 A 
HETATM    6  C12 MIQ B 502     -22.103   1.768  -5.248  1.00139.38     0.030 A 
HETATM    7  C13 MIQ B 502     -21.687   1.883  -3.894  1.00141.18     0.019 A 
HETATM    8  C14 MIQ B 502     -20.375   2.504  -3.566  1.00138.77     0.033 A 
HETATM    9  C15 MIQ B 502     -19.597   2.794  -2.241  1.00142.10     0.195 A 
HETATM   10  N17 MIQ B 502     -18.464   3.373  -2.602  1.00139.42    -0.288 N 
HETATM   11  O16 MIQ B 502     -20.019   2.502  -0.943  1.00148.93    -0.171 OA
ENDROOT
BRANCH  10  12
HETATM   12  C18 MIQ B 502     -17.486   3.802  -1.620  1.00139.82     0.187 C 
HETATM   13  C19 MIQ B 502     -17.248   2.634  -0.655  1.00140.06     0.247 C 
HETATM   14  O25 MIQ B 502     -16.994   1.569  -1.093  1.00143.95    -0.271 OA
HETATM   15  N20 MIQ B 502     -17.321   2.803   0.782  1.00140.02    -0.296 N 
HETATM   16  H13 MIQ B 502     -17.170   2.031   1.401  1.00142.77     0.171 HD
HETATM   17  C21 MIQ B 502     -17.643   4.111   1.292  1.00142.22     0.224 C 
HETATM   18  C22 MIQ B 502     -18.589   4.953   0.458  1.00139.52     0.106 C 
HETATM   19  O24 MIQ B 502     -17.187   4.508   2.307  1.00146.13    -0.273 OA
HETATM   20  C23 MIQ B 502     -17.960   5.074  -0.918  1.00139.15     0.045 C 
ENDBRANCH  10  12
BRANCH   5  21
HETATM   21  N6  MIQ B 502     -21.662   2.162  -7.702  1.00140.95    -0.377 N 
HETATM   22  C7  MIQ B 502     -22.062   0.863  -8.216  1.00142.12     0.149 C 
HETATM   23  C8  MIQ B 502     -21.847   0.757  -9.720  1.00144.10     0.187 C 
HETATM   24  O9  MIQ B 502     -22.349   1.856 -10.420  1.00148.65    -0.388 OA
HETATM   25  C10 MIQ B 502     -22.774   2.997  -9.734  1.00147.44     0.187 C 
HETATM   26  C11 MIQ B 502     -22.095   3.351  -8.415  1.00144.08     0.149 C 
ENDBRANCH   5  21
TORSDOF 2
ENDMDL
MODEL 2
REMARK VINA RESULT:      -6.6      2.089      3.288
REMARK  2 active torsions:
REMARK  status: ('A' for Active; 'I' for Inactive)
REMARK    1  A    between atoms: C5_5  and  N6_21 
REMARK    2  A    between atoms: C18_14  and  N17_19 
ROOT
HETATM    1  O1  MIQ B 502     -19.092   1.921  -5.087  1.00142.91    -0.171 OA
HETATM    2  C2  MIQ B 502     -20.285   2.646  -5.043  1.00141.17     0.195 A 
HETATM    3  C3  MIQ B 502     -21.408   2.642  -6.129  1.00141.71     0.035 A 
HETATM    4  C4  MIQ B 502     -21.568   1.943  -7.426  1.00142.86     0.046 A 
HETATM    5  C5  MIQ B 502     -22.731   2.146  -8.211  1.00139.53     0.031 A 
HETATM    6  C12 MIQ B 502     -23.774   3.045  -7.738  1.00139.38     0.030 A 
HETATM    7  C13 MIQ B 502     -23.621   3.715  -6.494  1.00141.18     0.019 A 
HETATM    8  C14 MIQ B 502     -22.398   3.497  -5.674  1.00138.77     0.033 A 
HETATM    9  C15 MIQ B 502     -21.889   4.033  -4.297  1.00142.10     0.195 A 
HETATM   10  N17 MIQ B 502     -20.711   3.464  -4.096  1.00139.42    -0.288 N 
HETATM   11  O16 MIQ B 502     -22.546   4.933  -3.455  1.00148.93    -0.171 OA
ENDROOT
BRANCH  10  12
HETATM   12  C18 MIQ B 502     -19.927   3.746  -2.909  1.00139.82     0.187 C 
HETATM   13  C19 MIQ B 502     -18.538   4.211  -3.365  1.00140.06     0.247 C 
HETATM   14  O25 MIQ B 502     -18.454   5.076  -4.163  1.00143.95    -0.271 OA
HETATM   15  N20 MIQ B 502     -17.324   3.623  -2.838  1.00140.02    -0.296 N 
HETATM   16  H13 MIQ B 502     -16.424   3.931  -3.148  1.00142.77     0.171 HD
HETATM   17  C21 MIQ B 502     -17.453   2.562  -1.872  1.00142.22     0.224 C 
HETATM   18  C22 MIQ B 502     -18.645   1.638  -2.030  1.00139.52     0.106 C 
HETATM   19  O24 MIQ B 502     -16.670   2.424  -0.998  1.00146.13    -0.273 OA
HETATM   20  C23 MIQ B 502     -19.881   2.519  -1.999  1.00139.15     0.045 C 
ENDBRANCH  10  12
BRANCH   5  21
HETATM   21  N6  MIQ B 502     -22.868   1.466  -9.486  1.00140.95    -0.377 N 
HETATM   22  C7  MIQ B 502     -22.947   2.267 -10.695  1.00142.12     0.149 C 
HETATM   23  C8  MIQ B 502     -23.705   1.549 -11.805  1.00144.10     0.187 C 
HETATM   24  O9  MIQ B 502     -23.280   0.232 -11.988  1.00148.65    -0.388 OA
HETATM   25  C10 MIQ B 502     -22.420  -0.369 -11.066  1.00147.44     0.187 C 
HETATM   26  C11 MIQ B 502     -22.493   0.068  -9.607  1.00144.08     0.149 C 
ENDBRANCH   5  21
TORSDOF 2
ENDMDL
MODEL 3
REMARK VINA RESULT:      -6.3      1.935      2.452
REMARK  2 active torsions:
REMARK  status: ('A' for Active; 'I' for Inactive)
REMARK    1  A    between atoms: C5_5  and  N6_21 
REMARK    2  A    between atoms: C18_14  and  N17_19 
ROOT
HETATM    1  O1  MIQ B 502     -18.965   1.686  -3.378  1.00142.91    -0.171 OA
HETATM    2  C2  MIQ B 502     -19.432   3.002  -3.419  1.00141.17     0.195 A 
HETATM    3  C3  MIQ B 502     -20.214   3.666  -4.597  1.00141.71     0.035 A 
HETATM    4  C4  MIQ B 502     -20.674   3.177  -5.919  1.00142.86     0.046 A 
HETATM    5  C5  MIQ B 502     -21.381   4.039  -6.795  1.00139.53     0.031 A 
HETATM    6  C12 MIQ B 502     -21.656   5.411  -6.393  1.00139.38     0.030 A 
HETATM    7  C13 MIQ B 502     -21.216   5.879  -5.126  1.00141.18     0.019 A 
HETATM    8  C14 MIQ B 502     -20.476   4.970  -4.209  1.00138.77     0.033 A 
HETATM    9  C15 MIQ B 502     -19.854   5.115  -2.782  1.00142.10     0.195 A 
HETATM   10  N17 MIQ B 502     -19.321   3.939  -2.494  1.00139.42    -0.288 N 
HETATM   11  O16 MIQ B 502     -19.862   6.258  -1.980  1.00148.93    -0.171 OA
ENDROOT
BRANCH  10  12
HETATM   12  C18 MIQ B 502     -18.633   3.707  -1.238  1.00139.82     0.187 C 
HETATM   13  C19 MIQ B 502     -17.175   3.356  -1.561  1.00140.06     0.247 C 
HETATM   14  O25 MIQ B 502     -16.558   4.062  -2.277  1.00143.95    -0.271 OA
HETATM   15  N20 MIQ B 502     -16.531   2.184  -1.006  1.00140.02    -0.296 N 
HETATM   16  H13 MIQ B 502     -15.580   1.962  -1.230  1.00142.77     0.171 HD
HETATM   17  C21 MIQ B 502     -17.308   1.332  -0.143  1.00142.22     0.224 C 
HETATM   18  C22 MIQ B 502     -18.787   1.212  -0.456  1.00139.52     0.106 C 
HETATM   19  O24 MIQ B 502     -16.816   0.759   0.766  1.00146.13    -0.273 OA
HETATM   20  C23 MIQ B 502     -19.348   2.623  -0.433  1.00139.15     0.045 C 
ENDBRANCH  10  12
BRANCH   5  21
HETATM   21  N6  MIQ B 502     -21.814   3.551  -8.092  1.00140.95    -0.377 N 
HETATM   22  C7  MIQ B 502     -22.156   2.145  -8.227  1.00142.12     0.149 C 
HETATM   23  C8  MIQ B 502     -21.958   1.646  -9.652  1.00144.10     0.187 C 
HETATM   24  O9  MIQ B 502     -22.523   2.492 -10.608  1.00148.65    -0.388 OA
HETATM   25  C10 MIQ B 502     -22.994   3.756 -10.244  1.00147.44     0.187 C 
HETATM   26  C11 MIQ B 502     -22.316   4.482  -9.087  1.00144.08     0.149 C 
ENDBRANCH   5  21
TORSDOF 2
ENDMDL
MODEL 4
REMARK VINA RESULT:      -6.2     20.803     22.910
REMARK  2 active torsions:
REMARK  status: ('A' for Active; 'I' for Inactive)
REMARK    1  A    between atoms: C5_5  and  N6_21 
REMARK    2  A    between atoms: C18_14  and  N17_19 
ROOT
HETATM    1  O1  MIQ B 502     -16.163 -19.649 -11.665  1.00142.91    -0.171 OA
HETATM    2  C2  MIQ B 502     -15.761 -18.356 -11.320  1.00141.17     0.195 A 
HETATM    3  C3  MIQ B 502     -15.319 -17.233 -12.311  1.00141.71     0.035 A 
HETATM    4  C4  MIQ B 502     -15.194 -17.166 -13.786  1.00142.86     0.046 A 
HETATM    5  C5  MIQ B 502     -14.756 -15.973 -14.415  1.00139.53     0.031 A 
HETATM    6  C12 MIQ B 502     -14.428 -14.808 -13.606  1.00139.38     0.030 A 
HETATM    7  C13 MIQ B 502     -14.549 -14.871 -12.192  1.00141.18     0.019 A 
HETATM    8  C14 MIQ B 502     -15.011 -16.125 -11.537  1.00138.77     0.033 A 
HETATM    9  C15 MIQ B 502     -15.265 -16.564 -10.058  1.00142.10     0.195 A 
HETATM   10  N17 MIQ B 502     -15.676 -17.820 -10.115  1.00139.42    -0.288 N 
HETATM   11  O16 MIQ B 502     -15.088 -15.785  -8.913  1.00148.93    -0.171 OA
ENDROOT
BRANCH  10  12
HETATM   12  C18 MIQ B 502     -15.995 -18.568  -8.913  1.00139.82     0.187 C 
HETATM   13  C19 MIQ B 502     -15.226 -19.893  -8.969  1.00140.06     0.247 C 
HETATM   14  O25 MIQ B 502     -14.066 -19.878  -9.183  1.00143.95    -0.271 OA
HETATM   15  N20 MIQ B 502     -15.884 -21.167  -8.760  1.00140.02    -0.296 N 
HETATM   16  H13 MIQ B 502     -15.372 -22.026  -8.806  1.00142.77     0.171 HD
HETATM   17  C21 MIQ B 502     -17.302 -21.161  -8.511  1.00142.22     0.224 C 
HETATM   18  C22 MIQ B 502     -18.111 -20.082  -9.205  1.00139.52     0.106 C 
HETATM   19  O24 MIQ B 502     -17.807 -21.955  -7.796  1.00146.13    -0.273 OA
HETATM   20  C23 MIQ B 502     -17.506 -18.754  -8.788  1.00139.15     0.045 C 
ENDBRANCH  10  12
BRANCH   5  21
HETATM   21  N6  MIQ B 502     -14.624 -15.927 -15.860  1.00140.95    -0.377 N 
HETATM   22  C7  MIQ B 502     -14.349 -17.163 -16.573  1.00142.12     0.149 C 
HETATM   23  C8  MIQ B 502     -13.621 -16.912 -17.887  1.00144.10     0.187 C 
HETATM   24  O9  MIQ B 502     -14.210 -15.902 -18.650  1.00148.65    -0.388 OA
HETATM   25  C10 MIQ B 502     -15.209 -15.092 -18.103  1.00147.44     0.187 C 
HETATM   26  C11 MIQ B 502     -15.179 -14.810 -16.604  1.00144.08     0.149 C 
ENDBRANCH   5  21
TORSDOF 2
ENDMDL
MODEL 5
REMARK VINA RESULT:      -6.2      2.347      3.117
REMARK  2 active torsions:
REMARK  status: ('A' for Active; 'I' for Inactive)
REMARK    1  A    between atoms: C5_5  and  N6_21 
REMARK    2  A    between atoms: C18_14  and  N17_19 
ROOT
HETATM    1  O1  MIQ B 502     -20.880   3.853  -1.564  1.00142.91    -0.171 OA
HETATM    2  C2  MIQ B 502     -20.310   3.457  -2.776  1.00141.17     0.195 A 
HETATM    3  C3  MIQ B 502     -21.051   3.325  -4.144  1.00141.71     0.035 A 
HETATM    4  C4  MIQ B 502     -22.452   3.555  -4.571  1.00142.86     0.046 A 
HETATM    5  C5  MIQ B 502     -22.834   3.346  -5.920  1.00139.53     0.031 A 
HETATM    6  C12 MIQ B 502     -21.844   2.905  -6.891  1.00139.38     0.030 A 
HETATM    7  C13 MIQ B 502     -20.500   2.686  -6.483  1.00141.18     0.019 A 
HETATM    8  C14 MIQ B 502     -20.105   2.909  -5.066  1.00138.77     0.033 A 
HETATM    9  C15 MIQ B 502     -18.768   2.781  -4.265  1.00142.10     0.195 A 
HETATM   10  N17 MIQ B 502     -19.055   3.122  -3.019  1.00139.42    -0.288 N 
HETATM   11  O16 MIQ B 502     -17.527   2.385  -4.767  1.00148.93    -0.171 OA
ENDROOT
BRANCH  10  12
HETATM   12  C18 MIQ B 502     -18.044   3.105  -1.978  1.00139.82     0.187 C 
HETATM   13  C19 MIQ B 502     -18.600   2.296  -0.800  1.00140.06     0.247 C 
HETATM   14  O25 MIQ B 502     -19.046   1.222  -0.998  1.00143.95    -0.271 OA
HETATM   15  N20 MIQ B 502     -18.589   2.812   0.554  1.00140.02    -0.296 N 
HETATM   16  H13 MIQ B 502     -18.961   2.277   1.314  1.00142.77     0.171 HD
HETATM   17  C21 MIQ B 502     -18.049   4.130   0.769  1.00142.22     0.224 C 
HETATM   18  C22 MIQ B 502     -18.255   5.140  -0.343  1.00139.52     0.106 C 
HETATM   19  O24 MIQ B 502     -17.470   4.406   1.762  1.00146.13    -0.273 OA
HETATM   20  C23 MIQ B 502     -17.651   4.532  -1.596  1.00139.15     0.045 C 
ENDBRANCH  10  12
BRANCH   5  21
HETATM   21  N6  MIQ B 502     -24.213   3.560  -6.320  1.00140.95    -0.377 N 
HETATM   22  C7  MIQ B 502     -25.066   4.371  -5.468  1.00142.12     0.149 C 
HETATM   23  C8  MIQ B 502     -26.536   4.000  -5.617  1.00144.10     0.187 C 
HETATM   24  O9  MIQ B 502     -26.940   3.906  -6.950  1.00148.65    -0.388 OA
HETATM   25  C10 MIQ B 502     -25.996   3.929  -7.979  1.00147.44     0.187 C 
HETATM   26  C11 MIQ B 502     -24.605   3.367  -7.706  1.00144.08     0.149 C 
ENDBRANCH   5  21
TORSDOF 2
ENDMDL
MODEL 6
REMARK VINA RESULT:      -6.1     21.066     23.734
REMARK  2 active torsions:
REMARK  status: ('A' for Active; 'I' for Inactive)
REMARK    1  A    between atoms: C5_5  and  N6_21 
REMARK    2  A    between atoms: C18_14  and  N17_19 
ROOT
HETATM    1  O1  MIQ B 502     -16.533 -18.293 -16.216  1.00142.91    -0.171 OA
HETATM    2  C2  MIQ B 502     -15.957 -17.061 -15.901  1.00141.17     0.195 A 
HETATM    3  C3  MIQ B 502     -15.513 -16.586 -14.481  1.00141.71     0.035 A 
HETATM    4  C4  MIQ B 502     -15.547 -17.216 -13.140  1.00142.86     0.046 A 
HETATM    5  C5  MIQ B 502     -15.056 -16.517 -12.007  1.00139.53     0.031 A 
HETATM    6  C12 MIQ B 502     -14.516 -15.174 -12.165  1.00139.38     0.030 A 
HETATM    7  C13 MIQ B 502     -14.482 -14.571 -13.451  1.00141.18     0.019 A 
HETATM    8  C14 MIQ B 502     -14.996 -15.310 -14.637  1.00138.77     0.033 A 
HETATM    9  C15 MIQ B 502     -15.120 -14.991 -16.162  1.00142.10     0.195 A 
HETATM   10  N17 MIQ B 502     -15.666 -16.061 -16.716  1.00139.42    -0.288 N 
HETATM   11  O16 MIQ B 502     -14.733 -13.813 -16.804  1.00148.93    -0.171 OA
ENDROOT
BRANCH  10  12
HETATM   12  C18 MIQ B 502     -15.949 -16.117 -18.138  1.00139.82     0.187 C 
HETATM   13  C19 MIQ B 502     -14.657 -15.764 -18.886  1.00140.06     0.247 C 
HETATM   14  O25 MIQ B 502     -13.660 -16.332 -18.612  1.00143.95    -0.271 OA
HETATM   15  N20 MIQ B 502     -14.627 -14.755 -19.925  1.00140.02    -0.296 N 
HETATM   16  H13 MIQ B 502     -13.776 -14.530 -20.401  1.00142.77     0.171 HD
HETATM   17  C21 MIQ B 502     -15.855 -14.069 -20.234  1.00142.22     0.224 C 
HETATM   18  C22 MIQ B 502     -16.811 -13.831 -19.081  1.00139.52     0.106 C 
HETATM   19  O24 MIQ B 502     -16.104 -13.714 -21.333  1.00146.13    -0.273 OA
HETATM   20  C23 MIQ B 502     -17.115 -15.193 -18.485  1.00139.15     0.045 C 
ENDBRANCH  10  12
BRANCH   5  21
HETATM   21  N6  MIQ B 502     -15.109 -17.140 -10.697  1.00140.95    -0.377 N 
HETATM   22  C7  MIQ B 502     -15.759 -16.423  -9.613  1.00142.12     0.149 C 
HETATM   23  C8  MIQ B 502     -15.208 -16.829  -8.252  1.00144.10     0.187 C 
HETATM   24  O9  MIQ B 502     -15.129 -18.214  -8.090  1.00148.65    -0.388 OA
HETATM   25  C10 MIQ B 502     -15.325 -19.067  -9.179  1.00147.44     0.187 C 
HETATM   26  C11 MIQ B 502     -14.936 -18.576 -10.569  1.00144.08     0.149 C 
ENDBRANCH   5  21
TORSDOF 2
ENDMDL
MODEL 7
REMARK VINA RESULT:      -6.1      3.395      9.587
REMARK  2 active torsions:
REMARK  status: ('A' for Active; 'I' for Inactive)
REMARK    1  A    between atoms: C5_5  and  N6_21 
REMARK    2  A    between atoms: C18_14  and  N17_19 
ROOT
HETATM    1  O1  MIQ B 502     -22.424   0.162  -9.367  1.00142.91    -0.171 OA
HETATM    2  C2  MIQ B 502     -22.134   1.523  -9.253  1.00141.17     0.195 A 
HETATM    3  C3  MIQ B 502     -21.909   2.309  -7.921  1.00141.71     0.035 A 
HETATM    4  C4  MIQ B 502     -21.923   1.918  -6.492  1.00142.86     0.046 A 
HETATM    5  C5  MIQ B 502     -21.675   2.882  -5.482  1.00139.53     0.031 A 
HETATM    6  C12 MIQ B 502     -21.404   4.263  -5.853  1.00139.38     0.030 A 
HETATM    7  C13 MIQ B 502     -21.389   4.639  -7.224  1.00141.18     0.019 A 
HETATM    8  C14 MIQ B 502     -21.648   3.622  -8.279  1.00138.77     0.033 A 
HETATM    9  C15 MIQ B 502     -21.711   3.651  -9.841  1.00142.10     0.195 A 
HETATM   10  N17 MIQ B 502     -21.986   2.413 -10.219  1.00139.42    -0.288 N 
HETATM   11  O16 MIQ B 502     -21.519   4.762 -10.665  1.00148.93    -0.171 OA
ENDROOT
BRANCH  10  12
HETATM   12  C18 MIQ B 502     -22.137   2.065 -11.619  1.00139.82     0.187 C 
HETATM   13  C19 MIQ B 502     -23.572   1.565 -11.825  1.00140.06     0.247 C 
HETATM   14  O25 MIQ B 502     -24.472   2.222 -11.435  1.00143.95    -0.271 OA
HETATM   15  N20 MIQ B 502     -23.856   0.311 -12.491  1.00140.02    -0.296 N 
HETATM   16  H13 MIQ B 502     -24.798  -0.007 -12.613  1.00142.77     0.171 HD
HETATM   17  C21 MIQ B 502     -22.741  -0.478 -12.948  1.00142.22     0.224 C 
HETATM   18  C22 MIQ B 502     -21.478  -0.422 -12.111  1.00139.52     0.106 C 
HETATM   19  O24 MIQ B 502     -22.808  -1.131 -13.931  1.00146.13    -0.273 OA
HETATM   20  C23 MIQ B 502     -21.080   1.040 -12.029  1.00139.15     0.045 C 
ENDBRANCH  10  12
BRANCH   5  21
HETATM   21  N6  MIQ B 502     -21.706   2.487  -4.086  1.00140.95    -0.377 N 
HETATM   22  C7  MIQ B 502     -22.749   1.577  -3.644  1.00142.12     0.149 C 
HETATM   23  C8  MIQ B 502     -23.068   1.752  -2.165  1.00144.10     0.187 C 
HETATM   24  O9  MIQ B 502     -21.926   1.785  -1.363  1.00148.65    -0.388 OA
HETATM   25  C10 MIQ B 502     -20.657   1.881  -1.941  1.00147.44     0.187 C 
HETATM   26  C11 MIQ B 502     -20.514   2.621  -3.267  1.00144.08     0.149 C 
ENDBRANCH   5  21
TORSDOF 2
ENDMDL
MODEL 8
REMARK VINA RESULT:      -5.9      3.891     10.728
REMARK  2 active torsions:
REMARK  status: ('A' for Active; 'I' for Inactive)
REMARK    1  A    between atoms: C5_5  and  N6_21 
REMARK    2  A    between atoms: C18_14  and  N17_19 
ROOT
HETATM    1  O1  MIQ B 502     -20.134  -0.119 -10.705  1.00142.91    -0.171 OA
HETATM    2  C2  MIQ B 502     -21.307   0.635 -10.779  1.00141.17     0.195 A 
HETATM    3  C3  MIQ B 502     -21.979   1.413  -9.603  1.00141.71     0.035 A 
HETATM    4  C4  MIQ B 502     -21.635   1.594  -8.173  1.00142.86     0.046 A 
HETATM    5  C5  MIQ B 502     -22.461   2.380  -7.330  1.00139.53     0.031 A 
HETATM    6  C12 MIQ B 502     -23.654   3.013  -7.875  1.00139.38     0.030 A 
HETATM    7  C13 MIQ B 502     -23.984   2.840  -9.246  1.00141.18     0.019 A 
HETATM    8  C14 MIQ B 502     -23.111   2.016 -10.126  1.00138.77     0.033 A 
HETATM    9  C15 MIQ B 502     -23.142   1.611 -11.636  1.00142.10     0.195 A 
HETATM   10  N17 MIQ B 502     -22.076   0.852 -11.832  1.00139.42    -0.288 N 
HETATM   11  O16 MIQ B 502     -24.103   1.976 -12.580  1.00148.93    -0.171 OA
ENDROOT
BRANCH  10  12
HETATM   12  C18 MIQ B 502     -21.786   0.275 -13.132  1.00139.82     0.187 C 
HETATM   13  C19 MIQ B 502     -21.781   1.414 -14.159  1.00140.06     0.247 C 
HETATM   14  O25 MIQ B 502     -21.131   2.376 -13.949  1.00143.95    -0.271 OA
HETATM   15  N20 MIQ B 502     -22.549   1.340 -15.385  1.00140.02    -0.296 N 
HETATM   16  H13 MIQ B 502     -22.543   2.093 -16.044  1.00142.77     0.171 HD
HETATM   17  C21 MIQ B 502     -23.343   0.160 -15.613  1.00142.22     0.224 C 
HETATM   18  C22 MIQ B 502     -23.947  -0.502 -14.390  1.00139.52     0.106 C 
HETATM   19  O24 MIQ B 502     -23.509  -0.272 -16.701  1.00146.13    -0.273 OA
HETATM   20  C23 MIQ B 502     -22.792  -0.827 -13.461  1.00139.15     0.045 C 
ENDBRANCH  10  12
BRANCH   5  21
HETATM   21  N6  MIQ B 502     -22.120   2.537  -5.928  1.00140.95    -0.377 N 
HETATM   22  C7  MIQ B 502     -20.721   2.466  -5.542  1.00142.12     0.149 C 
HETATM   23  C8  MIQ B 502     -20.552   2.004  -4.100  1.00144.10     0.187 C 
HETATM   24  O9  MIQ B 502     -21.384   2.686  -3.210  1.00148.65    -0.388 OA
HETATM   25  C10 MIQ B 502     -22.401   3.518  -3.686  1.00147.44     0.187 C 
HETATM   26  C11 MIQ B 502     -23.056   3.177  -5.021  1.00144.08     0.149 C 
ENDBRANCH   5  21
TORSDOF 2
ENDMDL
MODEL 9
REMARK VINA RESULT:      -5.9     20.743     23.842
REMARK  2 active torsions:
REMARK  status: ('A' for Active; 'I' for Inactive)
REMARK    1  A    between atoms: C5_5  and  N6_21 
REMARK    2  A    between atoms: C18_14  and  N17_19 
ROOT
HETATM    1  O1  MIQ B 502     -15.693 -18.767 -14.454  1.00142.91    -0.171 OA
HETATM    2  C2  MIQ B 502     -15.328 -17.505 -13.981  1.00141.17     0.195 A 
HETATM    3  C3  MIQ B 502     -15.298 -17.054 -12.485  1.00141.71     0.035 A 
HETATM    4  C4  MIQ B 502     -15.609 -17.739 -11.208  1.00142.86     0.046 A 
HETATM    5  C5  MIQ B 502     -15.483 -17.050  -9.976  1.00139.53     0.031 A 
HETATM    6  C12 MIQ B 502     -15.044 -15.661  -9.966  1.00139.38     0.030 A 
HETATM    7  C13 MIQ B 502     -14.745 -15.005 -11.190  1.00141.18     0.019 A 
HETATM    8  C14 MIQ B 502     -14.877 -15.734 -12.481  1.00138.77     0.033 A 
HETATM    9  C15 MIQ B 502     -14.644 -15.364 -13.982  1.00142.10     0.195 A 
HETATM   10  N17 MIQ B 502     -14.935 -16.451 -14.676  1.00139.42    -0.288 N 
HETATM   11  O16 MIQ B 502     -14.217 -14.132 -14.482  1.00148.93    -0.171 OA
ENDROOT
BRANCH  10  12
HETATM   12  C18 MIQ B 502     -14.847 -16.472 -16.124  1.00139.82     0.187 C 
HETATM   13  C19 MIQ B 502     -16.196 -16.957 -16.669  1.00140.06     0.247 C 
HETATM   14  O25 MIQ B 502     -17.188 -16.438 -16.296  1.00143.95    -0.271 OA
HETATM   15  N20 MIQ B 502     -16.288 -18.032 -17.635  1.00140.02    -0.296 N 
HETATM   16  H13 MIQ B 502     -17.175 -18.344 -17.977  1.00142.77     0.171 HD
HETATM   17  C21 MIQ B 502     -15.064 -18.656 -18.067  1.00142.22     0.224 C 
HETATM   18  C22 MIQ B 502     -13.950 -18.754 -17.043  1.00139.52     0.106 C 
HETATM   19  O24 MIQ B 502     -14.935 -19.067 -19.168  1.00146.13    -0.273 OA
HETATM   20  C23 MIQ B 502     -13.671 -17.338 -16.573  1.00139.15     0.045 C 
ENDBRANCH  10  12
BRANCH   5  21
HETATM   21  N6  MIQ B 502     -15.805 -17.728  -8.734  1.00140.95    -0.377 N 
HETATM   22  C7  MIQ B 502     -15.430 -17.098  -7.480  1.00142.12     0.149 C 
HETATM   23  C8  MIQ B 502     -15.224 -18.119  -6.369  1.00144.10     0.187 C 
HETATM   24  O9  MIQ B 502     -16.264 -19.046  -6.283  1.00148.65    -0.388 OA
HETATM   25  C10 MIQ B 502     -17.235 -19.115  -7.285  1.00147.44     0.187 C 
HETATM   26  C11 MIQ B 502     -16.838 -18.749  -8.712  1.00144.08     0.149 C 
ENDBRANCH   5  21
TORSDOF 2
ENDMDL
