MODEL 1
REMARK VINA RESULT:      -7.3      0.000      0.000
REMARK  2 active torsions:
REMARK  status: ('A' for Active; 'I' for Inactive)
REMARK    1  A    between atoms: C5_5  and  N6_21 
REMARK    2  A    between atoms: C18_14  and  N17_19 
ROOT
HETATM    1  O1  MIQ B 502     -10.253 -13.257  -0.918  1.00142.91    -0.171 OA
HETATM    2  C2  MIQ B 502      -9.486 -14.310  -1.421  1.00141.17     0.195 A 
HETATM    3  C3  MIQ B 502      -9.540 -14.877  -2.876  1.00141.71     0.035 A 
HETATM    4  C4  MIQ B 502     -10.332 -14.523  -4.078  1.00142.86     0.046 A 
HETATM    5  C5  MIQ B 502     -10.153 -15.238  -5.290  1.00139.53     0.031 A 
HETATM    6  C12 MIQ B 502      -9.185 -16.324  -5.351  1.00139.38     0.030 A 
HETATM    7  C13 MIQ B 502      -8.425 -16.662  -4.199  1.00141.18     0.019 A 
HETATM    8  C14 MIQ B 502      -8.616 -15.907  -2.931  1.00138.77     0.033 A 
HETATM    9  C15 MIQ B 502      -7.984 -15.980  -1.502  1.00142.10     0.195 A 
HETATM   10  N17 MIQ B 502      -8.573 -15.031  -0.794  1.00139.42    -0.288 N 
HETATM   11  O16 MIQ B 502      -7.001 -16.871  -1.068  1.00148.93    -0.171 OA
ENDROOT
BRANCH  10  12
HETATM   12  C18 MIQ B 502      -8.243 -14.813   0.602  1.00139.82     0.187 C 
HETATM   13  C19 MIQ B 502      -6.728 -14.596   0.697  1.00140.06     0.247 C 
HETATM   14  O25 MIQ B 502      -6.215 -13.800  -0.006  1.00143.95    -0.271 OA
HETATM   15  N20 MIQ B 502      -5.906 -15.339   1.630  1.00140.02    -0.296 N 
HETATM   16  H13 MIQ B 502      -4.917 -15.193   1.677  1.00142.77     0.171 HD
HETATM   17  C21 MIQ B 502      -6.554 -16.314   2.471  1.00142.22     0.224 C 
HETATM   18  C22 MIQ B 502      -7.740 -17.046   1.875  1.00139.52     0.106 C 
HETATM   19  O24 MIQ B 502      -6.179 -16.526   3.571  1.00146.13    -0.273 OA
HETATM   20  C23 MIQ B 502      -8.737 -15.982   1.454  1.00139.15     0.045 C 
ENDBRANCH  10  12
BRANCH   5  21
HETATM   21  N6  MIQ B 502     -10.945 -14.891  -6.455  1.00140.95    -0.377 N 
HETATM   22  C7  MIQ B 502     -11.934 -13.834  -6.333  1.00142.12     0.149 C 
HETATM   23  C8  MIQ B 502     -13.073 -14.002  -7.331  1.00144.10     0.187 C 
HETATM   24  O9  MIQ B 502     -12.625 -14.254  -8.629  1.00148.65    -0.388 OA
HETATM   25  C10 MIQ B 502     -11.280 -14.543  -8.870  1.00147.44     0.187 C 
HETATM   26  C11 MIQ B 502     -10.479 -15.251  -7.783  1.00144.08     0.149 C 
ENDBRANCH   5  21
TORSDOF 2
ENDMDL
MODEL 2
REMARK VINA RESULT:      -7.2      3.604      4.849
REMARK  2 active torsions:
REMARK  status: ('A' for Active; 'I' for Inactive)
REMARK    1  A    between atoms: C5_5  and  N6_21 
REMARK    2  A    between atoms: C18_14  and  N17_19 
ROOT
HETATM    1  O1  MIQ B 502      -8.646 -16.703  -1.572  1.00142.91    -0.171 OA
HETATM    2  C2  MIQ B 502      -9.408 -16.174  -2.616  1.00141.17     0.195 A 
HETATM    3  C3  MIQ B 502     -10.107 -16.987  -3.752  1.00141.71     0.035 A 
HETATM    4  C4  MIQ B 502     -10.190 -18.433  -4.067  1.00142.86     0.046 A 
HETATM    5  C5  MIQ B 502     -10.920 -18.879  -5.197  1.00139.53     0.031 A 
HETATM    6  C12 MIQ B 502     -11.593 -17.911  -6.051  1.00139.38     0.030 A 
HETATM    7  C13 MIQ B 502     -11.514 -16.525  -5.749  1.00141.18     0.019 A 
HETATM    8  C14 MIQ B 502     -10.748 -16.062  -4.560  1.00138.77     0.033 A 
HETATM    9  C15 MIQ B 502     -10.446 -14.667  -3.922  1.00142.10     0.195 A 
HETATM   10  N17 MIQ B 502      -9.698 -14.907  -2.857  1.00139.42    -0.288 N 
HETATM   11  O16 MIQ B 502     -10.878 -13.424  -4.387  1.00148.93    -0.171 OA
ENDROOT
BRANCH  10  12
HETATM   12  C18 MIQ B 502      -9.209 -13.829  -2.017  1.00139.82     0.187 C 
HETATM   13  C19 MIQ B 502      -7.691 -13.996  -1.880  1.00140.06     0.247 C 
HETATM   14  O25 MIQ B 502      -7.035 -14.129  -2.851  1.00143.95    -0.271 OA
HETATM   15  N20 MIQ B 502      -7.036 -13.989  -0.588  1.00140.02    -0.296 N 
HETATM   16  H13 MIQ B 502      -6.044 -14.105  -0.511  1.00142.77     0.171 HD
HETATM   17  C21 MIQ B 502      -7.858 -13.836   0.585  1.00142.22     0.224 C 
HETATM   18  C22 MIQ B 502      -9.246 -14.445   0.528  1.00139.52     0.106 C 
HETATM   19  O24 MIQ B 502      -7.470 -13.259   1.541  1.00146.13    -0.273 OA
HETATM   20  C23 MIQ B 502      -9.938 -13.829  -0.674  1.00139.15     0.045 C 
ENDBRANCH  10  12
BRANCH   5  21
HETATM   21  N6  MIQ B 502     -10.981 -20.297  -5.502  1.00140.95    -0.377 N 
HETATM   22  C7  MIQ B 502     -10.450 -21.240  -4.532  1.00142.12     0.149 C 
HETATM   23  C8  MIQ B 502      -9.987 -22.533  -5.190  1.00144.10     0.187 C 
HETATM   24  O9  MIQ B 502     -10.928 -23.057  -6.079  1.00148.65    -0.388 OA
HETATM   25  C10 MIQ B 502     -12.044 -22.305  -6.453  1.00147.44     0.187 C 
HETATM   26  C11 MIQ B 502     -11.918 -20.786  -6.498  1.00144.08     0.149 C 
ENDBRANCH   5  21
TORSDOF 2
ENDMDL
MODEL 3
REMARK VINA RESULT:      -7.2      2.433      8.111
REMARK  2 active torsions:
REMARK  status: ('A' for Active; 'I' for Inactive)
REMARK    1  A    between atoms: C5_5  and  N6_21 
REMARK    2  A    between atoms: C18_14  and  N17_19 
ROOT
HETATM    1  O1  MIQ B 502     -10.020 -13.670  -5.686  1.00142.91    -0.171 OA
HETATM    2  C2  MIQ B 502     -10.136 -14.814  -4.893  1.00141.17     0.195 A 
HETATM    3  C3  MIQ B 502      -9.699 -14.948  -3.399  1.00141.71     0.035 A 
HETATM    4  C4  MIQ B 502      -9.086 -14.010  -2.429  1.00142.86     0.046 A 
HETATM    5  C5  MIQ B 502      -8.799 -14.434  -1.106  1.00139.53     0.031 A 
HETATM    6  C12 MIQ B 502      -9.109 -15.797  -0.701  1.00139.38     0.030 A 
HETATM    7  C13 MIQ B 502      -9.697 -16.696  -1.631  1.00141.18     0.019 A 
HETATM    8  C14 MIQ B 502      -9.999 -16.245  -3.017  1.00138.77     0.033 A 
HETATM    9  C15 MIQ B 502     -10.626 -16.920  -4.281  1.00142.10     0.195 A 
HETATM   10  N17 MIQ B 502     -10.630 -15.994  -5.225  1.00139.42    -0.288 N 
HETATM   11  O16 MIQ B 502     -11.083 -18.235  -4.386  1.00148.93    -0.171 OA
ENDROOT
BRANCH  10  12
HETATM   12  C18 MIQ B 502     -11.134 -16.272  -6.557  1.00139.82     0.187 C 
HETATM   13  C19 MIQ B 502     -10.024 -15.929  -7.558  1.00140.06     0.247 C 
HETATM   14  O25 MIQ B 502      -8.943 -16.373  -7.394  1.00143.95    -0.271 OA
HETATM   15  N20 MIQ B 502     -10.266 -15.079  -8.705  1.00140.02    -0.296 N 
HETATM   16  H13 MIQ B 502      -9.531 -14.857  -9.348  1.00142.77     0.171 HD
HETATM   17  C21 MIQ B 502     -11.591 -14.541  -8.879  1.00142.22     0.224 C 
HETATM   18  C22 MIQ B 502     -12.365 -14.218  -7.615  1.00139.52     0.106 C 
HETATM   19  O24 MIQ B 502     -12.051 -14.366  -9.953  1.00146.13    -0.273 OA
HETATM   20  C23 MIQ B 502     -12.429 -15.502  -6.808  1.00139.15     0.045 C 
ENDBRANCH  10  12
BRANCH   5  21
HETATM   21  N6  MIQ B 502      -8.186 -13.509  -0.170  1.00140.95    -0.377 N 
HETATM   22  C7  MIQ B 502      -8.822 -12.223   0.053  1.00142.12     0.149 C 
HETATM   23  C8  MIQ B 502      -7.821 -11.162   0.493  1.00144.10     0.187 C 
HETATM   24  O9  MIQ B 502      -6.982 -11.600   1.520  1.00148.65    -0.388 OA
HETATM   25  C10 MIQ B 502      -6.960 -12.947   1.891  1.00147.44     0.187 C 
HETATM   26  C11 MIQ B 502      -7.251 -14.000   0.827  1.00144.08     0.149 C 
ENDBRANCH   5  21
TORSDOF 2
ENDMDL
MODEL 4
REMARK VINA RESULT:      -7.1      2.545      8.233
REMARK  2 active torsions:
REMARK  status: ('A' for Active; 'I' for Inactive)
REMARK    1  A    between atoms: C5_5  and  N6_21 
REMARK    2  A    between atoms: C18_14  and  N17_19 
ROOT
HETATM    1  O1  MIQ B 502     -10.696 -15.943  -2.167  1.00142.91    -0.171 OA
HETATM    2  C2  MIQ B 502      -9.845 -15.641  -3.232  1.00141.17     0.195 A 
HETATM    3  C3  MIQ B 502      -8.285 -15.578  -3.178  1.00141.71     0.035 A 
HETATM    4  C4  MIQ B 502      -7.294 -15.798  -2.098  1.00142.86     0.046 A 
HETATM    5  C5  MIQ B 502      -5.907 -15.668  -2.361  1.00139.53     0.031 A 
HETATM    6  C12 MIQ B 502      -5.456 -15.316  -3.700  1.00139.38     0.030 A 
HETATM    7  C13 MIQ B 502      -6.406 -15.106  -4.736  1.00141.18     0.019 A 
HETATM    8  C14 MIQ B 502      -7.860 -15.247  -4.454  1.00138.77     0.033 A 
HETATM    9  C15 MIQ B 502      -9.164 -15.104  -5.306  1.00142.10     0.195 A 
HETATM   10  N17 MIQ B 502     -10.168 -15.355  -4.482  1.00139.42    -0.288 N 
HETATM   11  O16 MIQ B 502      -9.245 -14.774  -6.660  1.00148.93    -0.171 OA
ENDROOT
BRANCH  10  12
HETATM   12  C18 MIQ B 502     -11.547 -15.298  -4.929  1.00139.82     0.187 C 
HETATM   13  C19 MIQ B 502     -11.664 -16.157  -6.195  1.00140.06     0.247 C 
HETATM   14  O25 MIQ B 502     -11.251 -17.262  -6.181  1.00143.95    -0.271 OA
HETATM   15  N20 MIQ B 502     -12.274 -15.651  -7.407  1.00140.02    -0.296 N 
HETATM   16  H13 MIQ B 502     -12.339 -16.220  -8.229  1.00142.77     0.171 HD
HETATM   17  C21 MIQ B 502     -12.762 -14.296  -7.402  1.00142.22     0.224 C 
HETATM   18  C22 MIQ B 502     -11.991 -13.298  -6.560  1.00139.52     0.106 C 
HETATM   19  O24 MIQ B 502     -13.718 -13.981  -8.021  1.00146.13    -0.273 OA
HETATM   20  C23 MIQ B 502     -11.976 -13.848  -5.145  1.00139.15     0.045 C 
ENDBRANCH  10  12
BRANCH   5  21
HETATM   21  N6  MIQ B 502      -4.948 -15.871  -1.291  1.00140.95    -0.377 N 
HETATM   22  C7  MIQ B 502      -5.333 -16.699  -0.161  1.00142.12     0.149 C 
HETATM   23  C8  MIQ B 502      -4.574 -16.323   1.105  1.00144.10     0.187 C 
HETATM   24  O9  MIQ B 502      -3.199 -16.199   0.897  1.00148.65    -0.388 OA
HETATM   25  C10 MIQ B 502      -2.676 -16.200  -0.399  1.00147.44     0.187 C 
HETATM   26  C11 MIQ B 502      -3.533 -15.646  -1.532  1.00144.08     0.149 C 
ENDBRANCH   5  21
TORSDOF 2
ENDMDL
MODEL 5
REMARK VINA RESULT:      -7.0      1.966      8.410
REMARK  2 active torsions:
REMARK  status: ('A' for Active; 'I' for Inactive)
REMARK    1  A    between atoms: C5_5  and  N6_21 
REMARK    2  A    between atoms: C18_14  and  N17_19 
ROOT
HETATM    1  O1  MIQ B 502     -10.096 -18.276  -3.887  1.00142.91    -0.171 OA
HETATM    2  C2  MIQ B 502      -9.871 -16.903  -3.759  1.00141.17     0.195 A 
HETATM    3  C3  MIQ B 502      -9.257 -16.182  -2.517  1.00141.71     0.035 A 
HETATM    4  C4  MIQ B 502      -8.758 -16.658  -1.205  1.00142.86     0.046 A 
HETATM    5  C5  MIQ B 502      -8.242 -15.738  -0.258  1.00139.53     0.031 A 
HETATM    6  C12 MIQ B 502      -8.202 -14.318  -0.577  1.00139.38     0.030 A 
HETATM    7  C13 MIQ B 502      -8.679 -13.861  -1.835  1.00141.18     0.019 A 
HETATM    8  C14 MIQ B 502      -9.218 -14.832  -2.827  1.00138.77     0.033 A 
HETATM    9  C15 MIQ B 502      -9.811 -14.715  -4.269  1.00142.10     0.195 A 
HETATM   10  N17 MIQ B 502     -10.119 -15.948  -4.638  1.00139.42    -0.288 N 
HETATM   11  O16 MIQ B 502      -9.981 -13.545  -5.010  1.00148.93    -0.171 OA
ENDROOT
BRANCH  10  12
HETATM   12  C18 MIQ B 502     -10.715 -16.224  -5.931  1.00139.82     0.187 C 
HETATM   13  C19 MIQ B 502      -9.832 -15.572  -7.002  1.00140.06     0.247 C 
HETATM   14  O25 MIQ B 502      -8.672 -15.783  -6.999  1.00143.95    -0.271 OA
HETATM   15  N20 MIQ B 502     -10.385 -14.707  -8.025  1.00140.02    -0.296 N 
HETATM   16  H13 MIQ B 502      -9.796 -14.282  -8.715  1.00142.77     0.171 HD
HETATM   17  C21 MIQ B 502     -11.803 -14.456  -8.002  1.00142.22     0.224 C 
HETATM   18  C22 MIQ B 502     -12.464 -14.408  -6.639  1.00139.52     0.106 C 
HETATM   19  O24 MIQ B 502     -12.419 -14.302  -8.999  1.00146.13    -0.273 OA
HETATM   20  C23 MIQ B 502     -12.162 -15.734  -5.965  1.00139.15     0.045 C 
ENDBRANCH  10  12
BRANCH   5  21
HETATM   21  N6  MIQ B 502      -7.770 -16.217   1.029  1.00140.95    -0.377 N 
HETATM   22  C7  MIQ B 502      -7.999 -17.608   1.379  1.00142.12     0.149 C 
HETATM   23  C8  MIQ B 502      -8.065 -17.812   2.887  1.00144.10     0.187 C 
HETATM   24  O9  MIQ B 502      -7.016 -17.190   3.566  1.00148.65    -0.388 OA
HETATM   25  C10 MIQ B 502      -6.170 -16.301   2.899  1.00147.44     0.187 C 
HETATM   26  C11 MIQ B 502      -6.735 -15.487   1.739  1.00144.08     0.149 C 
ENDBRANCH   5  21
TORSDOF 2
ENDMDL
MODEL 6
REMARK VINA RESULT:      -6.9      3.212      7.989
REMARK  2 active torsions:
REMARK  status: ('A' for Active; 'I' for Inactive)
REMARK    1  A    between atoms: C5_5  and  N6_21 
REMARK    2  A    between atoms: C18_14  and  N17_19 
ROOT
HETATM    1  O1  MIQ B 502      -8.772 -14.909  -6.136  1.00142.91    -0.171 OA
HETATM    2  C2  MIQ B 502      -8.939 -15.208  -4.782  1.00141.17     0.195 A 
HETATM    3  C3  MIQ B 502      -7.800 -15.347  -3.722  1.00141.71     0.035 A 
HETATM    4  C4  MIQ B 502      -6.325 -15.219  -3.788  1.00142.86     0.046 A 
HETATM    5  C5  MIQ B 502      -5.537 -15.406  -2.624  1.00139.53     0.031 A 
HETATM    6  C12 MIQ B 502      -6.181 -15.724  -1.358  1.00139.38     0.030 A 
HETATM    7  C13 MIQ B 502      -7.596 -15.845  -1.294  1.00141.18     0.019 A 
HETATM    8  C14 MIQ B 502      -8.418 -15.646  -2.519  1.00138.77     0.033 A 
HETATM    9  C15 MIQ B 502      -9.949 -15.692  -2.834  1.00142.10     0.195 A 
HETATM   10  N17 MIQ B 502     -10.064 -15.426  -4.124  1.00139.42    -0.288 N 
HETATM   11  O16 MIQ B 502     -10.980 -15.962  -1.932  1.00148.93    -0.171 OA
ENDROOT
BRANCH  10  12
HETATM   12  C18 MIQ B 502     -11.359 -15.399  -4.779  1.00139.82     0.187 C 
HETATM   13  C19 MIQ B 502     -11.286 -16.327  -5.998  1.00140.06     0.247 C 
HETATM   14  O25 MIQ B 502     -10.886 -17.428  -5.860  1.00143.95    -0.271 OA
HETATM   15  N20 MIQ B 502     -11.702 -15.891  -7.316  1.00140.02    -0.296 N 
HETATM   16  H13 MIQ B 502     -11.643 -16.504  -8.104  1.00142.77     0.171 HD
HETATM   17  C21 MIQ B 502     -12.177 -14.539  -7.460  1.00142.22     0.224 C 
HETATM   18  C22 MIQ B 502     -11.539 -13.493  -6.567  1.00139.52     0.106 C 
HETATM   19  O24 MIQ B 502     -13.027 -14.263  -8.234  1.00146.13    -0.273 OA
HETATM   20  C23 MIQ B 502     -11.743 -13.964  -5.138  1.00139.15     0.045 C 
ENDBRANCH  10  12
BRANCH   5  21
HETATM   21  N6  MIQ B 502      -4.092 -15.293  -2.706  1.00140.95    -0.377 N 
HETATM   22  C7  MIQ B 502      -3.361 -14.860  -1.528  1.00142.12     0.149 C 
HETATM   23  C8  MIQ B 502      -2.046 -14.183  -1.891  1.00144.10     0.187 C 
HETATM   24  O9  MIQ B 502      -1.300 -14.907  -2.823  1.00148.65    -0.388 OA
HETATM   25  C10 MIQ B 502      -1.865 -16.001  -3.484  1.00147.44     0.187 C 
HETATM   26  C11 MIQ B 502      -3.367 -15.998  -3.748  1.00144.08     0.149 C 
ENDBRANCH   5  21
TORSDOF 2
ENDMDL
MODEL 7
REMARK VINA RESULT:      -6.8      4.479      7.180
REMARK  2 active torsions:
REMARK  status: ('A' for Active; 'I' for Inactive)
REMARK    1  A    between atoms: C5_5  and  N6_21 
REMARK    2  A    between atoms: C18_14  and  N17_19 
ROOT
HETATM    1  O1  MIQ B 502     -10.580 -15.584  -1.333  1.00142.91    -0.171 OA
HETATM    2  C2  MIQ B 502      -9.656 -15.789  -0.306  1.00141.17     0.195 A 
HETATM    3  C3  MIQ B 502      -9.546 -17.060   0.596  1.00141.71     0.035 A 
HETATM    4  C4  MIQ B 502     -10.299 -18.335   0.655  1.00142.86     0.046 A 
HETATM    5  C5  MIQ B 502      -9.955 -19.327   1.609  1.00139.53     0.031 A 
HETATM    6  C12 MIQ B 502      -8.856 -19.089   2.533  1.00139.38     0.030 A 
HETATM    7  C13 MIQ B 502      -8.133 -17.867   2.476  1.00141.18     0.019 A 
HETATM    8  C14 MIQ B 502      -8.497 -16.831   1.471  1.00138.77     0.033 A 
HETATM    9  C15 MIQ B 502      -7.953 -15.410   1.110  1.00142.10     0.195 A 
HETATM   10  N17 MIQ B 502      -8.700 -14.976   0.109  1.00139.42    -0.288 N 
HETATM   11  O16 MIQ B 502      -6.894 -14.740   1.726  1.00148.93    -0.171 OA
ENDROOT
BRANCH  10  12
HETATM   12  C18 MIQ B 502      -8.489 -13.668  -0.482  1.00139.82     0.187 C 
HETATM   13  C19 MIQ B 502      -7.064 -13.635  -1.048  1.00140.06     0.247 C 
HETATM   14  O25 MIQ B 502      -6.708 -14.503  -1.763  1.00143.95    -0.271 OA
HETATM   15  N20 MIQ B 502      -6.142 -12.562  -0.735  1.00140.02    -0.296 N 
HETATM   16  H13 MIQ B 502      -5.212 -12.556  -1.106  1.00142.77     0.171 HD
HETATM   17  C21 MIQ B 502      -6.596 -11.519   0.148  1.00142.22     0.224 C 
HETATM   18  C22 MIQ B 502      -7.565 -11.926   1.242  1.00139.52     0.106 C 
HETATM   19  O24 MIQ B 502      -6.234 -10.401   0.021  1.00146.13    -0.273 OA
HETATM   20  C23 MIQ B 502      -8.751 -12.570   0.549  1.00139.15     0.045 C 
ENDBRANCH  10  12
BRANCH   5  21
HETATM   21  N6  MIQ B 502     -10.710 -20.565   1.666  1.00140.95    -0.377 N 
HETATM   22  C7  MIQ B 502     -10.832 -21.360   0.456  1.00142.12     0.149 C 
HETATM   23  C8  MIQ B 502     -12.097 -22.209   0.459  1.00144.10     0.187 C 
HETATM   24  O9  MIQ B 502     -12.280 -22.908   1.654  1.00148.65    -0.388 OA
HETATM   25  C10 MIQ B 502     -11.482 -22.629   2.766  1.00147.44     0.187 C 
HETATM   26  C11 MIQ B 502     -10.949 -21.211   2.945  1.00144.08     0.149 C 
ENDBRANCH   5  21
TORSDOF 2
ENDMDL
MODEL 8
REMARK VINA RESULT:      -6.7      3.129      8.157
REMARK  2 active torsions:
REMARK  status: ('A' for Active; 'I' for Inactive)
REMARK    1  A    between atoms: C5_5  and  N6_21 
REMARK    2  A    between atoms: C18_14  and  N17_19 
ROOT
HETATM    1  O1  MIQ B 502      -6.866 -15.356  -6.251  1.00142.91    -0.171 OA
HETATM    2  C2  MIQ B 502      -8.088 -15.783  -5.727  1.00141.17     0.195 A 
HETATM    3  C3  MIQ B 502      -8.607 -15.531  -4.276  1.00141.71     0.035 A 
HETATM    4  C4  MIQ B 502      -8.043 -14.829  -3.099  1.00142.86     0.046 A 
HETATM    5  C5  MIQ B 502      -8.773 -14.764  -1.885  1.00139.53     0.031 A 
HETATM    6  C12 MIQ B 502     -10.083 -15.392  -1.795  1.00139.38     0.030 A 
HETATM    7  C13 MIQ B 502     -10.625 -16.065  -2.923  1.00141.18     0.019 A 
HETATM    8  C14 MIQ B 502      -9.856 -16.127  -4.196  1.00138.77     0.033 A 
HETATM    9  C15 MIQ B 502     -10.112 -16.752  -5.606  1.00142.10     0.195 A 
HETATM   10  N17 MIQ B 502      -9.042 -16.470  -6.331  1.00139.42    -0.288 N 
HETATM   11  O16 MIQ B 502     -11.242 -17.465  -6.011  1.00148.93    -0.171 OA
ENDROOT
BRANCH  10  12
HETATM   12  C18 MIQ B 502      -8.922 -16.912  -7.708  1.00139.82     0.187 C 
HETATM   13  C19 MIQ B 502      -7.569 -17.620  -7.855  1.00140.06     0.247 C 
HETATM   14  O25 MIQ B 502      -7.278 -18.471  -7.092  1.00143.95    -0.271 OA
HETATM   15  N20 MIQ B 502      -6.639 -17.276  -8.911  1.00140.02    -0.296 N 
HETATM   16  H13 MIQ B 502      -5.756 -17.741  -8.992  1.00142.77     0.171 HD
HETATM   17  C21 MIQ B 502      -7.012 -16.226  -9.824  1.00142.22     0.224 C 
HETATM   18  C22 MIQ B 502      -7.847 -15.095  -9.256  1.00139.52     0.106 C 
HETATM   19  O24 MIQ B 502      -6.687 -16.251 -10.960  1.00146.13    -0.273 OA
HETATM   20  C23 MIQ B 502      -9.090 -15.731  -8.663  1.00139.15     0.045 C 
ENDBRANCH  10  12
BRANCH   5  21
HETATM   21  N6  MIQ B 502      -8.201 -14.086  -0.736  1.00140.95    -0.377 N 
HETATM   22  C7  MIQ B 502      -8.832 -12.864  -0.267  1.00142.12     0.149 C 
HETATM   23  C8  MIQ B 502      -7.843 -11.953   0.450  1.00144.10     0.187 C 
HETATM   24  O9  MIQ B 502      -7.072 -12.628   1.398  1.00148.65    -0.388 OA
HETATM   25  C10 MIQ B 502      -7.090 -14.024   1.461  1.00147.44     0.187 C 
HETATM   26  C11 MIQ B 502      -7.334 -14.809   0.177  1.00144.08     0.149 C 
ENDBRANCH   5  21
TORSDOF 2
ENDMDL
MODEL 9
REMARK VINA RESULT:      -6.7     11.773     16.038
REMARK  2 active torsions:
REMARK  status: ('A' for Active; 'I' for Inactive)
REMARK    1  A    between atoms: C5_5  and  N6_21 
REMARK    2  A    between atoms: C18_14  and  N17_19 
ROOT
HETATM    1  O1  MIQ B 502     -12.180 -18.751  10.688  1.00142.91    -0.171 OA
HETATM    2  C2  MIQ B 502     -11.707 -17.494  10.305  1.00141.17     0.195 A 
HETATM    3  C3  MIQ B 502     -10.978 -16.464  11.225  1.00141.71     0.035 A 
HETATM    4  C4  MIQ B 502     -10.583 -16.474  12.654  1.00142.86     0.046 A 
HETATM    5  C5  MIQ B 502      -9.913 -15.361  13.220  1.00139.53     0.031 A 
HETATM    6  C12 MIQ B 502      -9.610 -14.202  12.392  1.00139.38     0.030 A 
HETATM    7  C13 MIQ B 502      -9.987 -14.193  11.022  1.00141.18     0.019 A 
HETATM    8  C14 MIQ B 502     -10.688 -15.365  10.432  1.00138.77     0.033 A 
HETATM    9  C15 MIQ B 502     -11.241 -15.716   9.012  1.00142.10     0.195 A 
HETATM   10  N17 MIQ B 502     -11.768 -16.925   9.114  1.00139.42    -0.288 N 
HETATM   11  O16 MIQ B 502     -11.188 -14.911   7.873  1.00148.93    -0.171 OA
ENDROOT
BRANCH  10  12
HETATM   12  C18 MIQ B 502     -12.397 -17.574   7.979  1.00139.82     0.187 C 
HETATM   13  C19 MIQ B 502     -13.808 -17.997   8.405  1.00140.06     0.247 C 
HETATM   14  O25 MIQ B 502     -14.520 -17.202   8.908  1.00143.95    -0.271 OA
HETATM   15  N20 MIQ B 502     -14.295 -19.346   8.202  1.00140.02    -0.296 N 
HETATM   16  H13 MIQ B 502     -15.216 -19.611   8.491  1.00142.77     0.171 HD
HETATM   17  C21 MIQ B 502     -13.404 -20.301   7.596  1.00142.22     0.224 C 
HETATM   18  C22 MIQ B 502     -11.928 -20.149   7.909  1.00139.52     0.106 C 
HETATM   19  O24 MIQ B 502     -13.805 -21.156   6.885  1.00146.13    -0.273 OA
HETATM   20  C23 MIQ B 502     -11.541 -18.742   7.493  1.00139.15     0.045 C 
ENDBRANCH  10  12
BRANCH   5  21
HETATM   21  N6  MIQ B 502      -9.546 -15.378  14.624  1.00140.95    -0.377 N 
HETATM   22  C7  MIQ B 502      -8.401 -14.592  15.053  1.00142.12     0.149 C 
HETATM   23  C8  MIQ B 502      -7.753 -15.168  16.305  1.00144.10     0.187 C 
HETATM   24  O9  MIQ B 502      -8.678 -15.470  17.306  1.00148.65    -0.388 OA
HETATM   25  C10 MIQ B 502     -10.048 -15.445  17.034  1.00147.44     0.187 C 
HETATM   26  C11 MIQ B 502     -10.519 -15.783  15.624  1.00144.08     0.149 C 
ENDBRANCH   5  21
TORSDOF 2
ENDMDL
