MODEL 1
REMARK VINA RESULT:      -6.3      0.000      0.000
REMARK  2 active torsions:
REMARK  status: ('A' for Active; 'I' for Inactive)
REMARK    1  A    between atoms: C5_5  and  N6_21 
REMARK    2  A    between atoms: C18_14  and  N17_19 
ROOT
HETATM    1  O1  MIQ B 502     -33.965 -14.481  -9.130  1.00142.91    -0.171 OA
HETATM    2  C2  MIQ B 502     -33.188 -14.059 -10.211  1.00141.17     0.195 A 
HETATM    3  C3  MIQ B 502     -31.797 -14.636 -10.627  1.00141.71     0.035 A 
HETATM    4  C4  MIQ B 502     -30.933 -15.708 -10.079  1.00142.86     0.046 A 
HETATM    5  C5  MIQ B 502     -29.692 -16.012 -10.693  1.00139.53     0.031 A 
HETATM    6  C12 MIQ B 502     -29.265 -15.267 -11.868  1.00139.38     0.030 A 
HETATM    7  C13 MIQ B 502     -30.094 -14.240 -12.395  1.00141.18     0.019 A 
HETATM    8  C14 MIQ B 502     -31.397 -13.926 -11.748  1.00138.77     0.033 A 
HETATM    9  C15 MIQ B 502     -32.546 -12.904 -12.029  1.00142.10     0.195 A 
HETATM   10  N17 MIQ B 502     -33.457 -13.111 -11.092  1.00139.42    -0.288 N 
HETATM   11  O16 MIQ B 502     -32.594 -11.963 -13.059  1.00148.93    -0.171 OA
ENDROOT
BRANCH  10  12
HETATM   12  C18 MIQ B 502     -34.672 -12.321 -11.029  1.00139.82     0.187 C 
HETATM   13  C19 MIQ B 502     -34.774 -11.730  -9.618  1.00140.06     0.247 C 
HETATM   14  O25 MIQ B 502     -33.849 -11.152  -9.167  1.00143.95    -0.271 OA
HETATM   15  N20 MIQ B 502     -35.977 -11.857  -8.822  1.00140.02    -0.296 N 
HETATM   16  H13 MIQ B 502     -36.029 -11.472  -7.899  1.00142.77     0.171 HD
HETATM   17  C21 MIQ B 502     -37.089 -12.576  -9.389  1.00142.22     0.224 C 
HETATM   18  C22 MIQ B 502     -36.753 -13.736 -10.305  1.00139.52     0.106 C 
HETATM   19  O24 MIQ B 502     -38.206 -12.271  -9.155  1.00146.13    -0.273 OA
HETATM   20  C23 MIQ B 502     -35.881 -13.173 -11.413  1.00139.15     0.045 C 
ENDBRANCH  10  12
BRANCH   5  21
HETATM   21  N6  MIQ B 502     -28.849 -17.054 -10.136  1.00140.95    -0.377 N 
HETATM   22  C7  MIQ B 502     -27.436 -16.776  -9.945  1.00142.12     0.149 C 
HETATM   23  C8  MIQ B 502     -26.595 -18.046  -9.991  1.00144.10     0.187 C 
HETATM   24  O9  MIQ B 502     -27.115 -19.070  -9.197  1.00148.65    -0.388 OA
HETATM   25  C10 MIQ B 502     -28.391 -18.956  -8.639  1.00147.44     0.187 C 
HETATM   26  C11 MIQ B 502     -29.445 -18.148  -9.389  1.00144.08     0.149 C 
ENDBRANCH   5  21
TORSDOF 2
ENDMDL
MODEL 2
REMARK VINA RESULT:      -6.2      1.270      1.633
REMARK  2 active torsions:
REMARK  status: ('A' for Active; 'I' for Inactive)
REMARK    1  A    between atoms: C5_5  and  N6_21 
REMARK    2  A    between atoms: C18_14  and  N17_19 
ROOT
HETATM    1  O1  MIQ B 502     -33.834 -14.648  -9.384  1.00142.91    -0.171 OA
HETATM    2  C2  MIQ B 502     -32.771 -13.816  -9.742  1.00141.17     0.195 A 
HETATM    3  C3  MIQ B 502     -31.292 -14.259  -9.976  1.00141.71     0.035 A 
HETATM    4  C4  MIQ B 502     -30.596 -15.566  -9.908  1.00142.86     0.046 A 
HETATM    5  C5  MIQ B 502     -29.208 -15.654 -10.182  1.00139.53     0.031 A 
HETATM    6  C12 MIQ B 502     -28.463 -14.453 -10.534  1.00139.38     0.030 A 
HETATM    7  C13 MIQ B 502     -29.130 -13.200 -10.601  1.00141.18     0.019 A 
HETATM    8  C14 MIQ B 502     -30.588 -13.114 -10.314  1.00138.77     0.033 A 
HETATM    9  C15 MIQ B 502     -31.636 -11.955 -10.290  1.00142.10     0.195 A 
HETATM   10  N17 MIQ B 502     -32.790 -12.512  -9.959  1.00139.42    -0.288 N 
HETATM   11  O16 MIQ B 502     -31.398 -10.606 -10.560  1.00148.93    -0.171 OA
ENDROOT
BRANCH  10  12
HETATM   12  C18 MIQ B 502     -34.001 -11.724  -9.824  1.00139.82     0.187 C 
HETATM   13  C19 MIQ B 502     -34.569 -11.978  -8.422  1.00140.06     0.247 C 
HETATM   14  O25 MIQ B 502     -33.863 -11.864  -7.485  1.00143.95    -0.271 OA
HETATM   15  N20 MIQ B 502     -35.955 -12.348  -8.216  1.00140.02    -0.296 N 
HETATM   16  H13 MIQ B 502     -36.312 -12.518  -7.297  1.00142.77     0.171 HD
HETATM   17  C21 MIQ B 502     -36.795 -12.491  -9.377  1.00142.22     0.224 C 
HETATM   18  C22 MIQ B 502     -36.131 -13.010 -10.638  1.00139.52     0.106 C 
HETATM   19  O24 MIQ B 502     -37.943 -12.212  -9.347  1.00146.13    -0.273 OA
HETATM   20  C23 MIQ B 502     -34.984 -12.064 -10.943  1.00139.15     0.045 C 
ENDBRANCH  10  12
BRANCH   5  21
HETATM   21  N6  MIQ B 502     -28.537 -16.938 -10.097  1.00140.95    -0.377 N 
HETATM   22  C7  MIQ B 502     -29.227 -18.041  -9.451  1.00142.12     0.149 C 
HETATM   23  C8  MIQ B 502     -28.254 -19.056  -8.865  1.00144.10     0.187 C 
HETATM   24  O9  MIQ B 502     -27.248 -19.424  -9.761  1.00148.65    -0.388 OA
HETATM   25  C10 MIQ B 502     -27.075 -18.724 -10.957  1.00147.44     0.187 C 
HETATM   26  C11 MIQ B 502     -27.436 -17.243 -10.995  1.00144.08     0.149 C 
ENDBRANCH   5  21
TORSDOF 2
ENDMDL
MODEL 3
REMARK VINA RESULT:      -6.2      6.552     10.684
REMARK  2 active torsions:
REMARK  status: ('A' for Active; 'I' for Inactive)
REMARK    1  A    between atoms: C5_5  and  N6_21 
REMARK    2  A    between atoms: C18_14  and  N17_19 
ROOT
HETATM    1  O1  MIQ B 502     -24.099 -17.934  -9.608  1.00142.91    -0.171 OA
HETATM    2  C2  MIQ B 502     -23.946 -18.850 -10.651  1.00141.17     0.195 A 
HETATM    3  C3  MIQ B 502     -22.626 -19.587 -11.044  1.00141.71     0.035 A 
HETATM    4  C4  MIQ B 502     -21.247 -19.567 -10.501  1.00142.86     0.046 A 
HETATM    5  C5  MIQ B 502     -20.235 -20.369 -11.086  1.00139.53     0.031 A 
HETATM    6  C12 MIQ B 502     -20.553 -21.218 -12.226  1.00139.38     0.030 A 
HETATM    7  C13 MIQ B 502     -21.876 -21.238 -12.745  1.00141.18     0.019 A 
HETATM    8  C14 MIQ B 502     -22.935 -20.396 -12.126  1.00138.77     0.033 A 
HETATM    9  C15 MIQ B 502     -24.455 -20.160 -12.405  1.00142.10     0.195 A 
HETATM   10  N17 MIQ B 502     -24.860 -19.283 -11.501  1.00139.42    -0.288 N 
HETATM   11  O16 MIQ B 502     -25.223 -20.754 -13.408  1.00148.93    -0.171 OA
ENDROOT
BRANCH  10  12
HETATM   12  C18 MIQ B 502     -26.232 -18.810 -11.467  1.00139.82     0.187 C 
HETATM   13  C19 MIQ B 502     -26.200 -17.278 -11.524  1.00140.06     0.247 C 
HETATM   14  O25 MIQ B 502     -25.572 -16.746 -12.370  1.00143.95    -0.271 OA
HETATM   15  N20 MIQ B 502     -26.925 -16.462 -10.572  1.00140.02    -0.296 N 
HETATM   16  H13 MIQ B 502     -26.891 -15.463 -10.616  1.00142.77     0.171 HD
HETATM   17  C21 MIQ B 502     -27.676 -17.134  -9.542  1.00142.22     0.224 C 
HETATM   18  C22 MIQ B 502     -27.105 -18.441  -9.026  1.00139.52     0.106 C 
HETATM   19  O24 MIQ B 502     -28.689 -16.690  -9.127  1.00146.13    -0.273 OA
HETATM   20  C23 MIQ B 502     -26.949 -19.350 -10.231  1.00139.15     0.045 C 
ENDBRANCH  10  12
BRANCH   5  21
HETATM   21  N6  MIQ B 502     -18.885 -20.328 -10.554  1.00140.95    -0.377 N 
HETATM   22  C7  MIQ B 502     -18.429 -21.435  -9.731  1.00142.12     0.149 C 
HETATM   23  C8  MIQ B 502     -17.340 -21.008  -8.755  1.00144.10     0.187 C 
HETATM   24  O9  MIQ B 502     -16.329 -20.260  -9.362  1.00148.65    -0.388 OA
HETATM   25  C10 MIQ B 502     -16.484 -19.792 -10.670  1.00147.44     0.187 C 
HETATM   26  C11 MIQ B 502     -17.889 -19.468 -11.168  1.00144.08     0.149 C 
ENDBRANCH   5  21
TORSDOF 2
ENDMDL
MODEL 4
REMARK VINA RESULT:      -6.2     14.074     16.612
REMARK  2 active torsions:
REMARK  status: ('A' for Active; 'I' for Inactive)
REMARK    1  A    between atoms: C5_5  and  N6_21 
REMARK    2  A    between atoms: C18_14  and  N17_19 
ROOT
HETATM    1  O1  MIQ B 502     -21.105 -21.627  -0.450  1.00142.91    -0.171 OA
HETATM    2  C2  MIQ B 502     -21.309 -22.115  -1.742  1.00141.17     0.195 A 
HETATM    3  C3  MIQ B 502     -20.555 -23.311  -2.407  1.00141.71     0.035 A 
HETATM    4  C4  MIQ B 502     -19.491 -24.230  -1.940  1.00142.86     0.046 A 
HETATM    5  C5  MIQ B 502     -18.996 -25.247  -2.795  1.00139.53     0.031 A 
HETATM    6  C12 MIQ B 502     -19.539 -25.388  -4.139  1.00139.38     0.030 A 
HETATM    7  C13 MIQ B 502     -20.560 -24.508  -4.586  1.00141.18     0.019 A 
HETATM    8  C14 MIQ B 502     -21.077 -23.443  -3.683  1.00138.77     0.033 A 
HETATM    9  C15 MIQ B 502     -22.161 -22.324  -3.812  1.00142.10     0.195 A 
HETATM   10  N17 MIQ B 502     -22.164 -21.684  -2.654  1.00139.42    -0.288 N 
HETATM   11  O16 MIQ B 502     -22.959 -22.057  -4.926  1.00148.93    -0.171 OA
ENDROOT
BRANCH  10  12
HETATM   12  C18 MIQ B 502     -23.047 -20.558  -2.413  1.00139.82     0.187 C 
HETATM   13  C19 MIQ B 502     -22.179 -19.364  -1.996  1.00140.06     0.247 C 
HETATM   14  O25 MIQ B 502     -21.254 -19.064  -2.662  1.00143.95    -0.271 OA
HETATM   15  N20 MIQ B 502     -22.468 -18.590  -0.806  1.00140.02    -0.296 N 
HETATM   16  H13 MIQ B 502     -21.890 -17.817  -0.540  1.00142.77     0.171 HD
HETATM   17  C21 MIQ B 502     -23.597 -18.983  -0.003  1.00142.22     0.224 C 
HETATM   18  C22 MIQ B 502     -23.906 -20.466   0.059  1.00139.52     0.106 C 
HETATM   19  O24 MIQ B 502     -24.251 -18.186   0.575  1.00146.13    -0.273 OA
HETATM   20  C23 MIQ B 502     -24.106 -20.925  -1.375  1.00139.15     0.045 C 
ENDBRANCH  10  12
BRANCH   5  21
HETATM   21  N6  MIQ B 502     -17.943 -26.131  -2.330  1.00140.95    -0.377 N 
HETATM   22  C7  MIQ B 502     -18.216 -27.002  -1.200  1.00142.12     0.149 C 
HETATM   23  C8  MIQ B 502     -16.946 -27.358  -0.437  1.00144.10     0.187 C 
HETATM   24  O9  MIQ B 502     -15.908 -27.773  -1.273  1.00148.65    -0.388 OA
HETATM   25  C10 MIQ B 502     -16.013 -27.626  -2.658  1.00147.44     0.187 C 
HETATM   26  C11 MIQ B 502     -16.836 -26.465  -3.209  1.00144.08     0.149 C 
ENDBRANCH   5  21
TORSDOF 2
ENDMDL
MODEL 5
REMARK VINA RESULT:      -6.2      8.020     13.331
REMARK  2 active torsions:
REMARK  status: ('A' for Active; 'I' for Inactive)
REMARK    1  A    between atoms: C5_5  and  N6_21 
REMARK    2  A    between atoms: C18_14  and  N17_19 
ROOT
HETATM    1  O1  MIQ B 502     -23.653 -19.612  -4.420  1.00142.91    -0.171 OA
HETATM    2  C2  MIQ B 502     -22.657 -19.967  -5.332  1.00141.17     0.195 A 
HETATM    3  C3  MIQ B 502     -22.670 -19.684  -6.868  1.00141.71     0.035 A 
HETATM    4  C4  MIQ B 502     -23.635 -19.016  -7.773  1.00142.86     0.046 A 
HETATM    5  C5  MIQ B 502     -23.361 -18.908  -9.160  1.00139.53     0.031 A 
HETATM    6  C12 MIQ B 502     -22.124 -19.458  -9.697  1.00139.38     0.030 A 
HETATM    7  C13 MIQ B 502     -21.198 -20.098  -8.829  1.00141.18     0.019 A 
HETATM    8  C14 MIQ B 502     -21.490 -20.206  -7.374  1.00138.77     0.033 A 
HETATM    9  C15 MIQ B 502     -20.740 -20.815  -6.144  1.00142.10     0.195 A 
HETATM   10  N17 MIQ B 502     -21.518 -20.596  -5.097  1.00139.42    -0.288 N 
HETATM   11  O16 MIQ B 502     -19.503 -21.460  -6.156  1.00148.93    -0.171 OA
ENDROOT
BRANCH  10  12
HETATM   12  C18 MIQ B 502     -21.144 -21.046  -3.769  1.00139.82     0.187 C 
HETATM   13  C19 MIQ B 502     -22.049 -22.228  -3.403  1.00140.06     0.247 C 
HETATM   14  O25 MIQ B 502     -22.155 -23.128  -4.159  1.00143.95    -0.271 OA
HETATM   15  N20 MIQ B 502     -22.776 -22.276  -2.151  1.00140.02    -0.296 N 
HETATM   16  H13 MIQ B 502     -23.368 -23.051  -1.927  1.00142.77     0.171 HD
HETATM   17  C21 MIQ B 502     -22.639 -21.161  -1.249  1.00142.22     0.224 C 
HETATM   18  C22 MIQ B 502     -22.456 -19.794  -1.880  1.00139.52     0.106 C 
HETATM   19  O24 MIQ B 502     -22.663 -21.308  -0.077  1.00146.13    -0.273 OA
HETATM   20  C23 MIQ B 502     -21.232 -19.891  -2.773  1.00139.15     0.045 C 
ENDBRANCH  10  12
BRANCH   5  21
HETATM   21  N6  MIQ B 502     -24.322 -18.264 -10.037  1.00140.95    -0.377 N 
HETATM   22  C7  MIQ B 502     -23.949 -18.026 -11.421  1.00142.12     0.149 C 
HETATM   23  C8  MIQ B 502     -24.700 -16.843 -12.017  1.00144.10     0.187 C 
HETATM   24  O9  MIQ B 502     -26.073 -16.889 -11.768  1.00148.65    -0.388 OA
HETATM   25  C10 MIQ B 502     -26.598 -17.819 -10.866  1.00147.44     0.187 C 
HETATM   26  C11 MIQ B 502     -25.733 -18.264  -9.692  1.00144.08     0.149 C 
ENDBRANCH   5  21
TORSDOF 2
ENDMDL
MODEL 6
REMARK VINA RESULT:      -6.2     10.703     13.348
REMARK  2 active torsions:
REMARK  status: ('A' for Active; 'I' for Inactive)
REMARK    1  A    between atoms: C5_5  and  N6_21 
REMARK    2  A    between atoms: C18_14  and  N17_19 
ROOT
HETATM    1  O1  MIQ B 502     -21.008 -21.001  -4.821  1.00142.91    -0.171 OA
HETATM    2  C2  MIQ B 502     -22.016 -20.268  -5.450  1.00141.17     0.195 A 
HETATM    3  C3  MIQ B 502     -22.089 -19.915  -6.970  1.00141.71     0.035 A 
HETATM    4  C4  MIQ B 502     -21.211 -20.210  -8.127  1.00142.86     0.046 A 
HETATM    5  C5  MIQ B 502     -21.551 -19.743  -9.422  1.00139.53     0.031 A 
HETATM    6  C12 MIQ B 502     -22.770 -18.971  -9.615  1.00139.38     0.030 A 
HETATM    7  C13 MIQ B 502     -23.612 -18.689  -8.505  1.00141.18     0.019 A 
HETATM    8  C14 MIQ B 502     -23.251 -19.184  -7.149  1.00138.77     0.033 A 
HETATM    9  C15 MIQ B 502     -23.905 -19.082  -5.732  1.00142.10     0.195 A 
HETATM   10  N17 MIQ B 502     -23.099 -19.735  -4.911  1.00139.42    -0.288 N 
HETATM   11  O16 MIQ B 502     -25.096 -18.432  -5.406  1.00148.93    -0.171 OA
ENDROOT
BRANCH  10  12
HETATM   12  C18 MIQ B 502     -23.384 -19.836  -3.492  1.00139.82     0.187 C 
HETATM   13  C19 MIQ B 502     -22.174 -19.281  -2.730  1.00140.06     0.247 C 
HETATM   14  O25 MIQ B 502     -21.749 -18.220  -3.019  1.00143.95    -0.271 OA
HETATM   15  N20 MIQ B 502     -21.540 -20.023  -1.660  1.00140.02    -0.296 N 
HETATM   16  H13 MIQ B 502     -20.746 -19.653  -1.175  1.00142.77     0.171 HD
HETATM   17  C21 MIQ B 502     -22.070 -21.322  -1.333  1.00142.22     0.224 C 
HETATM   18  C22 MIQ B 502     -22.640 -22.134  -2.480  1.00139.52     0.106 C 
HETATM   19  O24 MIQ B 502     -22.065 -21.729  -0.223  1.00146.13    -0.273 OA
HETATM   20  C23 MIQ B 502     -23.720 -21.279  -3.118  1.00139.15     0.045 C 
ENDBRANCH  10  12
BRANCH   5  21
HETATM   21  N6  MIQ B 502     -20.674 -20.026 -10.544  1.00140.95    -0.377 N 
HETATM   22  C7  MIQ B 502     -19.274 -20.306 -10.278  1.00142.12     0.149 C 
HETATM   23  C8  MIQ B 502     -18.387 -19.949 -11.464  1.00144.10     0.187 C 
HETATM   24  O9  MIQ B 502     -18.875 -20.444 -12.675  1.00148.65    -0.388 OA
HETATM   25  C10 MIQ B 502     -20.158 -20.991 -12.751  1.00147.44     0.187 C 
HETATM   26  C11 MIQ B 502     -21.235 -20.457 -11.813  1.00144.08     0.149 C 
ENDBRANCH   5  21
TORSDOF 2
ENDMDL
MODEL 7
REMARK VINA RESULT:      -6.0     11.481     14.398
REMARK  2 active torsions:
REMARK  status: ('A' for Active; 'I' for Inactive)
REMARK    1  A    between atoms: C5_5  and  N6_21 
REMARK    2  A    between atoms: C18_14  and  N17_19 
ROOT
HETATM    1  O1  MIQ B 502     -19.813 -21.944  -8.325  1.00142.91    -0.171 OA
HETATM    2  C2  MIQ B 502     -20.761 -20.920  -8.347  1.00141.17     0.195 A 
HETATM    3  C3  MIQ B 502     -21.643 -20.452  -7.145  1.00141.71     0.035 A 
HETATM    4  C4  MIQ B 502     -21.754 -20.888  -5.733  1.00142.86     0.046 A 
HETATM    5  C5  MIQ B 502     -22.670 -20.253  -4.857  1.00139.53     0.031 A 
HETATM    6  C12 MIQ B 502     -23.505 -19.167  -5.348  1.00139.38     0.030 A 
HETATM    7  C13 MIQ B 502     -23.398 -18.748  -6.702  1.00141.18     0.019 A 
HETATM    8  C14 MIQ B 502     -22.433 -19.416  -7.617  1.00138.77     0.033 A 
HETATM    9  C15 MIQ B 502     -22.039 -19.239  -9.119  1.00142.10     0.195 A 
HETATM   10  N17 MIQ B 502     -21.104 -20.143  -9.361  1.00139.42    -0.288 N 
HETATM   11  O16 MIQ B 502     -22.572 -18.315 -10.020  1.00148.93    -0.171 OA
ENDROOT
BRANCH  10  12
HETATM   12  C18 MIQ B 502     -20.507 -20.283 -10.676  1.00139.82     0.187 C 
HETATM   13  C19 MIQ B 502     -20.610 -21.758 -11.083  1.00140.06     0.247 C 
HETATM   14  O25 MIQ B 502     -21.654 -22.303 -11.013  1.00143.95    -0.271 OA
HETATM   15  N20 MIQ B 502     -19.461 -22.502 -11.557  1.00140.02    -0.296 N 
HETATM   16  H13 MIQ B 502     -19.540 -23.466 -11.813  1.00142.77     0.171 HD
HETATM   17  C21 MIQ B 502     -18.195 -21.817 -11.623  1.00142.22     0.224 C 
HETATM   18  C22 MIQ B 502     -17.935 -20.762 -10.565  1.00139.52     0.106 C 
HETATM   19  O24 MIQ B 502     -17.403 -22.064 -12.464  1.00146.13    -0.273 OA
HETATM   20  C23 MIQ B 502     -19.071 -19.761 -10.666  1.00139.15     0.045 C 
ENDBRANCH  10  12
BRANCH   5  21
HETATM   21  N6  MIQ B 502     -22.778 -20.700  -3.480  1.00140.95    -0.377 N 
HETATM   22  C7  MIQ B 502     -21.630 -20.541  -2.605  1.00142.12     0.149 C 
HETATM   23  C8  MIQ B 502     -21.624 -21.569  -1.481  1.00144.10     0.187 C 
HETATM   24  O9  MIQ B 502     -22.857 -21.673  -0.834  1.00148.65    -0.388 OA
HETATM   25  C10 MIQ B 502     -23.989 -21.048  -1.363  1.00147.44     0.187 C 
HETATM   26  C11 MIQ B 502     -24.087 -20.877  -2.876  1.00144.08     0.149 C 
ENDBRANCH   5  21
TORSDOF 2
ENDMDL
MODEL 8
REMARK VINA RESULT:      -5.9      5.142      7.464
REMARK  2 active torsions:
REMARK  status: ('A' for Active; 'I' for Inactive)
REMARK    1  A    between atoms: C5_5  and  N6_21 
REMARK    2  A    between atoms: C18_14  and  N17_19 
ROOT
HETATM    1  O1  MIQ B 502     -35.129 -11.310 -10.676  1.00142.91    -0.171 OA
HETATM    2  C2  MIQ B 502     -35.535 -12.588 -10.285  1.00141.17     0.195 A 
HETATM    3  C3  MIQ B 502     -36.140 -13.689 -11.213  1.00141.71     0.035 A 
HETATM    4  C4  MIQ B 502     -36.449 -13.743 -12.662  1.00142.86     0.046 A 
HETATM    5  C5  MIQ B 502     -37.008 -14.914 -13.232  1.00139.53     0.031 A 
HETATM    6  C12 MIQ B 502     -37.278 -16.070 -12.389  1.00139.38     0.030 A 
HETATM    7  C13 MIQ B 502     -36.980 -16.019 -11.001  1.00141.18     0.019 A 
HETATM    8  C14 MIQ B 502     -36.392 -14.788 -10.408  1.00138.77     0.033 A 
HETATM    9  C15 MIQ B 502     -35.940 -14.367  -8.971  1.00142.10     0.195 A 
HETATM   10  N17 MIQ B 502     -35.490 -13.128  -9.078  1.00139.42    -0.288 N 
HETATM   11  O16 MIQ B 502     -36.003 -15.145  -7.814  1.00148.93    -0.171 OA
ENDROOT
BRANCH  10  12
HETATM   12  C18 MIQ B 502     -34.995 -12.399  -7.925  1.00139.82     0.187 C 
HETATM   13  C19 MIQ B 502     -35.707 -11.041  -7.889  1.00140.06     0.247 C 
HETATM   14  O25 MIQ B 502     -36.884 -11.006  -7.961  1.00143.95    -0.271 OA
HETATM   15  N20 MIQ B 502     -34.975  -9.798  -7.763  1.00140.02    -0.296 N 
HETATM   16  H13 MIQ B 502     -35.451  -8.918  -7.748  1.00142.77     0.171 HD
HETATM   17  C21 MIQ B 502     -33.538  -9.866  -7.688  1.00142.22     0.224 C 
HETATM   18  C22 MIQ B 502     -32.867 -10.976  -8.474  1.00139.52     0.106 C 
HETATM   19  O24 MIQ B 502     -32.916  -9.097  -7.041  1.00146.13    -0.273 OA
HETATM   20  C23 MIQ B 502     -33.473 -12.278  -7.984  1.00139.15     0.045 C 
ENDBRANCH  10  12
BRANCH   5  21
HETATM   21  N6  MIQ B 502     -37.320 -14.948 -14.649  1.00140.95    -0.377 N 
HETATM   22  C7  MIQ B 502     -36.523 -15.798 -15.516  1.00142.12     0.149 C 
HETATM   23  C8  MIQ B 502     -36.498 -15.284 -16.950  1.00144.10     0.187 C 
HETATM   24  O9  MIQ B 502     -37.767 -14.961 -17.434  1.00148.65    -0.388 OA
HETATM   25  C10 MIQ B 502     -38.863 -14.913 -16.569  1.00147.44     0.187 C 
HETATM   26  C11 MIQ B 502     -38.628 -14.519 -15.115  1.00144.08     0.149 C 
ENDBRANCH   5  21
TORSDOF 2
ENDMDL
MODEL 9
REMARK VINA RESULT:      -5.9     11.561     14.808
REMARK  2 active torsions:
REMARK  status: ('A' for Active; 'I' for Inactive)
REMARK    1  A    between atoms: C5_5  and  N6_21 
REMARK    2  A    between atoms: C18_14  and  N17_19 
ROOT
HETATM    1  O1  MIQ B 502     -20.172 -22.807  -6.030  1.00142.91    -0.171 OA
HETATM    2  C2  MIQ B 502     -20.960 -21.665  -5.874  1.00141.17     0.195 A 
HETATM    3  C3  MIQ B 502     -21.540 -20.781  -7.024  1.00141.71     0.035 A 
HETATM    4  C4  MIQ B 502     -21.461 -20.851  -8.502  1.00142.86     0.046 A 
HETATM    5  C5  MIQ B 502     -22.111 -19.877  -9.301  1.00139.53     0.031 A 
HETATM    6  C12 MIQ B 502     -22.861 -18.804  -8.665  1.00139.38     0.030 A 
HETATM    7  C13 MIQ B 502     -22.939 -18.737  -7.248  1.00141.18     0.019 A 
HETATM    8  C14 MIQ B 502     -22.256 -19.763  -6.414  1.00138.77     0.033 A 
HETATM    9  C15 MIQ B 502     -22.120 -20.018  -4.877  1.00142.10     0.195 A 
HETATM   10  N17 MIQ B 502     -21.378 -21.105  -4.751  1.00139.42    -0.288 N 
HETATM   11  O16 MIQ B 502     -22.671 -19.248  -3.851  1.00148.93    -0.171 OA
ENDROOT
BRANCH  10  12
HETATM   12  C18 MIQ B 502     -21.027 -21.636  -3.447  1.00139.82     0.187 C 
HETATM   13  C19 MIQ B 502     -19.501 -21.773  -3.392  1.00140.06     0.247 C 
HETATM   14  O25 MIQ B 502     -18.829 -20.848  -3.686  1.00143.95    -0.271 OA
HETATM   15  N20 MIQ B 502     -18.858 -23.005  -2.983  1.00140.02    -0.296 N 
HETATM   16  H13 MIQ B 502     -17.861 -23.083  -2.958  1.00142.77     0.171 HD
HETATM   17  C21 MIQ B 502     -19.699 -24.122  -2.639  1.00142.22     0.224 C 
HETATM   18  C22 MIQ B 502     -21.002 -24.255  -3.403  1.00139.52     0.106 C 
HETATM   19  O24 MIQ B 502     -19.389 -24.893  -1.799  1.00146.13    -0.273 OA
HETATM   20  C23 MIQ B 502     -21.758 -22.955  -3.196  1.00139.15     0.045 C 
ENDBRANCH  10  12
BRANCH   5  21
HETATM   21  N6  MIQ B 502     -22.012 -19.949 -10.748  1.00140.95    -0.377 N 
HETATM   22  C7  MIQ B 502     -21.386 -21.116 -11.344  1.00142.12     0.149 C 
HETATM   23  C8  MIQ B 502     -20.779 -20.803 -12.706  1.00144.10     0.187 C 
HETATM   24  O9  MIQ B 502     -21.650 -20.102 -13.541  1.00148.65    -0.388 OA
HETATM   25  C10 MIQ B 502     -22.841 -19.572 -13.037  1.00147.44     0.187 C 
HETATM   26  C11 MIQ B 502     -22.884 -19.134 -11.576  1.00144.08     0.149 C 
ENDBRANCH   5  21
TORSDOF 2
ENDMDL
