MODEL 1
REMARK VINA RESULT:      -8.3      0.000      0.000
REMARK  2 active torsions:
REMARK  status: ('A' for Active; 'I' for Inactive)
REMARK    1  A    between atoms: C5_5  and  N6_21 
REMARK    2  A    between atoms: C18_14  and  N17_19 
ROOT
HETATM    1  O1  MIQ B 502      10.873   2.338 -13.245  1.00142.91    -0.171 OA
HETATM    2  C2  MIQ B 502      10.296   2.577 -11.996  1.00141.17     0.195 A 
HETATM    3  C3  MIQ B 502      10.974   3.299 -10.789  1.00141.71     0.035 A 
HETATM    4  C4  MIQ B 502      12.310   3.910 -10.587  1.00142.86     0.046 A 
HETATM    5  C5  MIQ B 502      12.643   4.509  -9.346  1.00139.53     0.031 A 
HETATM    6  C12 MIQ B 502      11.668   4.524  -8.265  1.00139.38     0.030 A 
HETATM    7  C13 MIQ B 502      10.387   3.939  -8.459  1.00141.18     0.019 A 
HETATM    8  C14 MIQ B 502      10.042   3.314  -9.765  1.00138.77     0.033 A 
HETATM    9  C15 MIQ B 502       8.777   2.597 -10.339  1.00142.10     0.195 A 
HETATM   10  N17 MIQ B 502       9.083   2.255 -11.580  1.00139.42    -0.288 N 
HETATM   11  O16 MIQ B 502       7.573   2.364  -9.672  1.00148.93    -0.171 OA
ENDROOT
BRANCH  10  12
HETATM   12  C18 MIQ B 502       8.139   1.547 -12.425  1.00139.82     0.187 C 
HETATM   13  C19 MIQ B 502       8.815   0.255 -12.899  1.00140.06     0.247 C 
HETATM   14  O25 MIQ B 502       9.316  -0.459 -12.104  1.00143.95    -0.271 OA
HETATM   15  N20 MIQ B 502       8.851  -0.119 -14.298  1.00140.02    -0.296 N 
HETATM   16  H13 MIQ B 502       9.301  -0.963 -14.596  1.00142.77     0.171 HD
HETATM   17  C21 MIQ B 502       8.242   0.773 -15.251  1.00142.22     0.224 C 
HETATM   18  C22 MIQ B 502       8.317   2.255 -14.940  1.00139.52     0.106 C 
HETATM   19  O24 MIQ B 502       7.707   0.367 -16.223  1.00146.13    -0.273 OA
HETATM   20  C23 MIQ B 502       7.680   2.442 -13.575  1.00139.15     0.045 C 
ENDBRANCH  10  12
BRANCH   5  21
HETATM   21  N6  MIQ B 502      13.960   5.091  -9.157  1.00140.95    -0.377 N 
HETATM   22  C7  MIQ B 502      14.190   5.923  -7.989  1.00142.12     0.149 C 
HETATM   23  C8  MIQ B 502      15.299   6.941  -8.226  1.00144.10     0.187 C 
HETATM   24  O9  MIQ B 502      16.444   6.375  -8.791  1.00148.65    -0.388 OA
HETATM   25  C10 MIQ B 502      16.420   5.066  -9.278  1.00147.44     0.187 C 
HETATM   26  C11 MIQ B 502      15.110   4.519  -9.835  1.00144.08     0.149 C 
ENDBRANCH   5  21
TORSDOF 2
ENDMDL
MODEL 2
REMARK VINA RESULT:      -7.7      1.728      2.322
REMARK  2 active torsions:
REMARK  status: ('A' for Active; 'I' for Inactive)
REMARK    1  A    between atoms: C5_5  and  N6_21 
REMARK    2  A    between atoms: C18_14  and  N17_19 
ROOT
HETATM    1  O1  MIQ B 502      13.509   1.245 -11.842  1.00142.91    -0.171 OA
HETATM    2  C2  MIQ B 502      12.526   2.166 -11.471  1.00141.17     0.195 A 
HETATM    3  C3  MIQ B 502      12.739   3.437 -10.589  1.00141.71     0.035 A 
HETATM    4  C4  MIQ B 502      13.925   4.030  -9.926  1.00142.86     0.046 A 
HETATM    5  C5  MIQ B 502      13.802   5.226  -9.174  1.00139.53     0.031 A 
HETATM    6  C12 MIQ B 502      12.503   5.874  -9.054  1.00139.38     0.030 A 
HETATM    7  C13 MIQ B 502      11.367   5.306  -9.690  1.00141.18     0.019 A 
HETATM    8  C14 MIQ B 502      11.502   4.052 -10.481  1.00138.77     0.033 A 
HETATM    9  C15 MIQ B 502      10.516   3.157 -11.300  1.00142.10     0.195 A 
HETATM   10  N17 MIQ B 502      11.241   2.161 -11.783  1.00139.42    -0.288 N 
HETATM   11  O16 MIQ B 502       9.148   3.369 -11.480  1.00148.93    -0.171 OA
ENDROOT
BRANCH  10  12
HETATM   12  C18 MIQ B 502      10.646   1.114 -12.591  1.00139.82     0.187 C 
HETATM   13  C19 MIQ B 502       9.805   1.786 -13.683  1.00140.06     0.247 C 
HETATM   14  O25 MIQ B 502      10.292   2.631 -14.347  1.00143.95    -0.271 OA
HETATM   15  N20 MIQ B 502       8.428   1.408 -13.928  1.00140.02    -0.296 N 
HETATM   16  H13 MIQ B 502       7.888   1.859 -14.640  1.00142.77     0.171 HD
HETATM   17  C21 MIQ B 502       7.853   0.382 -13.098  1.00142.22     0.224 C 
HETATM   18  C22 MIQ B 502       8.331   0.321 -11.660  1.00139.52     0.106 C 
HETATM   19  O24 MIQ B 502       7.052  -0.378 -13.521  1.00146.13    -0.273 OA
HETATM   20  C23 MIQ B 502       9.839   0.159 -11.713  1.00139.15     0.045 C 
ENDBRANCH  10  12
BRANCH   5  21
HETATM   21  N6  MIQ B 502      14.968   5.788  -8.518  1.00140.95    -0.377 N 
HETATM   22  C7  MIQ B 502      14.768   6.671  -7.382  1.00142.12     0.149 C 
HETATM   23  C8  MIQ B 502      15.921   7.652  -7.214  1.00144.10     0.187 C 
HETATM   24  O9  MIQ B 502      17.172   7.035  -7.277  1.00148.65    -0.388 OA
HETATM   25  C10 MIQ B 502      17.286   5.705  -7.688  1.00147.44     0.187 C 
HETATM   26  C11 MIQ B 502      16.267   5.159  -8.684  1.00144.08     0.149 C 
ENDBRANCH   5  21
TORSDOF 2
ENDMDL
MODEL 3
REMARK VINA RESULT:      -7.4      1.419      2.500
REMARK  2 active torsions:
REMARK  status: ('A' for Active; 'I' for Inactive)
REMARK    1  A    between atoms: C5_5  and  N6_21 
REMARK    2  A    between atoms: C18_14  and  N17_19 
ROOT
HETATM    1  O1  MIQ B 502       7.829   3.605 -11.330  1.00142.91    -0.171 OA
HETATM    2  C2  MIQ B 502       8.903   2.847 -11.802  1.00141.17     0.195 A 
HETATM    3  C3  MIQ B 502      10.398   3.002 -11.376  1.00141.71     0.035 A 
HETATM    4  C4  MIQ B 502      11.101   3.902 -10.431  1.00142.86     0.046 A 
HETATM    5  C5  MIQ B 502      12.504   3.799 -10.253  1.00139.53     0.031 A 
HETATM    6  C12 MIQ B 502      13.257   2.803 -11.002  1.00139.38     0.030 A 
HETATM    7  C13 MIQ B 502      12.583   1.939 -11.907  1.00141.18     0.019 A 
HETATM    8  C14 MIQ B 502      11.110   2.050 -12.089  1.00138.77     0.033 A 
HETATM    9  C15 MIQ B 502      10.050   1.300 -12.961  1.00142.10     0.195 A 
HETATM   10  N17 MIQ B 502       8.885   1.861 -12.681  1.00139.42    -0.288 N 
HETATM   11  O16 MIQ B 502      10.291   0.254 -13.853  1.00148.93    -0.171 OA
ENDROOT
BRANCH  10  12
HETATM   12  C18 MIQ B 502       7.661   1.424 -13.326  1.00139.82     0.187 C 
HETATM   13  C19 MIQ B 502       7.612  -0.107 -13.250  1.00140.06     0.247 C 
HETATM   14  O25 MIQ B 502       7.774  -0.637 -12.208  1.00143.95    -0.271 OA
HETATM   15  N20 MIQ B 502       7.366  -0.923 -14.421  1.00140.02    -0.296 N 
HETATM   16  H13 MIQ B 502       7.343  -1.921 -14.359  1.00142.77     0.171 HD
HETATM   17  C21 MIQ B 502       7.181  -0.253 -15.683  1.00142.22     0.224 C 
HETATM   18  C22 MIQ B 502       7.967   1.026 -15.896  1.00139.52     0.106 C 
HETATM   19  O24 MIQ B 502       6.449  -0.679 -16.507  1.00146.13    -0.273 OA
HETATM   20  C23 MIQ B 502       7.594   1.957 -14.756  1.00139.15     0.045 C 
ENDBRANCH  10  12
BRANCH   5  21
HETATM   21  N6  MIQ B 502      13.182   4.696  -9.335  1.00140.95    -0.377 N 
HETATM   22  C7  MIQ B 502      14.439   5.294  -9.750  1.00142.12     0.149 C 
HETATM   23  C8  MIQ B 502      15.322   5.646  -8.559  1.00144.10     0.187 C 
HETATM   24  O9  MIQ B 502      14.634   6.336  -7.559  1.00148.65    -0.388 OA
HETATM   25  C10 MIQ B 502      13.242   6.448  -7.605  1.00147.44     0.187 C 
HETATM   26  C11 MIQ B 502      12.441   5.325  -8.256  1.00144.08     0.149 C 
ENDBRANCH   5  21
TORSDOF 2
ENDMDL
MODEL 4
REMARK VINA RESULT:      -7.3      1.667      2.515
REMARK  2 active torsions:
REMARK  status: ('A' for Active; 'I' for Inactive)
REMARK    1  A    between atoms: C5_5  and  N6_21 
REMARK    2  A    between atoms: C18_14  and  N17_19 
ROOT
HETATM    1  O1  MIQ B 502      11.073   3.820 -14.815  1.00142.91    -0.171 OA
HETATM    2  C2  MIQ B 502      10.349   3.282 -13.749  1.00141.17     0.195 A 
HETATM    3  C3  MIQ B 502      10.633   3.514 -12.231  1.00141.71     0.035 A 
HETATM    4  C4  MIQ B 502      11.651   4.299 -11.493  1.00142.86     0.046 A 
HETATM    5  C5  MIQ B 502      11.653   4.317 -10.075  1.00139.53     0.031 A 
HETATM    6  C12 MIQ B 502      10.649   3.561  -9.342  1.00139.38     0.030 A 
HETATM    7  C13 MIQ B 502       9.671   2.809 -10.049  1.00141.18     0.019 A 
HETATM    8  C14 MIQ B 502       9.672   2.796 -11.537  1.00138.77     0.033 A 
HETATM    9  C15 MIQ B 502       8.787   2.115 -12.631  1.00142.10     0.195 A 
HETATM   10  N17 MIQ B 502       9.293   2.488 -13.795  1.00139.42    -0.288 N 
HETATM   11  O16 MIQ B 502       7.688   1.281 -12.417  1.00148.93    -0.171 OA
ENDROOT
BRANCH  10  12
HETATM   12  C18 MIQ B 502       8.727   2.027 -15.049  1.00139.82     0.187 C 
HETATM   13  C19 MIQ B 502       7.205   2.198 -14.966  1.00140.06     0.247 C 
HETATM   14  O25 MIQ B 502       6.760   3.240 -14.638  1.00143.95    -0.271 OA
HETATM   15  N20 MIQ B 502       6.296   1.116 -15.285  1.00140.02    -0.296 N 
HETATM   16  H13 MIQ B 502       5.305   1.239 -15.221  1.00142.77     0.171 HD
HETATM   17  C21 MIQ B 502       6.864  -0.149 -15.673  1.00142.22     0.224 C 
HETATM   18  C22 MIQ B 502       8.180  -0.533 -15.023  1.00139.52     0.106 C 
HETATM   19  O24 MIQ B 502       6.332  -0.849 -16.463  1.00146.13    -0.273 OA
HETATM   20  C23 MIQ B 502       9.156   0.588 -15.329  1.00139.15     0.045 C 
ENDBRANCH  10  12
BRANCH   5  21
HETATM   21  N6  MIQ B 502      12.666   5.077  -9.366  1.00140.95    -0.377 N 
HETATM   22  C7  MIQ B 502      13.691   5.758 -10.137  1.00142.12     0.149 C 
HETATM   23  C8  MIQ B 502      14.976   5.941  -9.339  1.00144.10     0.187 C 
HETATM   24  O9  MIQ B 502      14.752   6.455  -8.060  1.00148.65    -0.388 OA
HETATM   25  C10 MIQ B 502      13.454   6.543  -7.550  1.00147.44     0.187 C 
HETATM   26  C11 MIQ B 502      12.421   5.517  -8.003  1.00144.08     0.149 C 
ENDBRANCH   5  21
TORSDOF 2
ENDMDL
MODEL 5
REMARK VINA RESULT:      -7.2      1.899      2.427
REMARK  2 active torsions:
REMARK  status: ('A' for Active; 'I' for Inactive)
REMARK    1  A    between atoms: C5_5  and  N6_21 
REMARK    2  A    between atoms: C18_14  and  N17_19 
ROOT
HETATM    1  O1  MIQ B 502      12.265  -0.089 -12.027  1.00142.91    -0.171 OA
HETATM    2  C2  MIQ B 502      11.519   1.084 -12.158  1.00141.17     0.195 A 
HETATM    3  C3  MIQ B 502      11.869   2.474 -11.537  1.00141.71     0.035 A 
HETATM    4  C4  MIQ B 502      12.989   2.962 -10.697  1.00142.86     0.046 A 
HETATM    5  C5  MIQ B 502      13.034   4.316 -10.279  1.00139.53     0.031 A 
HETATM    6  C12 MIQ B 502      11.975   5.231 -10.678  1.00139.38     0.030 A 
HETATM    7  C13 MIQ B 502      10.902   4.764 -11.485  1.00141.18     0.019 A 
HETATM    8  C14 MIQ B 502      10.861   3.342 -11.923  1.00138.77     0.033 A 
HETATM    9  C15 MIQ B 502       9.880   2.487 -12.788  1.00142.10     0.195 A 
HETATM   10  N17 MIQ B 502      10.390   1.267 -12.821  1.00139.42    -0.288 N 
HETATM   11  O16 MIQ B 502       8.703   2.926 -13.398  1.00148.93    -0.171 OA
ENDROOT
BRANCH  10  12
HETATM   12  C18 MIQ B 502       9.729   0.188 -13.531  1.00139.82     0.187 C 
HETATM   13  C19 MIQ B 502       9.353   0.706 -14.924  1.00140.06     0.247 C 
HETATM   14  O25 MIQ B 502      10.177   1.228 -15.587  1.00143.95    -0.271 OA
HETATM   15  N20 MIQ B 502       8.012   0.567 -15.454  1.00140.02    -0.296 N 
HETATM   16  H13 MIQ B 502       7.777   0.916 -16.363  1.00142.77     0.171 HD
HETATM   17  C21 MIQ B 502       7.020  -0.064 -14.623  1.00142.22     0.224 C 
HETATM   18  C22 MIQ B 502       7.141   0.159 -13.128  1.00139.52     0.106 C 
HETATM   19  O24 MIQ B 502       6.158  -0.728 -15.085  1.00146.13    -0.273 OA
HETATM   20  C23 MIQ B 502       8.527  -0.316 -12.732  1.00139.15     0.045 C 
ENDBRANCH  10  12
BRANCH   5  21
HETATM   21  N6  MIQ B 502      14.128   4.777  -9.444  1.00140.95    -0.377 N 
HETATM   22  C7  MIQ B 502      15.486   4.650  -9.945  1.00142.12     0.149 C 
HETATM   23  C8  MIQ B 502      16.502   4.544  -8.816  1.00144.10     0.187 C 
HETATM   24  O9  MIQ B 502      16.319   5.513  -7.827  1.00148.65    -0.388 OA
HETATM   25  C10 MIQ B 502      15.170   6.307  -7.819  1.00147.44     0.187 C 
HETATM   26  C11 MIQ B 502      13.874   5.721  -8.370  1.00144.08     0.149 C 
ENDBRANCH   5  21
TORSDOF 2
ENDMDL
MODEL 6
REMARK VINA RESULT:      -6.8      2.180      3.331
REMARK  2 active torsions:
REMARK  status: ('A' for Active; 'I' for Inactive)
REMARK    1  A    between atoms: C5_5  and  N6_21 
REMARK    2  A    between atoms: C18_14  and  N17_19 
ROOT
HETATM    1  O1  MIQ B 502       8.052   2.473 -13.360  1.00142.91    -0.171 OA
HETATM    2  C2  MIQ B 502       9.241   1.778 -13.129  1.00141.17     0.195 A 
HETATM    3  C3  MIQ B 502      10.464   2.293 -12.304  1.00141.71     0.035 A 
HETATM    4  C4  MIQ B 502      10.741   3.550 -11.569  1.00142.86     0.046 A 
HETATM    5  C5  MIQ B 502      11.977   3.730 -10.897  1.00139.53     0.031 A 
HETATM    6  C12 MIQ B 502      12.978   2.673 -10.930  1.00139.38     0.030 A 
HETATM    7  C13 MIQ B 502      12.712   1.468 -11.635  1.00141.18     0.019 A 
HETATM    8  C14 MIQ B 502      11.412   1.283 -12.336  1.00138.77     0.033 A 
HETATM    9  C15 MIQ B 502      10.774   0.135 -13.184  1.00142.10     0.195 A 
HETATM   10  N17 MIQ B 502       9.577   0.568 -13.543  1.00139.42    -0.288 N 
HETATM   11  O16 MIQ B 502      11.356  -1.094 -13.499  1.00148.93    -0.171 OA
ENDROOT
BRANCH  10  12
HETATM   12  C18 MIQ B 502       8.694  -0.239 -14.363  1.00139.82     0.187 C 
HETATM   13  C19 MIQ B 502       8.150   0.655 -15.484  1.00140.06     0.247 C 
HETATM   14  O25 MIQ B 502       8.905   1.284 -16.137  1.00143.95    -0.271 OA
HETATM   15  N20 MIQ B 502       6.732   0.745 -15.770  1.00140.02    -0.296 N 
HETATM   16  H13 MIQ B 502       6.389   1.337 -16.500  1.00142.77     0.171 HD
HETATM   17  C21 MIQ B 502       5.830  -0.024 -14.952  1.00142.22     0.224 C 
HETATM   18  C22 MIQ B 502       6.221  -0.217 -13.500  1.00139.52     0.106 C 
HETATM   19  O24 MIQ B 502       4.836  -0.486 -15.396  1.00146.13    -0.273 OA
HETATM   20  C23 MIQ B 502       7.594  -0.864 -13.506  1.00139.15     0.045 C 
ENDBRANCH  10  12
BRANCH   5  21
HETATM   21  N6  MIQ B 502      12.240   4.971 -10.193  1.00140.95    -0.377 N 
HETATM   22  C7  MIQ B 502      12.940   4.914  -8.921  1.00142.12     0.149 C 
HETATM   23  C8  MIQ B 502      12.592   6.096  -8.027  1.00144.10     0.187 C 
HETATM   24  O9  MIQ B 502      12.664   7.321  -8.693  1.00148.65    -0.388 OA
HETATM   25  C10 MIQ B 502      12.813   7.364 -10.081  1.00147.44     0.187 C 
HETATM   26  C11 MIQ B 502      12.220   6.232 -10.914  1.00144.08     0.149 C 
ENDBRANCH   5  21
TORSDOF 2
ENDMDL
MODEL 7
REMARK VINA RESULT:      -6.6      1.742      2.811
REMARK  2 active torsions:
REMARK  status: ('A' for Active; 'I' for Inactive)
REMARK    1  A    between atoms: C5_5  and  N6_21 
REMARK    2  A    between atoms: C18_14  and  N17_19 
ROOT
HETATM    1  O1  MIQ B 502       9.362   0.138 -10.961  1.00142.91    -0.171 OA
HETATM    2  C2  MIQ B 502       9.515   1.095 -11.965  1.00141.17     0.195 A 
HETATM    3  C3  MIQ B 502      10.343   2.416 -11.862  1.00141.71     0.035 A 
HETATM    4  C4  MIQ B 502      11.157   3.027 -10.784  1.00142.86     0.046 A 
HETATM    5  C5  MIQ B 502      11.809   4.268 -10.995  1.00139.53     0.031 A 
HETATM    6  C12 MIQ B 502      11.678   4.945 -12.277  1.00139.38     0.030 A 
HETATM    7  C13 MIQ B 502      10.899   4.359 -13.311  1.00141.18     0.019 A 
HETATM    8  C14 MIQ B 502      10.219   3.054 -13.085  1.00138.77     0.033 A 
HETATM    9  C15 MIQ B 502       9.309   2.125 -13.953  1.00142.10     0.195 A 
HETATM   10  N17 MIQ B 502       9.011   1.088 -13.188  1.00139.42    -0.288 N 
HETATM   11  O16 MIQ B 502       8.896   2.350 -15.267  1.00148.93    -0.171 OA
ENDROOT
BRANCH  10  12
HETATM   12  C18 MIQ B 502       8.158   0.015 -13.664  1.00139.82     0.187 C 
HETATM   13  C19 MIQ B 502       8.729  -0.478 -15.000  1.00140.06     0.247 C 
HETATM   14  O25 MIQ B 502       9.872  -0.761 -15.068  1.00143.95    -0.271 OA
HETATM   15  N20 MIQ B 502       7.901  -0.612 -16.181  1.00140.02    -0.296 N 
HETATM   16  H13 MIQ B 502       8.287  -0.929 -17.048  1.00142.77     0.171 HD
HETATM   17  C21 MIQ B 502       6.511  -0.251 -16.075  1.00142.22     0.224 C 
HETATM   18  C22 MIQ B 502       6.173   0.887 -15.132  1.00139.52     0.106 C 
HETATM   19  O24 MIQ B 502       5.676  -0.819 -16.689  1.00146.13    -0.273 OA
HETATM   20  C23 MIQ B 502       6.711   0.492 -13.769  1.00139.15     0.045 C 
ENDBRANCH  10  12
BRANCH   5  21
HETATM   21  N6  MIQ B 502      12.590   4.862  -9.925  1.00140.95    -0.377 N 
HETATM   22  C7  MIQ B 502      11.916   5.223  -8.690  1.00142.12     0.149 C 
HETATM   23  C8  MIQ B 502      12.628   6.357  -7.964  1.00144.10     0.187 C 
HETATM   24  O9  MIQ B 502      14.004   6.152  -7.854  1.00148.65    -0.388 OA
HETATM   25  C10 MIQ B 502      14.625   5.119  -8.561  1.00147.44     0.187 C 
HETATM   26  C11 MIQ B 502      14.033   4.694  -9.901  1.00144.08     0.149 C 
ENDBRANCH   5  21
TORSDOF 2
ENDMDL
MODEL 8
REMARK VINA RESULT:      -6.6     14.899     18.415
REMARK  2 active torsions:
REMARK  status: ('A' for Active; 'I' for Inactive)
REMARK    1  A    between atoms: C5_5  and  N6_21 
REMARK    2  A    between atoms: C18_14  and  N17_19 
ROOT
HETATM    1  O1  MIQ B 502      17.532  -8.205 -22.392  1.00142.91    -0.171 OA
HETATM    2  C2  MIQ B 502      16.814  -8.464 -21.223  1.00141.17     0.195 A 
HETATM    3  C3  MIQ B 502      15.962  -9.740 -20.928  1.00141.71     0.035 A 
HETATM    4  C4  MIQ B 502      15.666 -10.969 -21.702  1.00142.86     0.046 A 
HETATM    5  C5  MIQ B 502      14.837 -11.980 -21.153  1.00139.53     0.031 A 
HETATM    6  C12 MIQ B 502      14.276 -11.809 -19.820  1.00139.38     0.030 A 
HETATM    7  C13 MIQ B 502      14.561 -10.631 -19.078  1.00141.18     0.019 A 
HETATM    8  C14 MIQ B 502      15.433  -9.575 -19.658  1.00138.77     0.033 A 
HETATM    9  C15 MIQ B 502      15.960  -8.188 -19.162  1.00142.10     0.195 A 
HETATM   10  N17 MIQ B 502      16.708  -7.710 -20.143  1.00139.42    -0.288 N 
HETATM   11  O16 MIQ B 502      15.689  -7.583 -17.934  1.00148.93    -0.171 OA
ENDROOT
BRANCH  10  12
HETATM   12  C18 MIQ B 502      17.356  -6.416 -20.038  1.00139.82     0.187 C 
HETATM   13  C19 MIQ B 502      16.902  -5.567 -21.232  1.00140.06     0.247 C 
HETATM   14  O25 MIQ B 502      15.749  -5.465 -21.461  1.00143.95    -0.271 OA
HETATM   15  N20 MIQ B 502      17.849  -4.881 -22.086  1.00140.02    -0.296 N 
HETATM   16  H13 MIQ B 502      17.540  -4.336 -22.867  1.00142.77     0.171 HD
HETATM   17  C21 MIQ B 502      19.252  -5.030 -21.793  1.00142.22     0.224 C 
HETATM   18  C22 MIQ B 502      19.691  -6.364 -21.223  1.00139.52     0.106 C 
HETATM   19  O24 MIQ B 502      20.019  -4.151 -21.984  1.00146.13    -0.273 OA
HETATM   20  C23 MIQ B 502      18.872  -6.585 -19.964  1.00139.15     0.045 C 
ENDBRANCH  10  12
BRANCH   5  21
HETATM   21  N6  MIQ B 502      14.543 -13.171 -21.928  1.00140.95    -0.377 N 
HETATM   22  C7  MIQ B 502      14.927 -14.464 -21.387  1.00142.12     0.149 C 
HETATM   23  C8  MIQ B 502      15.165 -15.492 -22.486  1.00144.10     0.187 C 
HETATM   24  O9  MIQ B 502      14.140 -15.522 -23.433  1.00148.65    -0.388 OA
HETATM   25  C10 MIQ B 502      13.155 -14.530 -23.443  1.00147.44     0.187 C 
HETATM   26  C11 MIQ B 502      13.526 -13.130 -22.964  1.00144.08     0.149 C 
ENDBRANCH   5  21
TORSDOF 2
ENDMDL
MODEL 9
REMARK VINA RESULT:      -6.4     14.320     17.557
REMARK  2 active torsions:
REMARK  status: ('A' for Active; 'I' for Inactive)
REMARK    1  A    between atoms: C5_5  and  N6_21 
REMARK    2  A    between atoms: C18_14  and  N17_19 
ROOT
HETATM    1  O1  MIQ B 502      18.635  -7.655 -22.380  1.00142.91    -0.171 OA
HETATM    2  C2  MIQ B 502      17.829  -7.297 -21.297  1.00141.17     0.195 A 
HETATM    3  C3  MIQ B 502      16.807  -8.223 -20.563  1.00141.71     0.035 A 
HETATM    4  C4  MIQ B 502      16.397  -9.635 -20.747  1.00142.86     0.046 A 
HETATM    5  C5  MIQ B 502      15.418 -10.213 -19.900  1.00139.53     0.031 A 
HETATM    6  C12 MIQ B 502      14.814  -9.414 -18.844  1.00139.38     0.030 A 
HETATM    7  C13 MIQ B 502      15.208  -8.060 -18.666  1.00141.18     0.019 A 
HETATM    8  C14 MIQ B 502      16.238  -7.460 -19.557  1.00138.77     0.033 A 
HETATM    9  C15 MIQ B 502      16.911  -6.052 -19.667  1.00142.10     0.195 A 
HETATM   10  N17 MIQ B 502      17.764  -6.133 -20.674  1.00139.42    -0.288 N 
HETATM   11  O16 MIQ B 502      16.656  -4.939 -18.864  1.00148.93    -0.171 OA
ENDROOT
BRANCH  10  12
HETATM   12  C18 MIQ B 502      18.566  -4.994 -21.080  1.00139.82     0.187 C 
HETATM   13  C19 MIQ B 502      18.456  -4.864 -22.604  1.00140.06     0.247 C 
HETATM   14  O25 MIQ B 502      17.388  -4.852 -23.106  1.00143.95    -0.271 OA
HETATM   15  N20 MIQ B 502      19.628  -4.750 -23.448  1.00140.02    -0.296 N 
HETATM   16  H13 MIQ B 502      19.542  -4.672 -24.442  1.00142.77     0.171 HD
HETATM   17  C21 MIQ B 502      20.921  -4.778 -22.814  1.00142.22     0.224 C 
HETATM   18  C22 MIQ B 502      21.054  -5.645 -21.577  1.00139.52     0.106 C 
HETATM   19  O24 MIQ B 502      21.830  -4.151 -23.236  1.00146.13    -0.273 OA
HETATM   20  C23 MIQ B 502      20.005  -5.157 -20.594  1.00139.15     0.045 C 
ENDBRANCH  10  12
BRANCH   5  21
HETATM   21  N6  MIQ B 502      15.015 -11.593 -20.101  1.00140.95    -0.377 N 
HETATM   22  C7  MIQ B 502      13.780 -11.859 -20.818  1.00142.12     0.149 C 
HETATM   23  C8  MIQ B 502      13.162 -13.191 -20.414  1.00144.10     0.187 C 
HETATM   24  O9  MIQ B 502      14.086 -14.238 -20.408  1.00148.65    -0.388 OA
HETATM   25  C10 MIQ B 502      15.453 -13.977 -20.538  1.00147.44     0.187 C 
HETATM   26  C11 MIQ B 502      15.997 -12.658 -20.000  1.00144.08     0.149 C 
ENDBRANCH   5  21
TORSDOF 2
ENDMDL
