MODEL 1
REMARK VINA RESULT:      -6.1      0.000      0.000
REMARK  2 active torsions:
REMARK  status: ('A' for Active; 'I' for Inactive)
REMARK    1  A    between atoms: C5_5  and  N6_21 
REMARK    2  A    between atoms: C18_14  and  N17_19 
ROOT
HETATM    1  O1  MIQ B 502       6.792 -14.234 -15.363  1.00142.91    -0.171 OA
HETATM    2  C2  MIQ B 502       6.585 -13.978 -16.720  1.00141.17     0.195 A 
HETATM    3  C3  MIQ B 502       6.470 -15.047 -17.853  1.00141.71     0.035 A 
HETATM    4  C4  MIQ B 502       6.533 -16.528 -17.867  1.00142.86     0.046 A 
HETATM    5  C5  MIQ B 502       6.389 -17.240 -19.085  1.00139.53     0.031 A 
HETATM    6  C12 MIQ B 502       6.179 -16.511 -20.328  1.00139.38     0.030 A 
HETATM    7  C13 MIQ B 502       6.118 -15.092 -20.314  1.00141.18     0.019 A 
HETATM    8  C14 MIQ B 502       6.267 -14.350 -19.033  1.00138.77     0.033 A 
HETATM    9  C15 MIQ B 502       6.254 -12.839 -18.629  1.00142.10     0.195 A 
HETATM   10  N17 MIQ B 502       6.440 -12.809 -17.320  1.00139.42    -0.288 N 
HETATM   11  O16 MIQ B 502       6.084 -11.748 -19.483  1.00148.93    -0.171 OA
ENDROOT
BRANCH  10  12
HETATM   12  C18 MIQ B 502       6.501 -11.555 -16.592  1.00139.82     0.187 C 
HETATM   13  C19 MIQ B 502       7.746 -11.595 -15.697  1.00140.06     0.247 C 
HETATM   14  O25 MIQ B 502       8.787 -11.881 -16.171  1.00143.95    -0.271 OA
HETATM   15  N20 MIQ B 502       7.680 -11.285 -14.283  1.00140.02    -0.296 N 
HETATM   16  H13 MIQ B 502       8.498 -11.321 -13.708  1.00142.77     0.171 HD
HETATM   17  C21 MIQ B 502       6.395 -10.950 -13.726  1.00142.22     0.224 C 
HETATM   18  C22 MIQ B 502       5.188 -11.644 -14.328  1.00139.52     0.106 C 
HETATM   19  O24 MIQ B 502       6.288 -10.168 -12.846  1.00146.13    -0.273 OA
HETATM   20  C23 MIQ B 502       5.207 -11.329 -15.813  1.00139.15     0.045 C 
ENDBRANCH  10  12
BRANCH   5  21
HETATM   21  N6  MIQ B 502       6.468 -18.690 -19.086  1.00140.95    -0.377 N 
HETATM   22  C7  MIQ B 502       6.451 -19.387 -17.812  1.00142.12     0.149 C 
HETATM   23  C8  MIQ B 502       7.159 -20.733 -17.891  1.00144.10     0.187 C 
HETATM   24  O9  MIQ B 502       6.761 -21.493 -18.993  1.00148.65    -0.388 OA
HETATM   25  C10 MIQ B 502       5.975 -20.924 -19.998  1.00147.44     0.187 C 
HETATM   26  C11 MIQ B 502       6.125 -19.434 -20.285  1.00144.08     0.149 C 
ENDBRANCH   5  21
TORSDOF 2
ENDMDL
MODEL 2
REMARK VINA RESULT:      -6.0     12.113     15.279
REMARK  2 active torsions:
REMARK  status: ('A' for Active; 'I' for Inactive)
REMARK    1  A    between atoms: C5_5  and  N6_21 
REMARK    2  A    between atoms: C18_14  and  N17_19 
ROOT
HETATM    1  O1  MIQ B 502      15.961 -19.762 -14.939  1.00142.91    -0.171 OA
HETATM    2  C2  MIQ B 502      16.309 -20.893 -14.198  1.00141.17     0.195 A 
HETATM    3  C3  MIQ B 502      17.595 -21.065 -13.328  1.00141.71     0.035 A 
HETATM    4  C4  MIQ B 502      18.748 -20.184 -13.027  1.00142.86     0.046 A 
HETATM    5  C5  MIQ B 502      19.790 -20.632 -12.177  1.00139.53     0.031 A 
HETATM    6  C12 MIQ B 502      19.726 -21.965 -11.597  1.00139.38     0.030 A 
HETATM    7  C13 MIQ B 502      18.621 -22.810 -11.884  1.00141.18     0.019 A 
HETATM    8  C14 MIQ B 502      17.528 -22.334 -12.775  1.00138.77     0.033 A 
HETATM    9  C15 MIQ B 502      16.193 -22.952 -13.305  1.00142.10     0.195 A 
HETATM   10  N17 MIQ B 502      15.642 -22.027 -14.073  1.00139.42    -0.288 N 
HETATM   11  O16 MIQ B 502      15.691 -24.224 -13.023  1.00148.93    -0.171 OA
ENDROOT
BRANCH  10  12
HETATM   12  C18 MIQ B 502      14.382 -22.261 -14.755  1.00139.82     0.187 C 
HETATM   13  C19 MIQ B 502      13.378 -22.779 -13.718  1.00140.06     0.247 C 
HETATM   14  O25 MIQ B 502      13.230 -22.181 -12.711  1.00143.95    -0.271 OA
HETATM   15  N20 MIQ B 502      12.600 -23.980 -13.941  1.00140.02    -0.296 N 
HETATM   16  H13 MIQ B 502      11.953 -24.312 -13.254  1.00142.77     0.171 HD
HETATM   17  C21 MIQ B 502      12.807 -24.698 -15.173  1.00142.22     0.224 C 
HETATM   18  C22 MIQ B 502      14.211 -24.679 -15.745  1.00139.52     0.106 C 
HETATM   19  O24 MIQ B 502      11.923 -25.268 -15.712  1.00146.13    -0.273 OA
HETATM   20  C23 MIQ B 502      14.583 -23.219 -15.928  1.00139.15     0.045 C 
ENDBRANCH  10  12
BRANCH   5  21
HETATM   21  N6  MIQ B 502      20.920 -19.763 -11.903  1.00140.95    -0.377 N 
HETATM   22  C7  MIQ B 502      21.597 -19.886 -10.624  1.00142.12     0.149 C 
HETATM   23  C8  MIQ B 502      22.272 -18.585 -10.209  1.00144.10     0.187 C 
HETATM   24  O9  MIQ B 502      23.032 -18.017 -11.234  1.00148.65    -0.388 OA
HETATM   25  C10 MIQ B 502      22.946 -18.513 -12.537  1.00147.44     0.187 C 
HETATM   26  C11 MIQ B 502      21.628 -19.125 -13.000  1.00144.08     0.149 C 
ENDBRANCH   5  21
TORSDOF 2
ENDMDL
MODEL 3
REMARK VINA RESULT:      -5.9      5.623      8.626
REMARK  2 active torsions:
REMARK  status: ('A' for Active; 'I' for Inactive)
REMARK    1  A    between atoms: C5_5  and  N6_21 
REMARK    2  A    between atoms: C18_14  and  N17_19 
ROOT
HETATM    1  O1  MIQ B 502      13.213 -11.622 -14.281  1.00142.91    -0.171 OA
HETATM    2  C2  MIQ B 502      12.633 -11.459 -15.541  1.00141.17     0.195 A 
HETATM    3  C3  MIQ B 502      11.103 -11.448 -15.857  1.00141.71     0.035 A 
HETATM    4  C4  MIQ B 502       9.888 -11.586 -15.019  1.00142.86     0.046 A 
HETATM    5  C5  MIQ B 502       8.600 -11.530 -15.608  1.00139.53     0.031 A 
HETATM    6  C12 MIQ B 502       8.471 -11.336 -17.046  1.00139.38     0.030 A 
HETATM    7  C13 MIQ B 502       9.636 -11.202 -17.849  1.00141.18     0.019 A 
HETATM    8  C14 MIQ B 502      10.985 -11.259 -17.224  1.00138.77     0.033 A 
HETATM    9  C15 MIQ B 502      12.450 -11.152 -17.760  1.00142.10     0.195 A 
HETATM   10  N17 MIQ B 502      13.236 -11.280 -16.704  1.00139.42    -0.288 N 
HETATM   11  O16 MIQ B 502      12.843 -10.962 -19.086  1.00148.93    -0.171 OA
ENDROOT
BRANCH  10  12
HETATM   12  C18 MIQ B 502      14.681 -11.247 -16.826  1.00139.82     0.187 C 
HETATM   13  C19 MIQ B 502      15.057  -9.972 -17.591  1.00140.06     0.247 C 
HETATM   14  O25 MIQ B 502      14.622  -8.936 -17.232  1.00143.95    -0.271 OA
HETATM   15  N20 MIQ B 502      15.937 -10.002 -18.741  1.00140.02    -0.296 N 
HETATM   16  H13 MIQ B 502      16.169  -9.163 -19.235  1.00142.77     0.171 HD
HETATM   17  C21 MIQ B 502      16.448 -11.280 -19.166  1.00142.22     0.224 C 
HETATM   18  C22 MIQ B 502      15.535 -12.476 -18.976  1.00139.52     0.106 C 
HETATM   19  O24 MIQ B 502      17.527 -11.389 -19.635  1.00146.13    -0.273 OA
HETATM   20  C23 MIQ B 502      15.187 -12.522 -17.499  1.00139.15     0.045 C 
ENDBRANCH  10  12
BRANCH   5  21
HETATM   21  N6  MIQ B 502       7.420 -11.682 -14.778  1.00140.95    -0.377 N 
HETATM   22  C7  MIQ B 502       7.339 -10.925 -13.540  1.00142.12     0.149 C 
HETATM   23  C8  MIQ B 502       6.453 -11.613 -12.510  1.00144.10     0.187 C 
HETATM   24  O9  MIQ B 502       5.229 -12.029 -13.036  1.00148.65    -0.388 OA
HETATM   25  C10 MIQ B 502       5.004 -11.998 -14.415  1.00147.44     0.187 C 
HETATM   26  C11 MIQ B 502       6.190 -12.201 -15.352  1.00144.08     0.149 C 
ENDBRANCH   5  21
TORSDOF 2
ENDMDL
MODEL 4
REMARK VINA RESULT:      -5.9      5.243      6.950
REMARK  2 active torsions:
REMARK  status: ('A' for Active; 'I' for Inactive)
REMARK    1  A    between atoms: C5_5  and  N6_21 
REMARK    2  A    between atoms: C18_14  and  N17_19 
ROOT
HETATM    1  O1  MIQ B 502       4.794 -10.936 -15.651  1.00142.91    -0.171 OA
HETATM    2  C2  MIQ B 502       5.989 -10.889 -16.372  1.00141.17     0.195 A 
HETATM    3  C3  MIQ B 502       6.145 -10.484 -17.873  1.00141.71     0.035 A 
HETATM    4  C4  MIQ B 502       5.184 -10.059 -18.919  1.00142.86     0.046 A 
HETATM    5  C5  MIQ B 502       5.638  -9.748 -20.225  1.00139.53     0.031 A 
HETATM    6  C12 MIQ B 502       7.057  -9.846 -20.540  1.00139.38     0.030 A 
HETATM    7  C13 MIQ B 502       7.978 -10.253 -19.537  1.00141.18     0.019 A 
HETATM    8  C14 MIQ B 502       7.495 -10.576 -18.167  1.00138.77     0.033 A 
HETATM    9  C15 MIQ B 502       8.182 -11.039 -16.840  1.00142.10     0.195 A 
HETATM   10  N17 MIQ B 502       7.211 -11.163 -15.950  1.00139.42    -0.288 N 
HETATM   11  O16 MIQ B 502       9.543 -11.276 -16.643  1.00148.93    -0.171 OA
ENDROOT
BRANCH  10  12
HETATM   12  C18 MIQ B 502       7.480 -11.597 -14.592  1.00139.82     0.187 C 
HETATM   13  C19 MIQ B 502       6.517 -12.746 -14.269  1.00140.06     0.247 C 
HETATM   14  O25 MIQ B 502       6.436 -13.656 -15.015  1.00143.95    -0.271 OA
HETATM   15  N20 MIQ B 502       5.705 -12.748 -13.069  1.00140.02    -0.296 N 
HETATM   16  H13 MIQ B 502       5.075 -13.501 -12.873  1.00142.77     0.171 HD
HETATM   17  C21 MIQ B 502       5.813 -11.620 -12.180  1.00142.22     0.224 C 
HETATM   18  C22 MIQ B 502       6.080 -10.271 -12.820  1.00139.52     0.106 C 
HETATM   19  O24 MIQ B 502       5.705 -11.744 -11.010  1.00146.13    -0.273 OA
HETATM   20  C23 MIQ B 502       7.358 -10.421 -13.624  1.00139.15     0.045 C 
ENDBRANCH  10  12
BRANCH   5  21
HETATM   21  N6  MIQ B 502       4.685  -9.347 -21.244  1.00140.95    -0.377 N 
HETATM   22  C7  MIQ B 502       3.277  -9.631 -21.027  1.00142.12     0.149 C 
HETATM   23  C8  MIQ B 502       2.516  -9.770 -22.339  1.00144.10     0.187 C 
HETATM   24  O9  MIQ B 502       2.785  -8.733 -23.236  1.00148.65    -0.388 OA
HETATM   25  C10 MIQ B 502       3.824  -7.833 -22.986  1.00147.44     0.187 C 
HETATM   26  C11 MIQ B 502       5.042  -8.323 -22.210  1.00144.08     0.149 C 
ENDBRANCH   5  21
TORSDOF 2
ENDMDL
MODEL 5
REMARK VINA RESULT:      -5.9      4.973      5.824
REMARK  2 active torsions:
REMARK  status: ('A' for Active; 'I' for Inactive)
REMARK    1  A    between atoms: C5_5  and  N6_21 
REMARK    2  A    between atoms: C18_14  and  N17_19 
ROOT
HETATM    1  O1  MIQ B 502       8.373 -11.343 -14.780  1.00142.91    -0.171 OA
HETATM    2  C2  MIQ B 502       7.683 -11.425 -15.992  1.00141.17     0.195 A 
HETATM    3  C3  MIQ B 502       8.321 -11.614 -17.405  1.00141.71     0.035 A 
HETATM    4  C4  MIQ B 502       9.718 -11.759 -17.881  1.00142.86     0.046 A 
HETATM    5  C5  MIQ B 502       9.990 -11.922 -19.263  1.00139.53     0.031 A 
HETATM    6  C12 MIQ B 502       8.891 -11.948 -20.218  1.00139.38     0.030 A 
HETATM    7  C13 MIQ B 502       7.552 -11.811 -19.761  1.00141.18     0.019 A 
HETATM    8  C14 MIQ B 502       7.272 -11.643 -18.309  1.00138.77     0.033 A 
HETATM    9  C15 MIQ B 502       5.976 -11.470 -17.452  1.00142.10     0.195 A 
HETATM   10  N17 MIQ B 502       6.379 -11.366 -16.197  1.00139.42    -0.288 N 
HETATM   11  O16 MIQ B 502       4.662 -11.431 -17.923  1.00148.93    -0.171 OA
ENDROOT
BRANCH  10  12
HETATM   12  C18 MIQ B 502       5.434 -11.177 -15.111  1.00139.82     0.187 C 
HETATM   13  C19 MIQ B 502       5.748  -9.830 -14.448  1.00140.06     0.247 C 
HETATM   14  O25 MIQ B 502       5.844  -8.866 -15.121  1.00143.95    -0.271 OA
HETATM   15  N20 MIQ B 502       5.923  -9.706 -13.016  1.00140.02    -0.296 N 
HETATM   16  H13 MIQ B 502       6.133  -8.822 -12.596  1.00142.77     0.171 HD
HETATM   17  C21 MIQ B 502       5.810 -10.899 -12.217  1.00142.22     0.224 C 
HETATM   18  C22 MIQ B 502       6.285 -12.192 -12.852  1.00139.52     0.106 C 
HETATM   19  O24 MIQ B 502       5.364 -10.871 -11.123  1.00146.13    -0.273 OA
HETATM   20  C23 MIQ B 502       5.498 -12.354 -14.140  1.00139.15     0.045 C 
ENDBRANCH  10  12
BRANCH   5  21
HETATM   21  N6  MIQ B 502      11.363 -12.047 -19.717  1.00140.95    -0.377 N 
HETATM   22  C7  MIQ B 502      12.414 -12.176 -18.723  1.00142.12     0.149 C 
HETATM   23  C8  MIQ B 502      13.752 -11.662 -19.241  1.00144.10     0.187 C 
HETATM   24  O9  MIQ B 502      14.067 -12.150 -20.510  1.00148.65    -0.388 OA
HETATM   25  C10 MIQ B 502      13.111 -12.837 -21.262  1.00147.44     0.187 C 
HETATM   26  C11 MIQ B 502      11.641 -12.477 -21.077  1.00144.08     0.149 C 
ENDBRANCH   5  21
TORSDOF 2
ENDMDL
MODEL 6
REMARK VINA RESULT:      -5.8      5.549      6.587
REMARK  2 active torsions:
REMARK  status: ('A' for Active; 'I' for Inactive)
REMARK    1  A    between atoms: C5_5  and  N6_21 
REMARK    2  A    between atoms: C18_14  and  N17_19 
ROOT
HETATM    1  O1  MIQ B 502       7.832 -10.873 -15.953  1.00142.91    -0.171 OA
HETATM    2  C2  MIQ B 502       6.724 -10.705 -16.786  1.00141.17     0.195 A 
HETATM    3  C3  MIQ B 502       6.757 -10.489 -18.333  1.00141.71     0.035 A 
HETATM    4  C4  MIQ B 502       7.853 -10.402 -19.326  1.00142.86     0.046 A 
HETATM    5  C5  MIQ B 502       7.562 -10.196 -20.699  1.00139.53     0.031 A 
HETATM    6  C12 MIQ B 502       6.178 -10.070 -21.133  1.00139.38     0.030 A 
HETATM    7  C13 MIQ B 502       5.126 -10.154 -20.181  1.00141.18     0.019 A 
HETATM    8  C14 MIQ B 502       5.438 -10.373 -18.742  1.00138.77     0.033 A 
HETATM    9  C15 MIQ B 502       4.582 -10.519 -17.441  1.00142.10     0.195 A 
HETATM   10  N17 MIQ B 502       5.444 -10.699 -16.455  1.00139.42    -0.288 N 
HETATM   11  O16 MIQ B 502       3.190 -10.466 -17.347  1.00148.93    -0.171 OA
ENDROOT
BRANCH  10  12
HETATM   12  C18 MIQ B 502       5.001 -10.858 -15.082  1.00139.82     0.187 C 
HETATM   13  C19 MIQ B 502       5.705  -9.789 -14.237  1.00140.06     0.247 C 
HETATM   14  O25 MIQ B 502       5.666  -8.662 -14.584  1.00143.95    -0.271 OA
HETATM   15  N20 MIQ B 502       6.413 -10.123 -13.018  1.00140.02    -0.296 N 
HETATM   16  H13 MIQ B 502       6.874  -9.417 -12.478  1.00142.77     0.171 HD
HETATM   17  C21 MIQ B 502       6.456 -11.507 -12.620  1.00142.22     0.224 C 
HETATM   18  C22 MIQ B 502       6.495 -12.535 -13.734  1.00139.52     0.106 C 
HETATM   19  O24 MIQ B 502       6.455 -11.822 -11.481  1.00146.13    -0.273 OA
HETATM   20  C23 MIQ B 502       5.272 -12.281 -14.598  1.00139.15     0.045 C 
ENDBRANCH  10  12
BRANCH   5  21
HETATM   21  N6  MIQ B 502       8.646 -10.098 -21.659  1.00140.95    -0.377 N 
HETATM   22  C7  MIQ B 502       9.608  -9.019 -21.513  1.00142.12     0.149 C 
HETATM   23  C8  MIQ B 502      10.246  -8.642 -22.844  1.00144.10     0.187 C 
HETATM   24  O9  MIQ B 502      10.697  -9.750 -23.563  1.00148.65    -0.388 OA
HETATM   25  C10 MIQ B 502      10.356 -11.043 -23.159  1.00147.44     0.187 C 
HETATM   26  C11 MIQ B 502       9.024 -11.257 -22.448  1.00144.08     0.149 C 
ENDBRANCH   5  21
TORSDOF 2
ENDMDL
MODEL 7
REMARK VINA RESULT:      -5.8     15.788     16.739
REMARK  2 active torsions:
REMARK  status: ('A' for Active; 'I' for Inactive)
REMARK    1  A    between atoms: C5_5  and  N6_21 
REMARK    2  A    between atoms: C18_14  and  N17_19 
ROOT
HETATM    1  O1  MIQ B 502      -7.784 -19.334  -7.501  1.00142.91    -0.171 OA
HETATM    2  C2  MIQ B 502      -7.020 -19.439  -8.665  1.00141.17     0.195 A 
HETATM    3  C3  MIQ B 502      -6.518 -20.764  -9.323  1.00141.71     0.035 A 
HETATM    4  C4  MIQ B 502      -6.670 -22.196  -8.973  1.00142.86     0.046 A 
HETATM    5  C5  MIQ B 502      -6.085 -23.199  -9.788  1.00139.53     0.031 A 
HETATM    6  C12 MIQ B 502      -5.333 -22.818 -10.974  1.00139.38     0.030 A 
HETATM    7  C13 MIQ B 502      -5.188 -21.445 -11.311  1.00141.18     0.019 A 
HETATM    8  C14 MIQ B 502      -5.806 -20.397 -10.453  1.00138.77     0.033 A 
HETATM    9  C15 MIQ B 502      -5.866 -18.835 -10.497  1.00142.10     0.195 A 
HETATM   10  N17 MIQ B 502      -6.575 -18.467  -9.443  1.00139.42    -0.288 N 
HETATM   11  O16 MIQ B 502      -5.286 -18.003 -11.456  1.00148.93    -0.171 OA
ENDROOT
BRANCH  10  12
HETATM   12  C18 MIQ B 502      -6.826 -17.068  -9.150  1.00139.82     0.187 C 
HETATM   13  C19 MIQ B 502      -6.390 -16.807  -7.703  1.00140.06     0.247 C 
HETATM   14  O25 MIQ B 502      -5.313 -17.143  -7.357  1.00143.95    -0.271 OA
HETATM   15  N20 MIQ B 502      -7.262 -16.153  -6.749  1.00140.02    -0.296 N 
HETATM   16  H13 MIQ B 502      -6.968 -15.995  -5.805  1.00142.77     0.171 HD
HETATM   17  C21 MIQ B 502      -8.575 -15.762  -7.192  1.00142.22     0.224 C 
HETATM   18  C22 MIQ B 502      -9.240 -16.655  -8.222  1.00139.52     0.106 C 
HETATM   19  O24 MIQ B 502      -9.104 -14.790  -6.777  1.00146.13    -0.273 OA
HETATM   20  C23 MIQ B 502      -8.293 -16.726  -9.407  1.00139.15     0.045 C 
ENDBRANCH  10  12
BRANCH   5  21
HETATM   21  N6  MIQ B 502      -6.229 -24.597  -9.425  1.00140.95    -0.377 N 
HETATM   22  C7  MIQ B 502      -6.379 -24.938  -8.021  1.00142.12     0.149 C 
HETATM   23  C8  MIQ B 502      -5.883 -26.347  -7.722  1.00144.10     0.187 C 
HETATM   24  O9  MIQ B 502      -6.369 -27.297  -8.623  1.00148.65    -0.388 OA
HETATM   25  C10 MIQ B 502      -7.038 -26.896  -9.782  1.00147.44     0.187 C 
HETATM   26  C11 MIQ B 502      -6.657 -25.564 -10.420  1.00144.08     0.149 C 
ENDBRANCH   5  21
TORSDOF 2
ENDMDL
MODEL 8
REMARK VINA RESULT:      -5.8     15.613     16.601
REMARK  2 active torsions:
REMARK  status: ('A' for Active; 'I' for Inactive)
REMARK    1  A    between atoms: C5_5  and  N6_21 
REMARK    2  A    between atoms: C18_14  and  N17_19 
ROOT
HETATM    1  O1  MIQ B 502      -8.149 -19.108  -7.414  1.00142.91    -0.171 OA
HETATM    2  C2  MIQ B 502      -7.181 -18.910  -8.401  1.00141.17     0.195 A 
HETATM    3  C3  MIQ B 502      -6.599 -20.002  -9.354  1.00141.71     0.035 A 
HETATM    4  C4  MIQ B 502      -6.851 -21.453  -9.516  1.00142.86     0.046 A 
HETATM    5  C5  MIQ B 502      -6.149 -22.198 -10.497  1.00139.53     0.031 A 
HETATM    6  C12 MIQ B 502      -5.175 -21.532 -11.350  1.00139.38     0.030 A 
HETATM    7  C13 MIQ B 502      -4.934 -20.140 -11.196  1.00141.18     0.019 A 
HETATM    8  C14 MIQ B 502      -5.676 -19.363 -10.166  1.00138.77     0.033 A 
HETATM    9  C15 MIQ B 502      -5.686 -17.866  -9.714  1.00142.10     0.195 A 
HETATM   10  N17 MIQ B 502      -6.571 -17.786  -8.735  1.00139.42    -0.288 N 
HETATM   11  O16 MIQ B 502      -4.913 -16.829 -10.240  1.00148.93    -0.171 OA
ENDROOT
BRANCH  10  12
HETATM   12  C18 MIQ B 502      -6.837 -16.532  -8.055  1.00139.82     0.187 C 
HETATM   13  C19 MIQ B 502      -6.683 -16.774  -6.549  1.00140.06     0.247 C 
HETATM   14  O25 MIQ B 502      -5.704 -17.294  -6.147  1.00143.95    -0.271 OA
HETATM   15  N20 MIQ B 502      -7.706 -16.377  -5.603  1.00140.02    -0.296 N 
HETATM   16  H13 MIQ B 502      -7.596 -16.548  -4.622  1.00142.77     0.171 HD
HETATM   17  C21 MIQ B 502      -8.897 -15.754  -6.119  1.00142.22     0.224 C 
HETATM   18  C22 MIQ B 502      -9.373 -16.219  -7.482  1.00139.52     0.106 C 
HETATM   19  O24 MIQ B 502      -9.470 -14.918  -5.511  1.00146.13    -0.273 OA
HETATM   20  C23 MIQ B 502      -8.217 -16.000  -8.440  1.00139.15     0.045 C 
ENDBRANCH  10  12
BRANCH   5  21
HETATM   21  N6  MIQ B 502      -6.396 -23.622 -10.634  1.00140.95    -0.377 N 
HETATM   22  C7  MIQ B 502      -5.937 -24.293 -11.838  1.00142.12     0.149 C 
HETATM   23  C8  MIQ B 502      -6.772 -25.527 -12.154  1.00144.10     0.187 C 
HETATM   24  O9  MIQ B 502      -6.961 -26.354 -11.045  1.00148.65    -0.388 OA
HETATM   25  C10 MIQ B 502      -6.599 -25.918  -9.768  1.00147.44     0.187 C 
HETATM   26  C11 MIQ B 502      -6.673 -24.427  -9.458  1.00144.08     0.149 C 
ENDBRANCH   5  21
TORSDOF 2
ENDMDL
MODEL 9
REMARK VINA RESULT:      -5.7     10.516     15.980
REMARK  2 active torsions:
REMARK  status: ('A' for Active; 'I' for Inactive)
REMARK    1  A    between atoms: C5_5  and  N6_21 
REMARK    2  A    between atoms: C18_14  and  N17_19 
ROOT
HETATM    1  O1  MIQ B 502       1.653 -29.721 -16.818  1.00142.91    -0.171 OA
HETATM    2  C2  MIQ B 502       1.690 -29.129 -15.554  1.00141.17     0.195 A 
HETATM    3  C3  MIQ B 502       2.239 -27.706 -15.218  1.00141.71     0.035 A 
HETATM    4  C4  MIQ B 502       2.835 -26.624 -16.037  1.00142.86     0.046 A 
HETATM    5  C5  MIQ B 502       3.248 -25.411 -15.431  1.00139.53     0.031 A 
HETATM    6  C12 MIQ B 502       3.084 -25.227 -13.996  1.00139.38     0.030 A 
HETATM    7  C13 MIQ B 502       2.511 -26.264 -13.211  1.00141.18     0.019 A 
HETATM    8  C14 MIQ B 502       2.077 -27.534 -13.853  1.00138.77     0.033 A 
HETATM    9  C15 MIQ B 502       1.423 -28.858 -13.339  1.00142.10     0.195 A 
HETATM   10  N17 MIQ B 502       1.274 -29.630 -14.403  1.00139.42    -0.288 N 
HETATM   11  O16 MIQ B 502       1.073 -29.161 -12.022  1.00148.93    -0.171 OA
ENDROOT
BRANCH  10  12
HETATM   12  C18 MIQ B 502       0.705 -30.960 -14.300  1.00139.82     0.187 C 
HETATM   13  C19 MIQ B 502      -0.603 -30.850 -13.508  1.00140.06     0.247 C 
HETATM   14  O25 MIQ B 502      -1.407 -30.051 -13.833  1.00143.95    -0.271 OA
HETATM   15  N20 MIQ B 502      -0.882 -31.705 -12.372  1.00140.02    -0.296 N 
HETATM   16  H13 MIQ B 502      -1.737 -31.618 -11.859  1.00142.77     0.171 HD
HETATM   17  C21 MIQ B 502       0.120 -32.665 -11.988  1.00142.22     0.224 C 
HETATM   18  C22 MIQ B 502       1.567 -32.261 -12.197  1.00139.52     0.106 C 
HETATM   19  O24 MIQ B 502      -0.173 -33.718 -11.538  1.00146.13    -0.273 OA
HETATM   20  C23 MIQ B 502       1.711 -31.922 -13.669  1.00139.15     0.045 C 
ENDBRANCH  10  12
BRANCH   5  21
HETATM   21  N6  MIQ B 502       3.845 -24.366 -16.243  1.00140.95    -0.377 N 
HETATM   22  C7  MIQ B 502       5.274 -24.131 -16.132  1.00142.12     0.149 C 
HETATM   23  C8  MIQ B 502       5.644 -22.696 -16.486  1.00144.10     0.187 C 
HETATM   24  O9  MIQ B 502       5.058 -22.262 -17.677  1.00148.65    -0.388 OA
HETATM   25  C10 MIQ B 502       4.068 -23.026 -18.298  1.00147.44     0.187 C 
HETATM   26  C11 MIQ B 502       3.156 -23.886 -17.428  1.00144.08     0.149 C 
ENDBRANCH   5  21
TORSDOF 2
ENDMDL
