MODEL 1
REMARK VINA RESULT:      -8.2      0.000      0.000
REMARK  2 active torsions:
REMARK  status: ('A' for Active; 'I' for Inactive)
REMARK    1  A    between atoms: C5_5  and  N6_21 
REMARK    2  A    between atoms: C18_14  and  N17_19 
ROOT
HETATM    1  O1  MIQ B 502      -4.678   3.217  -3.015  1.00142.91    -0.171 OA
HETATM    2  C2  MIQ B 502      -6.036   3.470  -2.805  1.00141.17     0.195 A 
HETATM    3  C3  MIQ B 502      -7.118   2.418  -2.403  1.00141.71     0.035 A 
HETATM    4  C4  MIQ B 502      -7.073   0.961  -2.135  1.00142.86     0.046 A 
HETATM    5  C5  MIQ B 502      -8.254   0.261  -1.779  1.00139.53     0.031 A 
HETATM    6  C12 MIQ B 502      -9.516   0.979  -1.676  1.00139.38     0.030 A 
HETATM    7  C13 MIQ B 502      -9.559   2.376  -1.931  1.00141.18     0.019 A 
HETATM    8  C14 MIQ B 502      -8.316   3.106  -2.302  1.00138.77     0.033 A 
HETATM    9  C15 MIQ B 502      -7.976   4.593  -2.644  1.00142.10     0.195 A 
HETATM   10  N17 MIQ B 502      -6.677   4.622  -2.894  1.00139.42    -0.288 N 
HETATM   11  O16 MIQ B 502      -8.866   5.668  -2.679  1.00148.93    -0.171 OA
ENDROOT
BRANCH  10  12
HETATM   12  C18 MIQ B 502      -6.005   5.853  -3.267  1.00139.82     0.187 C 
HETATM   13  C19 MIQ B 502      -6.270   6.883  -2.162  1.00140.06     0.247 C 
HETATM   14  O25 MIQ B 502      -6.061   6.590  -1.039  1.00143.95    -0.271 OA
HETATM   15  N20 MIQ B 502      -6.765   8.212  -2.460  1.00140.02    -0.296 N 
HETATM   16  H13 MIQ B 502      -6.940   8.873  -1.730  1.00142.77     0.171 HD
HETATM   17  C21 MIQ B 502      -7.022   8.542  -3.838  1.00142.22     0.224 C 
HETATM   18  C22 MIQ B 502      -7.513   7.417  -4.729  1.00139.52     0.106 C 
HETATM   19  O24 MIQ B 502      -6.854   9.636  -4.253  1.00146.13    -0.273 OA
HETATM   20  C23 MIQ B 502      -6.471   6.317  -4.646  1.00139.15     0.045 C 
ENDBRANCH  10  12
BRANCH   5  21
HETATM   21  N6  MIQ B 502      -8.198  -1.169  -1.534  1.00140.95    -0.377 N 
HETATM   22  C7  MIQ B 502      -7.265  -1.970  -2.306  1.00142.12     0.149 C 
HETATM   23  C8  MIQ B 502      -7.730  -3.415  -2.439  1.00144.10     0.187 C 
HETATM   24  O9  MIQ B 502      -8.129  -3.971  -1.223  1.00148.65    -0.388 OA
HETATM   25  C10 MIQ B 502      -8.284  -3.164  -0.092  1.00147.44     0.187 C 
HETATM   26  C11 MIQ B 502      -8.706  -1.711  -0.286  1.00144.08     0.149 C 
ENDBRANCH   5  21
TORSDOF 2
ENDMDL
MODEL 2
REMARK VINA RESULT:      -7.9      1.177      1.233
REMARK  2 active torsions:
REMARK  status: ('A' for Active; 'I' for Inactive)
REMARK    1  A    between atoms: C5_5  and  N6_21 
REMARK    2  A    between atoms: C18_14  and  N17_19 
ROOT
HETATM    1  O1  MIQ B 502      -6.059   2.954  -4.381  1.00142.91    -0.171 OA
HETATM    2  C2  MIQ B 502      -7.204   3.191  -3.617  1.00141.17     0.195 A 
HETATM    3  C3  MIQ B 502      -7.965   2.142  -2.745  1.00141.71     0.035 A 
HETATM    4  C4  MIQ B 502      -7.750   0.703  -2.464  1.00142.86     0.046 A 
HETATM    5  C5  MIQ B 502      -8.634   0.001  -1.606  1.00139.53     0.031 A 
HETATM    6  C12 MIQ B 502      -9.758   0.698  -0.998  1.00139.38     0.030 A 
HETATM    7  C13 MIQ B 502      -9.964   2.078  -1.267  1.00141.18     0.019 A 
HETATM    8  C14 MIQ B 502      -9.032   2.811  -2.167  1.00138.77     0.033 A 
HETATM    9  C15 MIQ B 502      -8.932   4.284  -2.682  1.00142.10     0.195 A 
HETATM   10  N17 MIQ B 502      -7.869   4.325  -3.468  1.00139.42    -0.288 N 
HETATM   11  O16 MIQ B 502      -9.794   5.338  -2.374  1.00148.93    -0.171 OA
ENDROOT
BRANCH  10  12
HETATM   12  C18 MIQ B 502      -7.473   5.546  -4.144  1.00139.82     0.187 C 
HETATM   13  C19 MIQ B 502      -7.215   6.612  -3.071  1.00140.06     0.247 C 
HETATM   14  O25 MIQ B 502      -6.501   6.357  -2.167  1.00143.95    -0.271 OA
HETATM   15  N20 MIQ B 502      -7.819   7.926  -3.140  1.00140.02    -0.296 N 
HETATM   16  H13 MIQ B 502      -7.648   8.611  -2.430  1.00142.77     0.171 HD
HETATM   17  C21 MIQ B 502      -8.695   8.209  -4.248  1.00142.22     0.224 C 
HETATM   18  C22 MIQ B 502      -9.520   7.052  -4.777  1.00139.52     0.106 C 
HETATM   19  O24 MIQ B 502      -8.761   9.290  -4.722  1.00146.13    -0.273 OA
HETATM   20  C23 MIQ B 502      -8.536   5.961  -5.160  1.00139.15     0.045 C 
ENDBRANCH  10  12
BRANCH   5  21
HETATM   21  N6  MIQ B 502      -8.419  -1.412  -1.351  1.00140.95    -0.377 N 
HETATM   22  C7  MIQ B 502      -7.456  -2.127  -2.169  1.00142.12     0.149 C 
HETATM   23  C8  MIQ B 502      -7.779  -3.613  -2.261  1.00144.10     0.187 C 
HETATM   24  O9  MIQ B 502      -8.049  -4.188  -1.017  1.00148.65    -0.388 OA
HETATM   25  C10 MIQ B 502      -8.220  -3.384   0.112  1.00147.44     0.187 C 
HETATM   26  C11 MIQ B 502      -8.797  -1.983  -0.070  1.00144.08     0.149 C 
ENDBRANCH   5  21
TORSDOF 2
ENDMDL
MODEL 3
REMARK VINA RESULT:      -7.8      3.871      6.820
REMARK  2 active torsions:
REMARK  status: ('A' for Active; 'I' for Inactive)
REMARK    1  A    between atoms: C5_5  and  N6_21 
REMARK    2  A    between atoms: C18_14  and  N17_19 
ROOT
HETATM    1  O1  MIQ B 502      -8.901   2.555  -2.002  1.00142.91    -0.171 OA
HETATM    2  C2  MIQ B 502      -8.558   3.875  -2.304  1.00141.17     0.195 A 
HETATM    3  C3  MIQ B 502      -9.478   4.934  -2.991  1.00141.71     0.035 A 
HETATM    4  C4  MIQ B 502     -10.872   4.899  -3.495  1.00142.86     0.046 A 
HETATM    5  C5  MIQ B 502     -11.450   6.052  -4.084  1.00139.53     0.031 A 
HETATM    6  C12 MIQ B 502     -10.669   7.276  -4.194  1.00139.38     0.030 A 
HETATM    7  C13 MIQ B 502      -9.333   7.310  -3.710  1.00141.18     0.019 A 
HETATM    8  C14 MIQ B 502      -8.733   6.097  -3.090  1.00138.77     0.033 A 
HETATM    9  C15 MIQ B 502      -7.342   5.759  -2.460  1.00142.10     0.195 A 
HETATM   10  N17 MIQ B 502      -7.413   4.496  -2.074  1.00139.42    -0.288 N 
HETATM   11  O16 MIQ B 502      -6.249   6.619  -2.336  1.00148.93    -0.171 OA
ENDROOT
BRANCH  10  12
HETATM   12  C18 MIQ B 502      -6.284   3.829  -1.453  1.00139.82     0.187 C 
HETATM   13  C19 MIQ B 502      -5.880   4.646  -0.219  1.00140.06     0.247 C 
HETATM   14  O25 MIQ B 502      -6.704   4.943   0.570  1.00143.95    -0.271 OA
HETATM   15  N20 MIQ B 502      -4.510   5.058   0.008  1.00140.02    -0.296 N 
HETATM   16  H13 MIQ B 502      -4.260   5.596   0.814  1.00142.77     0.171 HD
HETATM   17  C21 MIQ B 502      -3.523   4.691  -0.975  1.00142.22     0.224 C 
HETATM   18  C22 MIQ B 502      -3.987   4.635  -2.418  1.00139.52     0.106 C 
HETATM   19  O24 MIQ B 502      -2.409   4.442  -0.669  1.00146.13    -0.273 OA
HETATM   20  C23 MIQ B 502      -5.148   3.658  -2.460  1.00139.15     0.045 C 
ENDBRANCH  10  12
BRANCH   5  21
HETATM   21  N6  MIQ B 502     -12.810   5.999  -4.586  1.00140.95    -0.377 N 
HETATM   22  C7  MIQ B 502     -13.821   5.329  -3.786  1.00142.12     0.149 C 
HETATM   23  C8  MIQ B 502     -14.958   4.788  -4.643  1.00144.10     0.187 C 
HETATM   24  O9  MIQ B 502     -15.445   5.726  -5.555  1.00148.65    -0.388 OA
HETATM   25  C10 MIQ B 502     -14.762   6.926  -5.769  1.00147.44     0.187 C 
HETATM   26  C11 MIQ B 502     -13.246   6.943  -5.601  1.00144.08     0.149 C 
ENDBRANCH   5  21
TORSDOF 2
ENDMDL
MODEL 4
REMARK VINA RESULT:      -7.7      1.647      2.262
REMARK  2 active torsions:
REMARK  status: ('A' for Active; 'I' for Inactive)
REMARK    1  A    between atoms: C5_5  and  N6_21 
REMARK    2  A    between atoms: C18_14  and  N17_19 
ROOT
HETATM    1  O1  MIQ B 502      -7.410   3.266  -4.053  1.00142.91    -0.171 OA
HETATM    2  C2  MIQ B 502      -7.370   3.098  -2.667  1.00141.17     0.195 A 
HETATM    3  C3  MIQ B 502      -7.444   1.739  -1.901  1.00141.71     0.035 A 
HETATM    4  C4  MIQ B 502      -7.564   0.328  -2.337  1.00142.86     0.046 A 
HETATM    5  C5  MIQ B 502      -7.606  -0.717  -1.381  1.00139.53     0.031 A 
HETATM    6  C12 MIQ B 502      -7.529  -0.401   0.039  1.00139.38     0.030 A 
HETATM    7  C13 MIQ B 502      -7.412   0.952   0.458  1.00141.18     0.019 A 
HETATM    8  C14 MIQ B 502      -7.367   2.045  -0.552  1.00138.77     0.033 A 
HETATM    9  C15 MIQ B 502      -7.244   3.602  -0.480  1.00142.10     0.195 A 
HETATM   10  N17 MIQ B 502      -7.259   4.027  -1.733  1.00139.42    -0.288 N 
HETATM   11  O16 MIQ B 502      -7.144   4.380   0.674  1.00148.93    -0.171 OA
ENDROOT
BRANCH  10  12
HETATM   12  C18 MIQ B 502      -7.178   5.440  -2.054  1.00139.82     0.187 C 
HETATM   13  C19 MIQ B 502      -8.375   5.785  -2.949  1.00140.06     0.247 C 
HETATM   14  O25 MIQ B 502      -9.460   5.473  -2.606  1.00143.95    -0.271 OA
HETATM   15  N20 MIQ B 502      -8.212   6.490  -4.204  1.00140.02    -0.296 N 
HETATM   16  H13 MIQ B 502      -9.001   6.704  -4.782  1.00142.77     0.171 HD
HETATM   17  C21 MIQ B 502      -6.877   6.852  -4.606  1.00142.22     0.224 C 
HETATM   18  C22 MIQ B 502      -5.765   5.899  -4.211  1.00139.52     0.106 C 
HETATM   19  O24 MIQ B 502      -6.661   7.845  -5.210  1.00146.13    -0.273 OA
HETATM   20  C23 MIQ B 502      -5.832   5.762  -2.701  1.00139.15     0.045 C 
ENDBRANCH  10  12
BRANCH   5  21
HETATM   21  N6  MIQ B 502      -7.739  -2.094  -1.822  1.00140.95    -0.377 N 
HETATM   22  C7  MIQ B 502      -7.170  -2.470  -3.105  1.00142.12     0.149 C 
HETATM   23  C8  MIQ B 502      -7.894  -3.660  -3.721  1.00144.10     0.187 C 
HETATM   24  O9  MIQ B 502      -8.078  -4.710  -2.819  1.00148.65    -0.388 OA
HETATM   25  C10 MIQ B 502      -7.816  -4.528  -1.458  1.00147.44     0.187 C 
HETATM   26  C11 MIQ B 502      -8.016  -3.142  -0.856  1.00144.08     0.149 C 
ENDBRANCH   5  21
TORSDOF 2
ENDMDL
MODEL 5
REMARK VINA RESULT:      -7.5      4.370      6.513
REMARK  2 active torsions:
REMARK  status: ('A' for Active; 'I' for Inactive)
REMARK    1  A    between atoms: C5_5  and  N6_21 
REMARK    2  A    between atoms: C18_14  and  N17_19 
ROOT
HETATM    1  O1  MIQ B 502      -8.216   4.410  -1.595  1.00142.91    -0.171 OA
HETATM    2  C2  MIQ B 502      -8.473   5.324  -2.620  1.00141.17     0.195 A 
HETATM    3  C3  MIQ B 502      -9.874   5.671  -3.217  1.00141.71     0.035 A 
HETATM    4  C4  MIQ B 502     -11.250   5.202  -2.926  1.00142.86     0.046 A 
HETATM    5  C5  MIQ B 502     -12.352   5.717  -3.655  1.00139.53     0.031 A 
HETATM    6  C12 MIQ B 502     -12.129   6.713  -4.694  1.00139.38     0.030 A 
HETATM    7  C13 MIQ B 502     -10.810   7.164  -4.971  1.00141.18     0.019 A 
HETATM    8  C14 MIQ B 502      -9.658   6.621  -4.201  1.00138.77     0.033 A 
HETATM    9  C15 MIQ B 502      -8.113   6.866  -4.216  1.00142.10     0.195 A 
HETATM   10  N17 MIQ B 502      -7.610   6.075  -3.283  1.00139.42    -0.288 N 
HETATM   11  O16 MIQ B 502      -7.413   7.740  -5.049  1.00148.93    -0.171 OA
ENDROOT
BRANCH  10  12
HETATM   12  C18 MIQ B 502      -6.183   6.024  -3.022  1.00139.82     0.187 C 
HETATM   13  C19 MIQ B 502      -5.737   4.562  -3.141  1.00140.06     0.247 C 
HETATM   14  O25 MIQ B 502      -6.031   3.947  -4.105  1.00143.95    -0.271 OA
HETATM   15  N20 MIQ B 502      -4.959   3.913  -2.106  1.00140.02    -0.296 N 
HETATM   16  H13 MIQ B 502      -4.680   2.956  -2.193  1.00142.77     0.171 HD
HETATM   17  C21 MIQ B 502      -4.622   4.681  -0.935  1.00142.22     0.224 C 
HETATM   18  C22 MIQ B 502      -5.639   5.710  -0.479  1.00139.52     0.106 C 
HETATM   19  O24 MIQ B 502      -3.601   4.518  -0.362  1.00146.13    -0.273 OA
HETATM   20  C23 MIQ B 502      -5.870   6.638  -1.658  1.00139.15     0.045 C 
ENDBRANCH  10  12
BRANCH   5  21
HETATM   21  N6  MIQ B 502     -13.692   5.238  -3.370  1.00140.95    -0.377 N 
HETATM   22  C7  MIQ B 502     -14.686   5.286  -4.429  1.00142.12     0.149 C 
HETATM   23  C8  MIQ B 502     -16.102   5.387  -3.875  1.00144.10     0.187 C 
HETATM   24  O9  MIQ B 502     -16.355   4.462  -2.860  1.00148.65    -0.388 OA
HETATM   25  C10 MIQ B 502     -15.311   3.720  -2.301  1.00147.44     0.187 C 
HETATM   26  C11 MIQ B 502     -13.920   4.344  -2.249  1.00144.08     0.149 C 
ENDBRANCH   5  21
TORSDOF 2
ENDMDL
MODEL 6
REMARK VINA RESULT:      -7.5      1.874      2.365
REMARK  2 active torsions:
REMARK  status: ('A' for Active; 'I' for Inactive)
REMARK    1  A    between atoms: C5_5  and  N6_21 
REMARK    2  A    between atoms: C18_14  and  N17_19 
ROOT
HETATM    1  O1  MIQ B 502      -6.127   2.857  -4.360  1.00142.91    -0.171 OA
HETATM    2  C2  MIQ B 502      -7.273   3.092  -3.597  1.00141.17     0.195 A 
HETATM    3  C3  MIQ B 502      -8.027   2.043  -2.718  1.00141.71     0.035 A 
HETATM    4  C4  MIQ B 502      -7.802   0.607  -2.428  1.00142.86     0.046 A 
HETATM    5  C5  MIQ B 502      -8.681  -0.095  -1.565  1.00139.53     0.031 A 
HETATM    6  C12 MIQ B 502      -9.809   0.599  -0.961  1.00139.38     0.030 A 
HETATM    7  C13 MIQ B 502     -10.024   1.976  -1.239  1.00141.18     0.019 A 
HETATM    8  C14 MIQ B 502      -9.097   2.709  -2.143  1.00138.77     0.033 A 
HETATM    9  C15 MIQ B 502      -9.007   4.179  -2.668  1.00142.10     0.195 A 
HETATM   10  N17 MIQ B 502      -7.945   4.222  -3.455  1.00139.42    -0.288 N 
HETATM   11  O16 MIQ B 502      -9.876   5.229  -2.366  1.00148.93    -0.171 OA
ENDROOT
BRANCH  10  12
HETATM   12  C18 MIQ B 502      -7.557   5.441  -4.139  1.00139.82     0.187 C 
HETATM   13  C19 MIQ B 502      -7.683   5.193  -5.647  1.00140.06     0.247 C 
HETATM   14  O25 MIQ B 502      -8.688   4.748  -6.075  1.00143.95    -0.271 OA
HETATM   15  N20 MIQ B 502      -6.602   5.494  -6.563  1.00140.02    -0.296 N 
HETATM   16  H13 MIQ B 502      -6.695   5.321  -7.545  1.00142.77     0.171 HD
HETATM   17  C21 MIQ B 502      -5.381   6.025  -6.015  1.00142.22     0.224 C 
HETATM   18  C22 MIQ B 502      -4.987   5.541  -4.633  1.00139.52     0.106 C 
HETATM   19  O24 MIQ B 502      -4.724   6.805  -6.612  1.00146.13    -0.273 OA
HETATM   20  C23 MIQ B 502      -6.151   5.865  -3.714  1.00139.15     0.045 C 
ENDBRANCH  10  12
BRANCH   5  21
HETATM   21  N6  MIQ B 502      -8.457  -1.505  -1.301  1.00140.95    -0.377 N 
HETATM   22  C7  MIQ B 502      -7.509  -2.226  -2.132  1.00142.12     0.149 C 
HETATM   23  C8  MIQ B 502      -7.830  -3.713  -2.203  1.00144.10     0.187 C 
HETATM   24  O9  MIQ B 502      -8.072  -4.277  -0.949  1.00148.65    -0.388 OA
HETATM   25  C10 MIQ B 502      -8.222  -3.462   0.176  1.00147.44     0.187 C 
HETATM   26  C11 MIQ B 502      -8.806  -2.065  -0.007  1.00144.08     0.149 C 
ENDBRANCH   5  21
TORSDOF 2
ENDMDL
MODEL 7
REMARK VINA RESULT:      -7.4      4.215      7.081
REMARK  2 active torsions:
REMARK  status: ('A' for Active; 'I' for Inactive)
REMARK    1  A    between atoms: C5_5  and  N6_21 
REMARK    2  A    between atoms: C18_14  and  N17_19 
ROOT
HETATM    1  O1  MIQ B 502      -8.976   2.187  -4.547  1.00142.91    -0.171 OA
HETATM    2  C2  MIQ B 502      -8.632   3.541  -4.571  1.00141.17     0.195 A 
HETATM    3  C3  MIQ B 502      -9.628   4.744  -4.589  1.00141.71     0.035 A 
HETATM    4  C4  MIQ B 502     -11.107   4.844  -4.585  1.00142.86     0.046 A 
HETATM    5  C5  MIQ B 502     -11.739   6.112  -4.605  1.00139.53     0.031 A 
HETATM    6  C12 MIQ B 502     -10.931   7.323  -4.629  1.00139.38     0.030 A 
HETATM    7  C13 MIQ B 502      -9.513   7.228  -4.631  1.00141.18     0.019 A 
HETATM    8  C14 MIQ B 502      -8.854   5.893  -4.608  1.00138.77     0.033 A 
HETATM    9  C15 MIQ B 502      -7.371   5.400  -4.600  1.00142.10     0.195 A 
HETATM   10  N17 MIQ B 502      -7.425   4.079  -4.577  1.00139.42    -0.288 N 
HETATM   11  O16 MIQ B 502      -6.225   6.198  -4.618  1.00148.93    -0.171 OA
ENDROOT
BRANCH  10  12
HETATM   12  C18 MIQ B 502      -6.220   3.271  -4.579  1.00139.82     0.187 C 
HETATM   13  C19 MIQ B 502      -5.295   3.808  -3.479  1.00140.06     0.247 C 
HETATM   14  O25 MIQ B 502      -5.722   3.958  -2.390  1.00143.95    -0.271 OA
HETATM   15  N20 MIQ B 502      -3.907   4.130  -3.739  1.00140.02    -0.296 N 
HETATM   16  H13 MIQ B 502      -3.315   4.486  -3.014  1.00142.77     0.171 HD
HETATM   17  C21 MIQ B 502      -3.411   3.948  -5.079  1.00142.22     0.224 C 
HETATM   18  C22 MIQ B 502      -4.392   4.200  -6.208  1.00139.52     0.106 C 
HETATM   19  O24 MIQ B 502      -2.297   3.614  -5.285  1.00146.13    -0.273 OA
HETATM   20  C23 MIQ B 502      -5.575   3.281  -5.964  1.00139.15     0.045 C 
ENDBRANCH  10  12
BRANCH   5  21
HETATM   21  N6  MIQ B 502     -13.189   6.195  -4.616  1.00140.95    -0.377 N 
HETATM   22  C7  MIQ B 502     -13.842   6.785  -5.772  1.00142.12     0.149 C 
HETATM   23  C8  MIQ B 502     -15.195   7.386  -5.414  1.00144.10     0.187 C 
HETATM   24  O9  MIQ B 502     -15.989   6.525  -4.655  1.00148.65    -0.388 OA
HETATM   25  C10 MIQ B 502     -15.449   5.354  -4.117  1.00147.44     0.187 C 
HETATM   26  C11 MIQ B 502     -13.971   5.337  -3.743  1.00144.08     0.149 C 
ENDBRANCH   5  21
TORSDOF 2
ENDMDL
MODEL 8
REMARK VINA RESULT:      -7.4      4.872      7.082
REMARK  2 active torsions:
REMARK  status: ('A' for Active; 'I' for Inactive)
REMARK    1  A    between atoms: C5_5  and  N6_21 
REMARK    2  A    between atoms: C18_14  and  N17_19 
ROOT
HETATM    1  O1  MIQ B 502      -7.056   4.169  -5.832  1.00142.91    -0.171 OA
HETATM    2  C2  MIQ B 502      -7.373   5.348  -5.154  1.00141.17     0.195 A 
HETATM    3  C3  MIQ B 502      -8.804   5.946  -4.964  1.00141.71     0.035 A 
HETATM    4  C4  MIQ B 502     -10.155   5.510  -5.390  1.00142.86     0.046 A 
HETATM    5  C5  MIQ B 502     -11.296   6.284  -5.057  1.00139.53     0.031 A 
HETATM    6  C12 MIQ B 502     -11.137   7.513  -4.293  1.00139.38     0.030 A 
HETATM    7  C13 MIQ B 502      -9.842   7.931  -3.884  1.00141.18     0.019 A 
HETATM    8  C14 MIQ B 502      -8.648   7.113  -4.234  1.00138.77     0.033 A 
HETATM    9  C15 MIQ B 502      -7.113   7.240  -3.968  1.00142.10     0.195 A 
HETATM   10  N17 MIQ B 502      -6.555   6.185  -4.540  1.00139.42    -0.288 N 
HETATM   11  O16 MIQ B 502      -6.467   8.262  -3.271  1.00148.93    -0.171 OA
ENDROOT
BRANCH  10  12
HETATM   12  C18 MIQ B 502      -5.119   5.977  -4.508  1.00139.82     0.187 C 
HETATM   13  C19 MIQ B 502      -4.639   5.807  -5.954  1.00140.06     0.247 C 
HETATM   14  O25 MIQ B 502      -4.950   6.609  -6.762  1.00143.95    -0.271 OA
HETATM   15  N20 MIQ B 502      -3.808   4.692  -6.357  1.00140.02    -0.296 N 
HETATM   16  H13 MIQ B 502      -3.506   4.589  -7.306  1.00142.77     0.171 HD
HETATM   17  C21 MIQ B 502      -3.450   3.721  -5.355  1.00142.22     0.224 C 
HETATM   18  C22 MIQ B 502      -4.476   3.449  -4.272  1.00139.52     0.106 C 
HETATM   19  O24 MIQ B 502      -2.405   3.168  -5.375  1.00146.13    -0.273 OA
HETATM   20  C23 MIQ B 502      -4.774   4.785  -3.616  1.00139.15     0.045 C 
ENDBRANCH  10  12
BRANCH   5  21
HETATM   21  N6  MIQ B 502     -12.611   5.853  -5.493  1.00140.95    -0.377 N 
HETATM   22  C7  MIQ B 502     -13.672   5.755  -4.506  1.00142.12     0.149 C 
HETATM   23  C8  MIQ B 502     -14.731   4.736  -4.908  1.00144.10     0.187 C 
HETATM   24  O9  MIQ B 502     -15.157   4.887  -6.229  1.00148.65    -0.388 OA
HETATM   25  C10 MIQ B 502     -14.476   5.743  -7.098  1.00147.44     0.187 C 
HETATM   26  C11 MIQ B 502     -12.979   5.950  -6.895  1.00144.08     0.149 C 
ENDBRANCH   5  21
TORSDOF 2
ENDMDL
MODEL 9
REMARK VINA RESULT:      -7.3      1.522      2.307
REMARK  2 active torsions:
REMARK  status: ('A' for Active; 'I' for Inactive)
REMARK    1  A    between atoms: C5_5  and  N6_21 
REMARK    2  A    between atoms: C18_14  and  N17_19 
ROOT
HETATM    1  O1  MIQ B 502      -7.595   3.858  -0.109  1.00142.91    -0.171 OA
HETATM    2  C2  MIQ B 502      -7.536   3.449  -1.443  1.00141.17     0.195 A 
HETATM    3  C3  MIQ B 502      -7.554   1.974  -1.958  1.00141.71     0.035 A 
HETATM    4  C4  MIQ B 502      -7.635   0.659  -1.279  1.00142.86     0.046 A 
HETATM    5  C5  MIQ B 502      -7.632  -0.539  -2.036  1.00139.53     0.031 A 
HETATM    6  C12 MIQ B 502      -7.550  -0.477  -3.488  1.00139.38     0.030 A 
HETATM    7  C13 MIQ B 502      -7.474   0.784  -4.139  1.00141.18     0.019 A 
HETATM    8  C14 MIQ B 502      -7.480   2.039  -3.340  1.00138.77     0.033 A 
HETATM    9  C15 MIQ B 502      -7.416   3.563  -3.685  1.00142.10     0.195 A 
HETATM   10  N17 MIQ B 502      -7.459   4.202  -2.527  1.00139.42    -0.288 N 
HETATM   11  O16 MIQ B 502      -7.328   4.128  -4.958  1.00148.93    -0.171 OA
ENDROOT
BRANCH  10  12
HETATM   12  C18 MIQ B 502      -7.404   5.650  -2.459  1.00139.82     0.187 C 
HETATM   13  C19 MIQ B 502      -8.617   6.201  -3.220  1.00140.06     0.247 C 
HETATM   14  O25 MIQ B 502      -9.692   5.789  -2.964  1.00143.95    -0.271 OA
HETATM   15  N20 MIQ B 502      -8.480   7.219  -4.241  1.00140.02    -0.296 N 
HETATM   16  H13 MIQ B 502      -9.279   7.566  -4.735  1.00142.77     0.171 HD
HETATM   17  C21 MIQ B 502      -7.156   7.699  -4.542  1.00142.22     0.224 C 
HETATM   18  C22 MIQ B 502      -6.025   6.695  -4.425  1.00139.52     0.106 C 
HETATM   19  O24 MIQ B 502      -6.963   8.821  -4.860  1.00146.13    -0.273 OA
HETATM   20  C23 MIQ B 502      -6.071   6.158  -3.006  1.00139.15     0.045 C 
ENDBRANCH  10  12
BRANCH   5  21
HETATM   21  N6  MIQ B 502      -7.696  -1.821  -1.357  1.00140.95    -0.377 N 
HETATM   22  C7  MIQ B 502      -8.719  -2.020  -0.345  1.00142.12     0.149 C 
HETATM   23  C8  MIQ B 502      -8.303  -3.060   0.687  1.00144.10     0.187 C 
HETATM   24  O9  MIQ B 502      -7.799  -4.227   0.110  1.00148.65    -0.388 OA
HETATM   25  C10 MIQ B 502      -7.515  -4.275  -1.257  1.00147.44     0.187 C 
HETATM   26  C11 MIQ B 502      -7.081  -2.992  -1.957  1.00144.08     0.149 C 
ENDBRANCH   5  21
TORSDOF 2
ENDMDL
