MODEL 1
REMARK VINA RESULT:      -7.6      0.000      0.000
REMARK  2 active torsions:
REMARK  status: ('A' for Active; 'I' for Inactive)
REMARK    1  A    between atoms: C5_5  and  N6_21 
REMARK    2  A    between atoms: C18_14  and  N17_19 
ROOT
HETATM    1  O1  MIQ B 502     -11.833  17.089  -1.245  1.00142.91    -0.171 OA
HETATM    2  C2  MIQ B 502     -12.456  15.840  -1.214  1.00141.17     0.195 A 
HETATM    3  C3  MIQ B 502     -13.149  15.125  -2.418  1.00141.71     0.035 A 
HETATM    4  C4  MIQ B 502     -13.353  15.490  -3.840  1.00142.86     0.046 A 
HETATM    5  C5  MIQ B 502     -14.038  14.609  -4.714  1.00139.53     0.031 A 
HETATM    6  C12 MIQ B 502     -14.544  13.340  -4.212  1.00139.38     0.030 A 
HETATM    7  C13 MIQ B 502     -14.347  12.989  -2.849  1.00141.18     0.019 A 
HETATM    8  C14 MIQ B 502     -13.625  13.916  -1.936  1.00138.77     0.033 A 
HETATM    9  C15 MIQ B 502     -13.224  13.881  -0.425  1.00142.10     0.195 A 
HETATM   10  N17 MIQ B 502     -12.584  15.015  -0.190  1.00139.42    -0.288 N 
HETATM   11  O16 MIQ B 502     -13.492  12.858   0.487  1.00148.93    -0.171 OA
ENDROOT
BRANCH  10  12
HETATM   12  C18 MIQ B 502     -12.074  15.337   1.130  1.00139.82     0.187 C 
HETATM   13  C19 MIQ B 502     -11.163  14.185   1.573  1.00140.06     0.247 C 
HETATM   14  O25 MIQ B 502     -10.309  13.814   0.849  1.00143.95    -0.271 OA
HETATM   15  N20 MIQ B 502     -11.319  13.541   2.861  1.00140.02    -0.296 N 
HETATM   16  H13 MIQ B 502     -10.722  12.785   3.136  1.00142.77     0.171 HD
HETATM   17  C21 MIQ B 502     -12.376  14.003   3.724  1.00142.22     0.224 C 
HETATM   18  C22 MIQ B 502     -13.643  14.489   3.047  1.00139.52     0.106 C 
HETATM   19  O24 MIQ B 502     -12.256  14.008   4.899  1.00146.13    -0.273 OA
HETATM   20  C23 MIQ B 502     -13.227  15.598   2.097  1.00139.15     0.045 C 
ENDBRANCH  10  12
BRANCH   5  21
HETATM   21  N6  MIQ B 502     -14.244  14.986  -6.101  1.00140.95    -0.377 N 
HETATM   22  C7  MIQ B 502     -13.405  16.027  -6.670  1.00142.12     0.149 C 
HETATM   23  C8  MIQ B 502     -14.097  16.751  -7.817  1.00144.10     0.187 C 
HETATM   24  O9  MIQ B 502     -14.674  15.878  -8.742  1.00148.65    -0.388 OA
HETATM   25  C10 MIQ B 502     -14.774  14.513  -8.459  1.00147.44     0.187 C 
HETATM   26  C11 MIQ B 502     -14.928  14.078  -7.006  1.00144.08     0.149 C 
ENDBRANCH   5  21
TORSDOF 2
ENDMDL
MODEL 2
REMARK VINA RESULT:      -7.5      1.851      3.127
REMARK  2 active torsions:
REMARK  status: ('A' for Active; 'I' for Inactive)
REMARK    1  A    between atoms: C5_5  and  N6_21 
REMARK    2  A    between atoms: C18_14  and  N17_19 
ROOT
HETATM    1  O1  MIQ B 502     -15.394  12.065   0.731  1.00142.91    -0.171 OA
HETATM    2  C2  MIQ B 502     -14.218  12.811   0.634  1.00141.17     0.195 A 
HETATM    3  C3  MIQ B 502     -13.627  13.438  -0.669  1.00141.71     0.035 A 
HETATM    4  C4  MIQ B 502     -14.070  13.453  -2.083  1.00142.86     0.046 A 
HETATM    5  C5  MIQ B 502     -13.302  14.126  -3.067  1.00139.53     0.031 A 
HETATM    6  C12 MIQ B 502     -12.074  14.807  -2.685  1.00139.38     0.030 A 
HETATM    7  C13 MIQ B 502     -11.650  14.793  -1.328  1.00141.18     0.019 A 
HETATM    8  C14 MIQ B 502     -12.461  14.087  -0.299  1.00138.77     0.033 A 
HETATM    9  C15 MIQ B 502     -12.326  13.862   1.242  1.00142.10     0.195 A 
HETATM   10  N17 MIQ B 502     -13.377  13.142   1.599  1.00139.42    -0.288 N 
HETATM   11  O16 MIQ B 502     -11.301  14.327   2.068  1.00148.93    -0.171 OA
ENDROOT
BRANCH  10  12
HETATM   12  C18 MIQ B 502     -13.577  12.725   2.974  1.00139.82     0.187 C 
HETATM   13  C19 MIQ B 502     -13.486  13.974   3.860  1.00140.06     0.247 C 
HETATM   14  O25 MIQ B 502     -14.134  14.921   3.589  1.00143.95    -0.271 OA
HETATM   15  N20 MIQ B 502     -12.628  14.022   5.027  1.00140.02    -0.296 N 
HETATM   16  H13 MIQ B 502     -12.573  14.845   5.593  1.00142.77     0.171 HD
HETATM   17  C21 MIQ B 502     -11.839  12.857   5.332  1.00142.22     0.224 C 
HETATM   18  C22 MIQ B 502     -11.340  12.044   4.152  1.00139.52     0.106 C 
HETATM   19  O24 MIQ B 502     -11.598  12.548   6.447  1.00146.13    -0.273 OA
HETATM   20  C23 MIQ B 502     -12.567  11.644   3.354  1.00139.15     0.045 C 
ENDBRANCH  10  12
BRANCH   5  21
HETATM   21  N6  MIQ B 502     -13.740  14.120  -4.451  1.00140.95    -0.377 N 
HETATM   22  C7  MIQ B 502     -12.765  14.410  -5.489  1.00142.12     0.149 C 
HETATM   23  C8  MIQ B 502     -13.418  14.995  -6.735  1.00144.10     0.187 C 
HETATM   24  O9  MIQ B 502     -14.537  14.271  -7.153  1.00148.65    -0.388 OA
HETATM   25  C10 MIQ B 502     -15.081  13.276  -6.337  1.00147.44     0.187 C 
HETATM   26  C11 MIQ B 502     -14.959  13.425  -4.824  1.00144.08     0.149 C 
ENDBRANCH   5  21
TORSDOF 2
ENDMDL
MODEL 3
REMARK VINA RESULT:      -7.5      2.191      8.438
REMARK  2 active torsions:
REMARK  status: ('A' for Active; 'I' for Inactive)
REMARK    1  A    between atoms: C5_5  and  N6_21 
REMARK    2  A    between atoms: C18_14  and  N17_19 
ROOT
HETATM    1  O1  MIQ B 502     -14.465  13.374  -1.648  1.00142.91    -0.171 OA
HETATM    2  C2  MIQ B 502     -13.318  14.047  -1.222  1.00141.17     0.195 A 
HETATM    3  C3  MIQ B 502     -12.570  13.830   0.133  1.00141.71     0.035 A 
HETATM    4  C4  MIQ B 502     -12.800  12.934   1.291  1.00142.86     0.046 A 
HETATM    5  C5  MIQ B 502     -11.925  12.965   2.406  1.00139.53     0.031 A 
HETATM    6  C12 MIQ B 502     -10.795  13.883   2.412  1.00139.38     0.030 A 
HETATM    7  C13 MIQ B 502     -10.574  14.742   1.301  1.00141.18     0.019 A 
HETATM    8  C14 MIQ B 502     -11.494  14.703   0.132  1.00138.77     0.033 A 
HETATM    9  C15 MIQ B 502     -11.574  15.465  -1.230  1.00142.10     0.195 A 
HETATM   10  N17 MIQ B 502     -12.634  14.983  -1.858  1.00139.42    -0.288 N 
HETATM   11  O16 MIQ B 502     -10.702  16.455  -1.686  1.00148.93    -0.171 OA
ENDROOT
BRANCH  10  12
HETATM   12  C18 MIQ B 502     -13.031  15.476  -3.163  1.00139.82     0.187 C 
HETATM   13  C19 MIQ B 502     -14.509  15.876  -3.083  1.00140.06     0.247 C 
HETATM   14  O25 MIQ B 502     -14.866  16.592  -2.216  1.00143.95    -0.271 OA
HETATM   15  N20 MIQ B 502     -15.481  15.405  -4.048  1.00140.02    -0.296 N 
HETATM   16  H13 MIQ B 502     -16.445  15.668  -3.981  1.00142.77     0.171 HD
HETATM   17  C21 MIQ B 502     -15.024  14.524  -5.092  1.00142.22     0.224 C 
HETATM   18  C22 MIQ B 502     -13.901  13.570  -4.734  1.00139.52     0.106 C 
HETATM   19  O24 MIQ B 502     -15.498  14.550  -6.174  1.00146.13    -0.273 OA
HETATM   20  C23 MIQ B 502     -12.750  14.425  -4.236  1.00139.15     0.045 C 
ENDBRANCH  10  12
BRANCH   5  21
HETATM   21  N6  MIQ B 502     -12.170  12.092   3.539  1.00140.95    -0.377 N 
HETATM   22  C7  MIQ B 502     -11.687  12.501   4.847  1.00142.12     0.149 C 
HETATM   23  C8  MIQ B 502     -11.423  11.306   5.754  1.00144.10     0.187 C 
HETATM   24  O9  MIQ B 502     -12.476  10.389   5.766  1.00148.65    -0.388 OA
HETATM   25  C10 MIQ B 502     -13.521  10.499   4.845  1.00147.44     0.187 C 
HETATM   26  C11 MIQ B 502     -13.223  11.094   3.472  1.00144.08     0.149 C 
ENDBRANCH   5  21
TORSDOF 2
ENDMDL
MODEL 4
REMARK VINA RESULT:      -7.2      3.816      9.889
REMARK  2 active torsions:
REMARK  status: ('A' for Active; 'I' for Inactive)
REMARK    1  A    between atoms: C5_5  and  N6_21 
REMARK    2  A    between atoms: C18_14  and  N17_19 
ROOT
HETATM    1  O1  MIQ B 502     -15.392  12.863   2.510  1.00142.91    -0.171 OA
HETATM    2  C2  MIQ B 502     -14.001  12.813   2.628  1.00141.17     0.195 A 
HETATM    3  C3  MIQ B 502     -13.197  12.130   3.779  1.00141.71     0.035 A 
HETATM    4  C4  MIQ B 502     -13.595  11.386   4.998  1.00142.86     0.046 A 
HETATM    5  C5  MIQ B 502     -12.609  10.869   5.876  1.00139.53     0.031 A 
HETATM    6  C12 MIQ B 502     -11.198  11.071   5.578  1.00139.38     0.030 A 
HETATM    7  C13 MIQ B 502     -10.816  11.783   4.409  1.00141.18     0.019 A 
HETATM    8  C14 MIQ B 502     -11.856  12.321   3.490  1.00138.77     0.033 A 
HETATM    9  C15 MIQ B 502     -11.827  13.127   2.150  1.00142.10     0.195 A 
HETATM   10  N17 MIQ B 502     -13.092  13.313   1.809  1.00139.42    -0.288 N 
HETATM   11  O16 MIQ B 502     -10.694  13.561   1.460  1.00148.93    -0.171 OA
ENDROOT
BRANCH  10  12
HETATM   12  C18 MIQ B 502     -13.452  14.047   0.610  1.00139.82     0.187 C 
HETATM   13  C19 MIQ B 502     -12.679  13.434  -0.564  1.00140.06     0.247 C 
HETATM   14  O25 MIQ B 502     -12.719  12.267  -0.733  1.00143.95    -0.271 OA
HETATM   15  N20 MIQ B 502     -11.905  14.249  -1.477  1.00140.02    -0.296 N 
HETATM   16  H13 MIQ B 502     -11.399  13.836  -2.236  1.00142.77     0.171 HD
HETATM   17  C21 MIQ B 502     -11.863  15.670  -1.243  1.00142.22     0.224 C 
HETATM   18  C22 MIQ B 502     -11.911  16.124   0.203  1.00139.52     0.106 C 
HETATM   19  O24 MIQ B 502     -11.800  16.441  -2.136  1.00146.13    -0.273 OA
HETATM   20  C23 MIQ B 502     -13.179  15.538   0.797  1.00139.15     0.045 C 
ENDBRANCH  10  12
BRANCH   5  21
HETATM   21  N6  MIQ B 502     -13.013  10.155   7.074  1.00140.95    -0.377 N 
HETATM   22  C7  MIQ B 502     -14.424  10.119   7.418  1.00142.12     0.149 C 
HETATM   23  C8  MIQ B 502     -14.640   9.942   8.915  1.00144.10     0.187 C 
HETATM   24  O9  MIQ B 502     -13.867   8.915   9.458  1.00148.65    -0.388 OA
HETATM   25  C10 MIQ B 502     -12.856   8.315   8.703  1.00147.44     0.187 C 
HETATM   26  C11 MIQ B 502     -12.135   9.153   7.652  1.00144.08     0.149 C 
ENDBRANCH   5  21
TORSDOF 2
ENDMDL
MODEL 5
REMARK VINA RESULT:      -7.2      3.092      9.174
REMARK  2 active torsions:
REMARK  status: ('A' for Active; 'I' for Inactive)
REMARK    1  A    between atoms: C5_5  and  N6_21 
REMARK    2  A    between atoms: C18_14  and  N17_19 
ROOT
HETATM    1  O1  MIQ B 502     -12.253  12.669   0.105  1.00142.91    -0.171 OA
HETATM    2  C2  MIQ B 502     -13.124  13.308   0.990  1.00141.17     0.195 A 
HETATM    3  C3  MIQ B 502     -13.262  13.019   2.519  1.00141.71     0.035 A 
HETATM    4  C4  MIQ B 502     -12.587  12.077   3.443  1.00142.86     0.046 A 
HETATM    5  C5  MIQ B 502     -12.935  12.048   4.817  1.00139.53     0.031 A 
HETATM    6  C12 MIQ B 502     -13.961  12.949   5.322  1.00139.38     0.030 A 
HETATM    7  C13 MIQ B 502     -14.608  13.853   4.437  1.00141.18     0.019 A 
HETATM    8  C14 MIQ B 502     -14.236  13.881   2.995  1.00138.77     0.033 A 
HETATM    9  C15 MIQ B 502     -14.706  14.710   1.755  1.00142.10     0.195 A 
HETATM   10  N17 MIQ B 502     -13.992  14.271   0.732  1.00139.42    -0.288 N 
HETATM   11  O16 MIQ B 502     -15.683  15.706   1.738  1.00148.93    -0.171 OA
ENDROOT
BRANCH  10  12
HETATM   12  C18 MIQ B 502     -14.173  14.810  -0.604  1.00139.82     0.187 C 
HETATM   13  C19 MIQ B 502     -14.415  13.631  -1.554  1.00140.06     0.247 C 
HETATM   14  O25 MIQ B 502     -15.242  12.834  -1.285  1.00143.95    -0.271 OA
HETATM   15  N20 MIQ B 502     -13.659  13.470  -2.780  1.00140.02    -0.296 N 
HETATM   16  H13 MIQ B 502     -13.823  12.692  -3.388  1.00142.77     0.171 HD
HETATM   17  C21 MIQ B 502     -12.648  14.449  -3.081  1.00142.22     0.224 C 
HETATM   18  C22 MIQ B 502     -11.912  15.055  -1.902  1.00139.52     0.106 C 
HETATM   19  O24 MIQ B 502     -12.409  14.768  -4.194  1.00146.13    -0.273 OA
HETATM   20  C23 MIQ B 502     -12.970  15.664  -1.000  1.00139.15     0.045 C 
ENDBRANCH  10  12
BRANCH   5  21
HETATM   21  N6  MIQ B 502     -12.276  11.110   5.708  1.00140.95    -0.377 N 
HETATM   22  C7  MIQ B 502     -11.021  11.503   6.325  1.00142.12     0.149 C 
HETATM   23  C8  MIQ B 502     -10.155  10.298   6.669  1.00144.10     0.187 C 
HETATM   24  O9  MIQ B 502     -10.859   9.294   7.336  1.00148.65    -0.388 OA
HETATM   25  C10 MIQ B 502     -12.252   9.352   7.433  1.00147.44     0.187 C 
HETATM   26  C11 MIQ B 502     -13.034  10.028   6.312  1.00144.08     0.149 C 
ENDBRANCH   5  21
TORSDOF 2
ENDMDL
MODEL 6
REMARK VINA RESULT:      -7.2      2.147      3.379
REMARK  2 active torsions:
REMARK  status: ('A' for Active; 'I' for Inactive)
REMARK    1  A    between atoms: C5_5  and  N6_21 
REMARK    2  A    between atoms: C18_14  and  N17_19 
ROOT
HETATM    1  O1  MIQ B 502     -15.056  12.467   1.299  1.00142.91    -0.171 OA
HETATM    2  C2  MIQ B 502     -13.896  13.224   1.122  1.00141.17     0.195 A 
HETATM    3  C3  MIQ B 502     -13.340  13.757  -0.237  1.00141.71     0.035 A 
HETATM    4  C4  MIQ B 502     -13.807  13.652  -1.640  1.00142.86     0.046 A 
HETATM    5  C5  MIQ B 502     -13.070  14.259  -2.688  1.00139.53     0.031 A 
HETATM    6  C12 MIQ B 502     -11.848  14.990  -2.382  1.00139.38     0.030 A 
HETATM    7  C13 MIQ B 502     -11.400  15.091  -1.037  1.00141.18     0.019 A 
HETATM    8  C14 MIQ B 502     -12.180  14.454   0.059  1.00138.77     0.033 A 
HETATM    9  C15 MIQ B 502     -12.014  14.354   1.610  1.00142.10     0.195 A 
HETATM   10  N17 MIQ B 502     -13.045  13.646   2.043  1.00139.42    -0.288 N 
HETATM   11  O16 MIQ B 502     -10.985  14.900   2.378  1.00148.93    -0.171 OA
ENDROOT
BRANCH  10  12
HETATM   12  C18 MIQ B 502     -13.214  13.335   3.450  1.00139.82     0.187 C 
HETATM   13  C19 MIQ B 502     -13.411  11.819   3.574  1.00140.06     0.247 C 
HETATM   14  O25 MIQ B 502     -12.642  11.093   3.052  1.00143.95    -0.271 OA
HETATM   15  N20 MIQ B 502     -14.515  11.251   4.320  1.00140.02    -0.296 N 
HETATM   16  H13 MIQ B 502     -14.637  10.260   4.388  1.00142.77     0.171 HD
HETATM   17  C21 MIQ B 502     -15.448  12.158   4.940  1.00142.22     0.224 C 
HETATM   18  C22 MIQ B 502     -15.716  13.462   4.213  1.00139.52     0.106 C 
HETATM   19  O24 MIQ B 502     -15.972  11.898   5.966  1.00146.13    -0.273 OA
HETATM   20  C23 MIQ B 502     -14.370  14.142   4.038  1.00139.15     0.045 C 
ENDBRANCH  10  12
BRANCH   5  21
HETATM   21  N6  MIQ B 502     -13.530  14.136  -4.059  1.00140.95    -0.377 N 
HETATM   22  C7  MIQ B 502     -12.577  14.349  -5.134  1.00142.12     0.149 C 
HETATM   23  C8  MIQ B 502     -13.257  14.824  -6.411  1.00144.10     0.187 C 
HETATM   24  O9  MIQ B 502     -14.375  14.059  -6.748  1.00148.65    -0.388 OA
HETATM   25  C10 MIQ B 502     -14.894  13.128  -5.845  1.00147.44     0.187 C 
HETATM   26  C11 MIQ B 502     -14.749  13.402  -4.351  1.00144.08     0.149 C 
ENDBRANCH   5  21
TORSDOF 2
ENDMDL
MODEL 7
REMARK VINA RESULT:      -7.1      1.847      2.705
REMARK  2 active torsions:
REMARK  status: ('A' for Active; 'I' for Inactive)
REMARK    1  A    between atoms: C5_5  and  N6_21 
REMARK    2  A    between atoms: C18_14  and  N17_19 
ROOT
HETATM    1  O1  MIQ B 502     -15.701  13.829   0.399  1.00142.91    -0.171 OA
HETATM    2  C2  MIQ B 502     -14.416  14.211   0.006  1.00141.17     0.195 A 
HETATM    3  C3  MIQ B 502     -13.901  14.338  -1.463  1.00141.71     0.035 A 
HETATM    4  C4  MIQ B 502     -14.533  14.125  -2.787  1.00142.86     0.046 A 
HETATM    5  C5  MIQ B 502     -13.789  14.328  -3.977  1.00139.53     0.031 A 
HETATM    6  C12 MIQ B 502     -12.398  14.749  -3.897  1.00139.38     0.030 A 
HETATM    7  C13 MIQ B 502     -11.792  14.955  -2.628  1.00141.18     0.019 A 
HETATM    8  C14 MIQ B 502     -12.578  14.742  -1.382  1.00138.77     0.033 A 
HETATM    9  C15 MIQ B 502     -12.271  14.867   0.146  1.00142.10     0.195 A 
HETATM   10  N17 MIQ B 502     -13.390  14.541   0.771  1.00139.42    -0.288 N 
HETATM   11  O16 MIQ B 502     -11.059  15.243   0.727  1.00148.93    -0.171 OA
ENDROOT
BRANCH  10  12
HETATM   12  C18 MIQ B 502     -13.473  14.530   2.220  1.00139.82     0.187 C 
HETATM   13  C19 MIQ B 502     -14.026  13.164   2.646  1.00140.06     0.247 C 
HETATM   14  O25 MIQ B 502     -13.524  12.183   2.226  1.00143.95    -0.271 OA
HETATM   15  N20 MIQ B 502     -15.146  13.044   3.557  1.00140.02    -0.296 N 
HETATM   16  H13 MIQ B 502     -15.501  12.147   3.822  1.00142.77     0.171 HD
HETATM   17  C21 MIQ B 502     -15.748  14.256   4.048  1.00142.22     0.224 C 
HETATM   18  C22 MIQ B 502     -15.763  15.442   3.102  1.00139.52     0.106 C 
HETATM   19  O24 MIQ B 502     -16.203  14.323   5.137  1.00146.13    -0.273 OA
HETATM   20  C23 MIQ B 502     -14.319  15.702   2.714  1.00139.15     0.045 C 
ENDBRANCH  10  12
BRANCH   5  21
HETATM   21  N6  MIQ B 502     -14.417  14.101  -5.266  1.00140.95    -0.377 N 
HETATM   22  C7  MIQ B 502     -13.610  14.244  -6.466  1.00142.12     0.149 C 
HETATM   23  C8  MIQ B 502     -14.454  14.617  -7.678  1.00144.10     0.187 C 
HETATM   24  O9  MIQ B 502     -15.591  13.819  -7.815  1.00148.65    -0.388 OA
HETATM   25  C10 MIQ B 502     -15.975  12.952  -6.789  1.00147.44     0.187 C 
HETATM   26  C11 MIQ B 502     -15.648  13.335  -5.349  1.00144.08     0.149 C 
ENDBRANCH   5  21
TORSDOF 2
ENDMDL
MODEL 8
REMARK VINA RESULT:      -7.1      1.980      8.500
REMARK  2 active torsions:
REMARK  status: ('A' for Active; 'I' for Inactive)
REMARK    1  A    between atoms: C5_5  and  N6_21 
REMARK    2  A    between atoms: C18_14  and  N17_19 
ROOT
HETATM    1  O1  MIQ B 502     -14.297  11.710  -1.939  1.00142.91    -0.171 OA
HETATM    2  C2  MIQ B 502     -13.815  12.984  -1.630  1.00141.17     0.195 A 
HETATM    3  C3  MIQ B 502     -13.332  13.471  -0.227  1.00141.71     0.035 A 
HETATM    4  C4  MIQ B 502     -13.229  12.818   1.099  1.00142.86     0.046 A 
HETATM    5  C5  MIQ B 502     -12.736  13.537   2.217  1.00139.53     0.031 A 
HETATM    6  C12 MIQ B 502     -12.329  14.926   2.059  1.00139.38     0.030 A 
HETATM    7  C13 MIQ B 502     -12.426  15.553   0.788  1.00141.18     0.019 A 
HETATM    8  C14 MIQ B 502     -12.942  14.792  -0.383  1.00138.77     0.033 A 
HETATM    9  C15 MIQ B 502     -13.184  15.125  -1.891  1.00142.10     0.195 A 
HETATM   10  N17 MIQ B 502     -13.665  14.020  -2.437  1.00139.42    -0.288 N 
HETATM   11  O16 MIQ B 502     -12.943  16.345  -2.526  1.00148.93    -0.171 OA
ENDROOT
BRANCH  10  12
HETATM   12  C18 MIQ B 502     -14.026  13.964  -3.841  1.00139.82     0.187 C 
HETATM   13  C19 MIQ B 502     -12.903  14.638  -4.639  1.00140.06     0.247 C 
HETATM   14  O25 MIQ B 502     -11.786  14.304  -4.458  1.00143.95    -0.271 OA
HETATM   15  N20 MIQ B 502     -13.175  15.672  -5.617  1.00140.02    -0.296 N 
HETATM   16  H13 MIQ B 502     -12.433  16.109  -6.127  1.00142.77     0.171 HD
HETATM   17  C21 MIQ B 502     -14.545  16.070  -5.813  1.00142.22     0.224 C 
HETATM   18  C22 MIQ B 502     -15.448  16.030  -4.595  1.00139.52     0.106 C 
HETATM   19  O24 MIQ B 502     -14.945  16.407  -6.873  1.00146.13    -0.273 OA
HETATM   20  C23 MIQ B 502     -15.393  14.608  -4.065  1.00139.15     0.045 C 
ENDBRANCH  10  12
BRANCH   5  21
HETATM   21  N6  MIQ B 502     -12.655  12.889   3.513  1.00140.95    -0.377 N 
HETATM   22  C7  MIQ B 502     -12.491  11.446   3.559  1.00142.12     0.149 C 
HETATM   23  C8  MIQ B 502     -13.051  10.851   4.845  1.00144.10     0.187 C 
HETATM   24  O9  MIQ B 502     -12.633  11.536   5.988  1.00148.65    -0.388 OA
HETATM   25  C10 MIQ B 502     -11.971  12.761   5.876  1.00147.44     0.187 C 
HETATM   26  C11 MIQ B 502     -12.299  13.663   4.690  1.00144.08     0.149 C 
ENDBRANCH   5  21
TORSDOF 2
ENDMDL
MODEL 9
REMARK VINA RESULT:      -7.0      4.090      9.420
REMARK  2 active torsions:
REMARK  status: ('A' for Active; 'I' for Inactive)
REMARK    1  A    between atoms: C5_5  and  N6_21 
REMARK    2  A    between atoms: C18_14  and  N17_19 
ROOT
HETATM    1  O1  MIQ B 502     -11.782  12.956   1.957  1.00142.91    -0.171 OA
HETATM    2  C2  MIQ B 502     -13.134  12.611   2.028  1.00141.17     0.195 A 
HETATM    3  C3  MIQ B 502     -13.784  11.638   3.062  1.00141.71     0.035 A 
HETATM    4  C4  MIQ B 502     -13.247  10.845   4.193  1.00142.86     0.046 A 
HETATM    5  C5  MIQ B 502     -14.109  10.033   4.973  1.00139.53     0.031 A 
HETATM    6  C12 MIQ B 502     -15.530   9.980   4.660  1.00139.38     0.030 A 
HETATM    7  C13 MIQ B 502     -16.046  10.741   3.577  1.00141.18     0.019 A 
HETATM    8  C14 MIQ B 502     -15.136  11.594   2.763  1.00138.77     0.033 A 
HETATM    9  C15 MIQ B 502     -15.326  12.545   1.537  1.00142.10     0.195 A 
HETATM   10  N17 MIQ B 502     -14.126  13.026   1.259  1.00139.42    -0.288 N 
HETATM   11  O16 MIQ B 502     -16.522  12.823   0.873  1.00148.93    -0.171 OA
ENDROOT
BRANCH  10  12
HETATM   12  C18 MIQ B 502     -13.915  13.944   0.155  1.00139.82     0.187 C 
HETATM   13  C19 MIQ B 502     -12.831  13.346  -0.749  1.00140.06     0.247 C 
HETATM   14  O25 MIQ B 502     -12.939  12.231  -1.118  1.00143.95    -0.271 OA
HETATM   15  N20 MIQ B 502     -11.677  14.114  -1.170  1.00140.02    -0.296 N 
HETATM   16  H13 MIQ B 502     -10.973  13.710  -1.755  1.00142.77     0.171 HD
HETATM   17  C21 MIQ B 502     -11.562  15.470  -0.698  1.00142.22     0.224 C 
HETATM   18  C22 MIQ B 502     -12.102  15.757   0.689  1.00139.52     0.106 C 
HETATM   19  O24 MIQ B 502     -11.074  16.317  -1.363  1.00146.13    -0.273 OA
HETATM   20  C23 MIQ B 502     -13.560  15.335   0.680  1.00139.15     0.045 C 
ENDBRANCH  10  12
BRANCH   5  21
HETATM   21  N6  MIQ B 502     -13.566   9.249   6.068  1.00140.95    -0.377 N 
HETATM   22  C7  MIQ B 502     -12.640   9.888   6.987  1.00142.12     0.149 C 
HETATM   23  C8  MIQ B 502     -11.695   8.883   7.632  1.00144.10     0.187 C 
HETATM   24  O9  MIQ B 502     -12.355   7.761   8.135  1.00148.65    -0.388 OA
HETATM   25  C10 MIQ B 502     -13.702   7.539   7.835  1.00147.44     0.187 C 
HETATM   26  C11 MIQ B 502     -14.244   8.040   6.500  1.00144.08     0.149 C 
ENDBRANCH   5  21
TORSDOF 2
ENDMDL
