MODEL 1
REMARK VINA RESULT:      -5.7      0.000      0.000
REMARK  2 active torsions:
REMARK  status: ('A' for Active; 'I' for Inactive)
REMARK    1  A    between atoms: C5_5  and  N6_21 
REMARK    2  A    between atoms: C18_14  and  N17_19 
ROOT
HETATM    1  O1  MIQ B 502      -1.984  40.383  24.531  1.00142.91    -0.171 OA
HETATM    2  C2  MIQ B 502      -1.294  40.935  25.613  1.00141.17     0.195 A 
HETATM    3  C3  MIQ B 502      -1.241  42.447  25.999  1.00141.71     0.035 A 
HETATM    4  C4  MIQ B 502      -1.842  43.670  25.413  1.00142.86     0.046 A 
HETATM    5  C5  MIQ B 502      -1.607  44.937  26.005  1.00139.53     0.031 A 
HETATM    6  C12 MIQ B 502      -0.773  45.036  27.194  1.00139.38     0.030 A 
HETATM    7  C13 MIQ B 502      -0.198  43.864  27.756  1.00141.18     0.019 A 
HETATM    8  C14 MIQ B 502      -0.450  42.536  27.132  1.00138.77     0.033 A 
HETATM    9  C15 MIQ B 502      -0.009  41.071  27.452  1.00142.10     0.195 A 
HETATM   10  N17 MIQ B 502      -0.562  40.312  26.521  1.00139.42    -0.288 N 
HETATM   11  O16 MIQ B 502       0.806  40.654  28.506  1.00148.93    -0.171 OA
ENDROOT
BRANCH  10  12
HETATM   12  C18 MIQ B 502      -0.355  38.876  26.492  1.00139.82     0.187 C 
HETATM   13  C19 MIQ B 502       0.232  38.515  25.122  1.00140.06     0.247 C 
HETATM   14  O25 MIQ B 502       1.174  39.104  24.725  1.00143.95    -0.271 OA
HETATM   15  N20 MIQ B 502      -0.336  37.465  24.301  1.00140.02    -0.296 N 
HETATM   16  H13 MIQ B 502       0.052  37.244  23.405  1.00142.77     0.171 HD
HETATM   17  C21 MIQ B 502      -1.492  36.768  24.802  1.00142.22     0.224 C 
HETATM   18  C22 MIQ B 502      -2.462  37.573  25.644  1.00139.52     0.106 C 
HETATM   19  O24 MIQ B 502      -1.670  35.622  24.571  1.00146.13    -0.273 OA
HETATM   20  C23 MIQ B 502      -1.660  38.143  26.799  1.00139.15     0.045 C 
ENDBRANCH  10  12
BRANCH   5  21
HETATM   21  N6  MIQ B 502      -2.189  46.127  25.412  1.00140.95    -0.377 N 
HETATM   22  C7  MIQ B 502      -3.476  46.590  25.904  1.00142.12     0.149 C 
HETATM   23  C8  MIQ B 502      -4.240  47.375  24.846  1.00144.10     0.187 C 
HETATM   24  O9  MIQ B 502      -3.456  48.346  24.218  1.00148.65    -0.388 OA
HETATM   25  C10 MIQ B 502      -2.074  48.378  24.419  1.00147.44     0.187 C 
HETATM   26  C11 MIQ B 502      -1.346  47.067  24.694  1.00144.08     0.149 C 
ENDBRANCH   5  21
TORSDOF 2
ENDMDL
MODEL 2
REMARK VINA RESULT:      -5.6     14.240     16.445
REMARK  2 active torsions:
REMARK  status: ('A' for Active; 'I' for Inactive)
REMARK    1  A    between atoms: C5_5  and  N6_21 
REMARK    2  A    between atoms: C18_14  and  N17_19 
ROOT
HETATM    1  O1  MIQ B 502       9.232  29.556  17.079  1.00142.91    -0.171 OA
HETATM    2  C2  MIQ B 502       8.101  30.371  17.171  1.00141.17     0.195 A 
HETATM    3  C3  MIQ B 502       7.985  31.700  17.983  1.00141.71     0.035 A 
HETATM    4  C4  MIQ B 502       8.932  32.460  18.833  1.00142.86     0.046 A 
HETATM    5  C5  MIQ B 502       8.525  33.668  19.455  1.00139.53     0.031 A 
HETATM    6  C12 MIQ B 502       7.171  34.163  19.257  1.00139.38     0.030 A 
HETATM    7  C13 MIQ B 502       6.263  33.435  18.441  1.00141.18     0.019 A 
HETATM    8  C14 MIQ B 502       6.696  32.169  17.788  1.00138.77     0.033 A 
HETATM    9  C15 MIQ B 502       6.008  31.125  16.849  1.00142.10     0.195 A 
HETATM   10  N17 MIQ B 502       6.920  30.200  16.601  1.00139.42    -0.288 N 
HETATM   11  O16 MIQ B 502       4.696  31.166  16.374  1.00148.93    -0.171 OA
ENDROOT
BRANCH  10  12
HETATM   12  C18 MIQ B 502       6.626  29.052  15.764  1.00139.82     0.187 C 
HETATM   13  C19 MIQ B 502       6.100  29.573  14.422  1.00140.06     0.247 C 
HETATM   14  O25 MIQ B 502       6.716  30.394  13.841  1.00143.95    -0.271 OA
HETATM   15  N20 MIQ B 502       4.867  29.081  13.841  1.00140.02    -0.296 N 
HETATM   16  H13 MIQ B 502       4.531  29.435  12.967  1.00142.77     0.171 HD
HETATM   17  C21 MIQ B 502       4.126  28.087  14.574  1.00142.22     0.224 C 
HETATM   18  C22 MIQ B 502       4.180  28.175  16.087  1.00139.52     0.106 C 
HETATM   19  O24 MIQ B 502       3.513  27.242  14.021  1.00146.13    -0.273 OA
HETATM   20  C23 MIQ B 502       5.647  28.116  16.471  1.00139.15     0.045 C 
ENDBRANCH  10  12
BRANCH   5  21
HETATM   21  N6  MIQ B 502       9.458  34.395  20.297  1.00140.95    -0.377 N 
HETATM   22  C7  MIQ B 502      10.072  33.699  21.415  1.00142.12     0.149 C 
HETATM   23  C8  MIQ B 502      10.470  34.656  22.531  1.00144.10     0.187 C 
HETATM   24  O9  MIQ B 502      11.169  35.772  22.067  1.00148.65    -0.388 OA
HETATM   25  C10 MIQ B 502      11.251  36.036  20.697  1.00147.44     0.187 C 
HETATM   26  C11 MIQ B 502      10.096  35.601  19.800  1.00144.08     0.149 C 
ENDBRANCH   5  21
TORSDOF 2
ENDMDL
MODEL 3
REMARK VINA RESULT:      -5.6     14.206     19.100
REMARK  2 active torsions:
REMARK  status: ('A' for Active; 'I' for Inactive)
REMARK    1  A    between atoms: C5_5  and  N6_21 
REMARK    2  A    between atoms: C18_14  and  N17_19 
ROOT
HETATM    1  O1  MIQ B 502       9.697  32.556  17.413  1.00142.91    -0.171 OA
HETATM    2  C2  MIQ B 502       8.467  31.908  17.278  1.00141.17     0.195 A 
HETATM    3  C3  MIQ B 502       8.251  30.409  16.898  1.00141.71     0.035 A 
HETATM    4  C4  MIQ B 502       9.176  29.292  16.590  1.00142.86     0.046 A 
HETATM    5  C5  MIQ B 502       8.667  28.007  16.274  1.00139.53     0.031 A 
HETATM    6  C12 MIQ B 502       7.229  27.784  16.253  1.00139.38     0.030 A 
HETATM    7  C13 MIQ B 502       6.342  28.854  16.549  1.00141.18     0.019 A 
HETATM    8  C14 MIQ B 502       6.881  30.200  16.883  1.00138.77     0.033 A 
HETATM    9  C15 MIQ B 502       6.243  31.578  17.256  1.00142.10     0.195 A 
HETATM   10  N17 MIQ B 502       7.255  32.410  17.444  1.00139.42    -0.288 N 
HETATM   11  O16 MIQ B 502       4.882  31.868  17.363  1.00148.93    -0.171 OA
ENDROOT
BRANCH  10  12
HETATM   12  C18 MIQ B 502       7.036  33.801  17.793  1.00139.82     0.187 C 
HETATM   13  C19 MIQ B 502       7.804  34.663  16.783  1.00140.06     0.247 C 
HETATM   14  O25 MIQ B 502       7.654  34.470  15.629  1.00143.95    -0.271 OA
HETATM   15  N20 MIQ B 502       8.707  35.714  17.206  1.00140.02    -0.296 N 
HETATM   16  H13 MIQ B 502       9.207  36.265  16.537  1.00142.77     0.171 HD
HETATM   17  C21 MIQ B 502       8.882  35.924  18.621  1.00142.22     0.224 C 
HETATM   18  C22 MIQ B 502       8.804  34.696  19.506  1.00139.52     0.106 C 
HETATM   19  O24 MIQ B 502       9.072  37.002  19.066  1.00146.13    -0.273 OA
HETATM   20  C23 MIQ B 502       7.452  34.058  19.241  1.00139.15     0.045 C 
ENDBRANCH  10  12
BRANCH   5  21
HETATM   21  N6  MIQ B 502       9.584  26.926  15.960  1.00140.95    -0.377 N 
HETATM   22  C7  MIQ B 502      11.004  27.223  15.876  1.00142.12     0.149 C 
HETATM   23  C8  MIQ B 502      11.734  26.252  14.956  1.00144.10     0.187 C 
HETATM   24  O9  MIQ B 502      11.417  24.917  15.213  1.00148.65    -0.388 OA
HETATM   25  C10 MIQ B 502      10.363  24.592  16.071  1.00147.44     0.187 C 
HETATM   26  C11 MIQ B 502       9.177  25.547  16.164  1.00144.08     0.149 C 
ENDBRANCH   5  21
TORSDOF 2
ENDMDL
MODEL 4
REMARK VINA RESULT:      -5.6      1.752      2.785
REMARK  2 active torsions:
REMARK  status: ('A' for Active; 'I' for Inactive)
REMARK    1  A    between atoms: C5_5  and  N6_21 
REMARK    2  A    between atoms: C18_14  and  N17_19 
ROOT
HETATM    1  O1  MIQ B 502       1.115  41.340  28.195  1.00142.91    -0.171 OA
HETATM    2  C2  MIQ B 502       0.322  40.901  27.132  1.00141.17     0.195 A 
HETATM    3  C3  MIQ B 502      -0.716  41.759  26.340  1.00141.71     0.035 A 
HETATM    4  C4  MIQ B 502      -1.156  43.171  26.437  1.00142.86     0.046 A 
HETATM    5  C5  MIQ B 502      -2.143  43.676  25.553  1.00139.53     0.031 A 
HETATM    6  C12 MIQ B 502      -2.725  42.802  24.544  1.00139.38     0.030 A 
HETATM    7  C13 MIQ B 502      -2.302  41.449  24.450  1.00141.18     0.019 A 
HETATM    8  C14 MIQ B 502      -1.264  40.924  25.380  1.00138.77     0.033 A 
HETATM    9  C15 MIQ B 502      -0.562  39.541  25.576  1.00142.10     0.195 A 
HETATM   10  N17 MIQ B 502       0.285  39.700  26.580  1.00139.42    -0.288 N 
HETATM   11  O16 MIQ B 502      -0.789  38.377  24.841  1.00148.93    -0.171 OA
ENDROOT
BRANCH  10  12
HETATM   12  C18 MIQ B 502       1.108  38.605  27.057  1.00139.82     0.187 C 
HETATM   13  C19 MIQ B 502       1.930  38.087  25.871  1.00140.06     0.247 C 
HETATM   14  O25 MIQ B 502       2.549  38.852  25.220  1.00143.95    -0.271 OA
HETATM   15  N20 MIQ B 502       1.973  36.680  25.528  1.00140.02    -0.296 N 
HETATM   16  H13 MIQ B 502       2.508  36.355  24.747  1.00142.77     0.171 HD
HETATM   17  C21 MIQ B 502       1.201  35.766  26.331  1.00142.22     0.224 C 
HETATM   18  C22 MIQ B 502      -0.106  36.291  26.893  1.00139.52     0.106 C 
HETATM   19  O24 MIQ B 502       1.573  34.665  26.544  1.00146.13    -0.273 OA
HETATM   20  C23 MIQ B 502       0.239  37.528  27.703  1.00139.15     0.045 C 
ENDBRANCH  10  12
BRANCH   5  21
HETATM   21  N6  MIQ B 502      -2.576  45.056  25.669  1.00140.95    -0.377 N 
HETATM   22  C7  MIQ B 502      -1.572  46.105  25.628  1.00142.12     0.149 C 
HETATM   23  C8  MIQ B 502      -2.023  47.354  26.374  1.00144.10     0.187 C 
HETATM   24  O9  MIQ B 502      -3.317  47.753  26.032  1.00148.65    -0.388 OA
HETATM   25  C10 MIQ B 502      -4.135  46.920  25.265  1.00147.44     0.187 C 
HETATM   26  C11 MIQ B 502      -3.956  45.410  25.386  1.00144.08     0.149 C 
ENDBRANCH   5  21
TORSDOF 2
ENDMDL
MODEL 5
REMARK VINA RESULT:      -5.6     14.215     17.095
REMARK  2 active torsions:
REMARK  status: ('A' for Active; 'I' for Inactive)
REMARK    1  A    between atoms: C5_5  and  N6_21 
REMARK    2  A    between atoms: C18_14  and  N17_19 
ROOT
HETATM    1  O1  MIQ B 502       6.250  34.305  19.203  1.00142.91    -0.171 OA
HETATM    2  C2  MIQ B 502       7.404  33.599  18.857  1.00141.17     0.195 A 
HETATM    3  C3  MIQ B 502       7.460  32.257  18.059  1.00141.71     0.035 A 
HETATM    4  C4  MIQ B 502       6.422  31.381  17.465  1.00142.86     0.046 A 
HETATM    5  C5  MIQ B 502       6.791  30.196  16.780  1.00139.53     0.031 A 
HETATM    6  C12 MIQ B 502       8.198  29.839  16.660  1.00139.38     0.030 A 
HETATM    7  C13 MIQ B 502       9.193  30.679  17.229  1.00141.18     0.019 A 
HETATM    8  C14 MIQ B 502       8.799  31.923  17.944  1.00138.77     0.033 A 
HETATM    9  C15 MIQ B 502       9.580  33.065  18.675  1.00142.10     0.195 A 
HETATM   10  N17 MIQ B 502       8.663  33.909  19.118  1.00139.42    -0.288 N 
HETATM   11  O16 MIQ B 502      10.964  33.165  18.828  1.00148.93    -0.171 OA
ENDROOT
BRANCH  10  12
HETATM   12  C18 MIQ B 502       9.026  35.097  19.867  1.00139.82     0.187 C 
HETATM   13  C19 MIQ B 502       9.950  35.943  18.984  1.00140.06     0.247 C 
HETATM   14  O25 MIQ B 502       9.616  36.202  17.883  1.00143.95    -0.271 OA
HETATM   15  N20 MIQ B 502      11.223  36.439  19.465  1.00140.02    -0.296 N 
HETATM   16  H13 MIQ B 502      11.821  36.985  18.876  1.00142.77     0.171 HD
HETATM   17  C21 MIQ B 502      11.614  36.101  20.810  1.00142.22     0.224 C 
HETATM   18  C22 MIQ B 502      11.171  34.746  21.327  1.00139.52     0.106 C 
HETATM   19  O24 MIQ B 502      12.244  36.846  21.476  1.00146.13    -0.273 OA
HETATM   20  C23 MIQ B 502       9.659  34.710  21.203  1.00139.15     0.045 C 
ENDBRANCH  10  12
BRANCH   5  21
HETATM   21  N6  MIQ B 502       5.764  29.340  16.215  1.00140.95    -0.377 N 
HETATM   22  C7  MIQ B 502       5.087  29.772  15.005  1.00142.12     0.149 C 
HETATM   23  C8  MIQ B 502       3.688  29.181  14.894  1.00144.10     0.187 C 
HETATM   24  O9  MIQ B 502       3.657  27.807  15.136  1.00148.65    -0.388 OA
HETATM   25  C10 MIQ B 502       4.781  27.154  15.649  1.00147.44     0.187 C 
HETATM   26  C11 MIQ B 502       5.721  27.931  16.565  1.00144.08     0.149 C 
ENDBRANCH   5  21
TORSDOF 2
ENDMDL
MODEL 6
REMARK VINA RESULT:      -5.4      1.795      7.885
REMARK  2 active torsions:
REMARK  status: ('A' for Active; 'I' for Inactive)
REMARK    1  A    between atoms: C5_5  and  N6_21 
REMARK    2  A    between atoms: C18_14  and  N17_19 
ROOT
HETATM    1  O1  MIQ B 502      -2.523  44.444  24.832  1.00142.91    -0.171 OA
HETATM    2  C2  MIQ B 502      -1.653  44.116  25.874  1.00141.17     0.195 A 
HETATM    3  C3  MIQ B 502      -1.111  42.690  26.210  1.00141.71     0.035 A 
HETATM    4  C4  MIQ B 502      -1.312  41.354  25.601  1.00142.86     0.046 A 
HETATM    5  C5  MIQ B 502      -0.667  40.215  26.143  1.00139.53     0.031 A 
HETATM    6  C12 MIQ B 502       0.199  40.359  27.304  1.00139.38     0.030 A 
HETATM    7  C13 MIQ B 502       0.394  41.640  27.888  1.00141.18     0.019 A 
HETATM    8  C14 MIQ B 502      -0.285  42.833  27.313  1.00138.77     0.033 A 
HETATM    9  C15 MIQ B 502      -0.314  44.357  27.664  1.00142.10     0.195 A 
HETATM   10  N17 MIQ B 502      -1.113  44.922  26.773  1.00139.42    -0.288 N 
HETATM   11  O16 MIQ B 502       0.364  44.987  28.708  1.00148.93    -0.171 OA
ENDROOT
BRANCH  10  12
HETATM   12  C18 MIQ B 502      -1.392  46.345  26.801  1.00139.82     0.187 C 
HETATM   13  C19 MIQ B 502      -2.907  46.528  26.651  1.00140.06     0.247 C 
HETATM   14  O25 MIQ B 502      -3.632  45.923  27.358  1.00143.95    -0.271 OA
HETATM   15  N20 MIQ B 502      -3.474  47.428  25.669  1.00140.02    -0.296 N 
HETATM   16  H13 MIQ B 502      -4.466  47.534  25.577  1.00142.77     0.171 HD
HETATM   17  C21 MIQ B 502      -2.569  48.148  24.810  1.00142.22     0.224 C 
HETATM   18  C22 MIQ B 502      -1.288  47.435  24.422  1.00139.52     0.106 C 
HETATM   19  O24 MIQ B 502      -2.812  49.241  24.433  1.00146.13    -0.273 OA
HETATM   20  C23 MIQ B 502      -0.590  47.065  25.718  1.00139.15     0.045 C 
ENDBRANCH  10  12
BRANCH   5  21
HETATM   21  N6  MIQ B 502      -0.884  38.910  25.545  1.00140.95    -0.377 N 
HETATM   22  C7  MIQ B 502      -1.811  38.802  24.432  1.00142.12     0.149 C 
HETATM   23  C8  MIQ B 502      -2.424  37.411  24.335  1.00144.10     0.187 C 
HETATM   24  O9  MIQ B 502      -1.474  36.391  24.421  1.00148.65    -0.388 OA
HETATM   25  C10 MIQ B 502      -0.159  36.680  24.793  1.00147.44     0.187 C 
HETATM   26  C11 MIQ B 502       0.093  37.852  25.735  1.00144.08     0.149 C 
ENDBRANCH   5  21
TORSDOF 2
ENDMDL
MODEL 7
REMARK VINA RESULT:      -5.4      7.349      9.238
REMARK  2 active torsions:
REMARK  status: ('A' for Active; 'I' for Inactive)
REMARK    1  A    between atoms: C5_5  and  N6_21 
REMARK    2  A    between atoms: C18_14  and  N17_19 
ROOT
HETATM    1  O1  MIQ B 502       5.627  45.500  26.462  1.00142.91    -0.171 OA
HETATM    2  C2  MIQ B 502       5.773  46.882  26.318  1.00141.17     0.195 A 
HETATM    3  C3  MIQ B 502       4.618  47.934  26.303  1.00141.71     0.035 A 
HETATM    4  C4  MIQ B 502       3.145  47.832  26.427  1.00142.86     0.046 A 
HETATM    5  C5  MIQ B 502       2.339  48.997  26.376  1.00139.53     0.031 A 
HETATM    6  C12 MIQ B 502       2.964  50.301  26.201  1.00139.38     0.030 A 
HETATM    7  C13 MIQ B 502       4.376  50.399  26.084  1.00141.18     0.019 A 
HETATM    8  C14 MIQ B 502       5.218  49.173  26.140  1.00138.77     0.033 A 
HETATM    9  C15 MIQ B 502       6.753  48.888  26.054  1.00142.10     0.195 A 
HETATM   10  N17 MIQ B 502       6.888  47.577  26.172  1.00139.42    -0.288 N 
HETATM   11  O16 MIQ B 502       7.769  49.829  25.884  1.00148.93    -0.171 OA
ENDROOT
BRANCH  10  12
HETATM   12  C18 MIQ B 502       8.192  46.943  26.120  1.00139.82     0.187 C 
HETATM   13  C19 MIQ B 502       8.135  45.841  25.055  1.00140.06     0.247 C 
HETATM   14  O25 MIQ B 502       7.729  46.101  23.978  1.00143.95    -0.271 OA
HETATM   15  N20 MIQ B 502       8.570  44.487  25.332  1.00140.02    -0.296 N 
HETATM   16  H13 MIQ B 502       8.522  43.776  24.630  1.00142.77     0.171 HD
HETATM   17  C21 MIQ B 502       9.052  44.192  26.657  1.00142.22     0.224 C 
HETATM   18  C22 MIQ B 502       8.403  44.946  27.801  1.00139.52     0.106 C 
HETATM   19  O24 MIQ B 502       9.913  43.403  26.840  1.00146.13    -0.273 OA
HETATM   20  C23 MIQ B 502       8.585  46.423  27.502  1.00139.15     0.045 C 
ENDBRANCH  10  12
BRANCH   5  21
HETATM   21  N6  MIQ B 502       0.896  48.881  26.484  1.00140.95    -0.377 N 
HETATM   22  C7  MIQ B 502       0.259  47.670  25.998  1.00142.12     0.149 C 
HETATM   23  C8  MIQ B 502      -1.184  47.917  25.575  1.00144.10     0.187 C 
HETATM   24  O9  MIQ B 502      -1.913  48.636  26.524  1.00148.65    -0.388 OA
HETATM   25  C10 MIQ B 502      -1.267  49.234  27.609  1.00147.44     0.187 C 
HETATM   26  C11 MIQ B 502       0.170  49.713  27.428  1.00144.08     0.149 C 
ENDBRANCH   5  21
TORSDOF 2
ENDMDL
MODEL 8
REMARK VINA RESULT:      -5.3     13.998     17.342
REMARK  2 active torsions:
REMARK  status: ('A' for Active; 'I' for Inactive)
REMARK    1  A    between atoms: C5_5  and  N6_21 
REMARK    2  A    between atoms: C18_14  and  N17_19 
ROOT
HETATM    1  O1  MIQ B 502       8.754  35.144  16.623  1.00142.91    -0.171 OA
HETATM    2  C2  MIQ B 502       8.145  33.963  16.191  1.00141.17     0.195 A 
HETATM    3  C3  MIQ B 502       7.809  33.585  14.713  1.00141.71     0.035 A 
HETATM    4  C4  MIQ B 502       8.006  34.274  13.416  1.00142.86     0.046 A 
HETATM    5  C5  MIQ B 502       7.587  33.661  12.208  1.00139.53     0.031 A 
HETATM    6  C12 MIQ B 502       6.961  32.347  12.244  1.00139.38     0.030 A 
HETATM    7  C13 MIQ B 502       6.773  31.686  13.488  1.00141.18     0.019 A 
HETATM    8  C14 MIQ B 502       7.217  32.334  14.752  1.00138.77     0.033 A 
HETATM    9  C15 MIQ B 502       7.185  31.932  16.263  1.00142.10     0.195 A 
HETATM   10  N17 MIQ B 502       7.737  32.939  16.921  1.00139.42    -0.288 N 
HETATM   11  O16 MIQ B 502       6.675  30.750  16.803  1.00148.93    -0.171 OA
ENDROOT
BRANCH  10  12
HETATM   12  C18 MIQ B 502       7.864  32.920  18.366  1.00139.82     0.187 C 
HETATM   13  C19 MIQ B 502       7.346  34.262  18.898  1.00140.06     0.247 C 
HETATM   14  O25 MIQ B 502       6.286  34.648  18.554  1.00143.95    -0.271 OA
HETATM   15  N20 MIQ B 502       8.121  35.070  19.817  1.00140.02    -0.296 N 
HETATM   16  H13 MIQ B 502       7.775  35.947  20.152  1.00142.77     0.171 HD
HETATM   17  C21 MIQ B 502       9.418  34.583  20.214  1.00142.22     0.224 C 
HETATM   18  C22 MIQ B 502      10.195  33.794  19.179  1.00139.52     0.106 C 
HETATM   19  O24 MIQ B 502       9.849  34.787  21.296  1.00146.13    -0.273 OA
HETATM   20  C23 MIQ B 502       9.309  32.631  18.769  1.00139.15     0.045 C 
ENDBRANCH  10  12
BRANCH   5  21
HETATM   21  N6  MIQ B 502       7.773  34.353  10.946  1.00140.95    -0.377 N 
HETATM   22  C7  MIQ B 502       7.681  35.803  10.929  1.00142.12     0.149 C 
HETATM   23  C8  MIQ B 502       7.253  36.330   9.565  1.00144.10     0.187 C 
HETATM   24  O9  MIQ B 502       7.977  35.765   8.513  1.00148.65    -0.388 OA
HETATM   25  C10 MIQ B 502       8.818  34.672   8.738  1.00147.44     0.187 C 
HETATM   26  C11 MIQ B 502       8.457  33.691   9.849  1.00144.08     0.149 C 
ENDBRANCH   5  21
TORSDOF 2
ENDMDL
MODEL 9
REMARK VINA RESULT:      -5.3      2.219      8.285
REMARK  2 active torsions:
REMARK  status: ('A' for Active; 'I' for Inactive)
REMARK    1  A    between atoms: C5_5  and  N6_21 
REMARK    2  A    between atoms: C18_14  and  N17_19 
ROOT
HETATM    1  O1  MIQ B 502       0.461  43.598  28.212  1.00142.91    -0.171 OA
HETATM    2  C2  MIQ B 502      -0.456  43.271  27.211  1.00141.17     0.195 A 
HETATM    3  C3  MIQ B 502      -0.565  41.898  26.474  1.00141.71     0.035 A 
HETATM    4  C4  MIQ B 502       0.181  40.622  26.580  1.00142.86     0.046 A 
HETATM    5  C5  MIQ B 502      -0.161  39.521  25.755  1.00139.53     0.031 A 
HETATM    6  C12 MIQ B 502      -1.251  39.645  24.799  1.00139.38     0.030 A 
HETATM    7  C13 MIQ B 502      -1.968  40.868  24.697  1.00141.18     0.019 A 
HETATM    8  C14 MIQ B 502      -1.606  42.020  25.568  1.00138.77     0.033 A 
HETATM    9  C15 MIQ B 502      -2.146  43.477  25.744  1.00142.10     0.195 A 
HETATM   10  N17 MIQ B 502      -1.404  44.030  26.689  1.00139.42    -0.288 N 
HETATM   11  O16 MIQ B 502      -3.196  44.070  25.041  1.00148.93    -0.171 OA
ENDROOT
BRANCH  10  12
HETATM   12  C18 MIQ B 502      -1.613  45.402  27.110  1.00139.82     0.187 C 
HETATM   13  C19 MIQ B 502      -3.099  45.566  27.453  1.00140.06     0.247 C 
HETATM   14  O25 MIQ B 502      -3.609  44.797  28.188  1.00143.95    -0.271 OA
HETATM   15  N20 MIQ B 502      -3.896  46.643  26.902  1.00140.02    -0.296 N 
HETATM   16  H13 MIQ B 502      -4.867  46.734  27.128  1.00142.77     0.171 HD
HETATM   17  C21 MIQ B 502      -3.255  47.562  25.998  1.00142.22     0.224 C 
HETATM   18  C22 MIQ B 502      -2.168  46.994  25.106  1.00139.52     0.106 C 
HETATM   19  O24 MIQ B 502      -3.559  48.703  25.958  1.00146.13    -0.273 OA
HETATM   20  C23 MIQ B 502      -1.136  46.369  26.028  1.00139.15     0.045 C 
ENDBRANCH  10  12
BRANCH   5  21
HETATM   21  N6  MIQ B 502       0.589  38.282  25.860  1.00140.95    -0.377 N 
HETATM   22  C7  MIQ B 502       0.093  37.109  25.159  1.00142.12     0.149 C 
HETATM   23  C8  MIQ B 502       0.539  35.816  25.829  1.00144.10     0.187 C 
HETATM   24  O9  MIQ B 502       1.903  35.801  26.127  1.00148.65    -0.388 OA
HETATM   25  C10 MIQ B 502       2.665  36.967  26.013  1.00147.44     0.187 C 
HETATM   26  C11 MIQ B 502       1.985  38.310  26.257  1.00144.08     0.149 C 
ENDBRANCH   5  21
TORSDOF 2
ENDMDL
