MODEL 1
REMARK VINA RESULT:      -6.5      0.000      0.000
REMARK  2 active torsions:
REMARK  status: ('A' for Active; 'I' for Inactive)
REMARK    1  A    between atoms: C5_5  and  N6_21 
REMARK    2  A    between atoms: C18_14  and  N17_19 
ROOT
HETATM    1  O1  MIQ B 502     -13.309 -12.837  -0.093  1.00142.91    -0.171 OA
HETATM    2  C2  MIQ B 502     -12.303 -13.674   0.393  1.00141.17     0.195 A 
HETATM    3  C3  MIQ B 502     -11.919 -13.881   1.893  1.00141.71     0.035 A 
HETATM    4  C4  MIQ B 502     -12.439 -13.322   3.164  1.00142.86     0.046 A 
HETATM    5  C5  MIQ B 502     -11.872 -13.712   4.404  1.00139.53     0.031 A 
HETATM    6  C12 MIQ B 502     -10.773 -14.668   4.427  1.00139.38     0.030 A 
HETATM    7  C13 MIQ B 502     -10.276 -15.205   3.209  1.00141.18     0.019 A 
HETATM    8  C14 MIQ B 502     -10.877 -14.793   1.911  1.00138.77     0.033 A 
HETATM    9  C15 MIQ B 502     -10.612 -15.155   0.413  1.00142.10     0.195 A 
HETATM   10  N17 MIQ B 502     -11.485 -14.455  -0.292  1.00139.42    -0.288 N 
HETATM   11  O16 MIQ B 502      -9.647 -16.038  -0.076  1.00148.93    -0.171 OA
ENDROOT
BRANCH  10  12
HETATM   12  C18 MIQ B 502     -11.522 -14.528  -1.741  1.00139.82     0.187 C 
HETATM   13  C19 MIQ B 502     -11.441 -13.096  -2.284  1.00140.06     0.247 C 
HETATM   14  O25 MIQ B 502     -10.584 -12.382  -1.901  1.00143.95    -0.271 OA
HETATM   15  N20 MIQ B 502     -12.387 -12.596  -3.261  1.00140.02    -0.296 N 
HETATM   16  H13 MIQ B 502     -12.327 -11.657  -3.603  1.00142.77     0.171 HD
HETATM   17  C21 MIQ B 502     -13.431 -13.483  -3.705  1.00142.22     0.224 C 
HETATM   18  C22 MIQ B 502     -13.963 -14.473  -2.687  1.00139.52     0.106 C 
HETATM   19  O24 MIQ B 502     -13.846 -13.443  -4.811  1.00146.13    -0.273 OA
HETATM   20  C23 MIQ B 502     -12.770 -15.277  -2.204  1.00139.15     0.045 C 
ENDBRANCH  10  12
BRANCH   5  21
HETATM   21  N6  MIQ B 502     -12.380 -13.146   5.640  1.00140.95    -0.377 N 
HETATM   22  C7  MIQ B 502     -13.566 -12.308   5.583  1.00142.12     0.149 C 
HETATM   23  C8  MIQ B 502     -13.609 -11.306   6.730  1.00144.10     0.187 C 
HETATM   24  O9  MIQ B 502     -13.349 -11.890   7.972  1.00148.65    -0.388 OA
HETATM   25  C10 MIQ B 502     -12.876 -13.202   8.052  1.00147.44     0.187 C 
HETATM   26  C11 MIQ B 502     -12.012 -13.737   6.914  1.00144.08     0.149 C 
ENDBRANCH   5  21
TORSDOF 2
ENDMDL
MODEL 2
REMARK VINA RESULT:      -6.4      3.788      6.456
REMARK  2 active torsions:
REMARK  status: ('A' for Active; 'I' for Inactive)
REMARK    1  A    between atoms: C5_5  and  N6_21 
REMARK    2  A    between atoms: C18_14  and  N17_19 
ROOT
HETATM    1  O1  MIQ B 502     -13.830 -11.295   4.923  1.00142.91    -0.171 OA
HETATM    2  C2  MIQ B 502     -14.100 -12.475   5.620  1.00141.17     0.195 A 
HETATM    3  C3  MIQ B 502     -14.984 -12.608   6.901  1.00141.71     0.035 A 
HETATM    4  C4  MIQ B 502     -15.750 -11.635   7.715  1.00142.86     0.046 A 
HETATM    5  C5  MIQ B 502     -16.477 -12.068   8.853  1.00139.53     0.031 A 
HETATM    6  C12 MIQ B 502     -16.469 -13.477   9.222  1.00139.38     0.030 A 
HETATM    7  C13 MIQ B 502     -15.735 -14.410   8.441  1.00141.18     0.019 A 
HETATM    8  C14 MIQ B 502     -14.976 -13.950   7.246  1.00138.77     0.033 A 
HETATM    9  C15 MIQ B 502     -14.083 -14.654   6.173  1.00142.10     0.195 A 
HETATM   10  N17 MIQ B 502     -13.682 -13.700   5.349  1.00139.42    -0.288 N 
HETATM   11  O16 MIQ B 502     -13.774 -16.013   6.105  1.00148.93    -0.171 OA
ENDROOT
BRANCH  10  12
HETATM   12  C18 MIQ B 502     -12.811 -13.988   4.224  1.00139.82     0.187 C 
HETATM   13  C19 MIQ B 502     -11.637 -13.003   4.278  1.00140.06     0.247 C 
HETATM   14  O25 MIQ B 502     -11.032 -12.883   5.283  1.00143.95    -0.271 OA
HETATM   15  N20 MIQ B 502     -11.244 -12.219   3.125  1.00140.02    -0.296 N 
HETATM   16  H13 MIQ B 502     -10.480 -11.575   3.175  1.00142.77     0.171 HD
HETATM   17  C21 MIQ B 502     -12.005 -12.375   1.912  1.00142.22     0.224 C 
HETATM   18  C22 MIQ B 502     -13.486 -12.662   2.069  1.00139.52     0.106 C 
HETATM   19  O24 MIQ B 502     -11.497 -12.290   0.848  1.00146.13    -0.273 OA
HETATM   20  C23 MIQ B 502     -13.595 -13.918   2.914  1.00139.15     0.045 C 
ENDBRANCH  10  12
BRANCH   5  21
HETATM   21  N6  MIQ B 502     -17.211 -11.103   9.650  1.00140.95    -0.377 N 
HETATM   22  C7  MIQ B 502     -17.959 -10.062   8.965  1.00142.12     0.149 C 
HETATM   23  C8  MIQ B 502     -18.118  -8.816   9.826  1.00144.10     0.187 C 
HETATM   24  O9  MIQ B 502     -18.545  -9.103  11.124  1.00148.65    -0.388 OA
HETATM   25  C10 MIQ B 502     -18.576 -10.422  11.584  1.00147.44     0.187 C 
HETATM   26  C11 MIQ B 502     -17.559 -11.412  11.026  1.00144.08     0.149 C 
ENDBRANCH   5  21
TORSDOF 2
ENDMDL
MODEL 3
REMARK VINA RESULT:      -6.4      9.886     14.197
REMARK  2 active torsions:
REMARK  status: ('A' for Active; 'I' for Inactive)
REMARK    1  A    between atoms: C5_5  and  N6_21 
REMARK    2  A    between atoms: C18_14  and  N17_19 
ROOT
HETATM    1  O1  MIQ B 502     -14.115  -4.462  -8.602  1.00142.91    -0.171 OA
HETATM    2  C2  MIQ B 502     -15.219  -5.121  -9.148  1.00141.17     0.195 A 
HETATM    3  C3  MIQ B 502     -15.677  -6.578  -8.819  1.00141.71     0.035 A 
HETATM    4  C4  MIQ B 502     -15.156  -7.631  -7.916  1.00142.86     0.046 A 
HETATM    5  C5  MIQ B 502     -15.807  -8.887  -7.829  1.00139.53     0.031 A 
HETATM    6  C12 MIQ B 502     -16.995  -9.143  -8.632  1.00139.38     0.030 A 
HETATM    7  C13 MIQ B 502     -17.495  -8.133  -9.497  1.00141.18     0.019 A 
HETATM    8  C14 MIQ B 502     -16.809  -6.815  -9.582  1.00138.77     0.033 A 
HETATM    9  C15 MIQ B 502     -17.055  -5.498 -10.389  1.00142.10     0.195 A 
HETATM   10  N17 MIQ B 502     -16.091  -4.666 -10.031  1.00139.42    -0.288 N 
HETATM   11  O16 MIQ B 502     -18.082  -5.257 -11.302  1.00148.93    -0.171 OA
ENDROOT
BRANCH  10  12
HETATM   12  C18 MIQ B 502     -15.991  -3.334 -10.598  1.00139.82     0.187 C 
HETATM   13  C19 MIQ B 502     -14.588  -3.185 -11.198  1.00140.06     0.247 C 
HETATM   14  O25 MIQ B 502     -14.188  -4.011 -11.940  1.00143.95    -0.271 OA
HETATM   15  N20 MIQ B 502     -13.738  -2.054 -10.885  1.00140.02    -0.296 N 
HETATM   16  H13 MIQ B 502     -12.822  -1.972 -11.278  1.00142.77     0.171 HD
HETATM   17  C21 MIQ B 502     -14.244  -1.065  -9.968  1.00142.22     0.224 C 
HETATM   18  C22 MIQ B 502     -15.152  -1.563  -8.861  1.00139.52     0.106 C 
HETATM   19  O24 MIQ B 502     -13.968   0.079 -10.080  1.00146.13    -0.273 OA
HETATM   20  C23 MIQ B 502     -16.306  -2.280  -9.538  1.00139.15     0.045 C 
ENDBRANCH  10  12
BRANCH   5  21
HETATM   21  N6  MIQ B 502     -15.277  -9.915  -6.951  1.00140.95    -0.377 N 
HETATM   22  C7  MIQ B 502     -15.899 -11.228  -6.964  1.00142.12     0.149 C 
HETATM   23  C8  MIQ B 502     -15.719 -11.955  -5.638  1.00144.10     0.187 C 
HETATM   24  O9  MIQ B 502     -14.402 -11.923  -5.175  1.00148.65    -0.388 OA
HETATM   25  C10 MIQ B 502     -13.457 -11.097  -5.787  1.00147.44     0.187 C 
HETATM   26  C11 MIQ B 502     -13.929  -9.794  -6.424  1.00144.08     0.149 C 
ENDBRANCH   5  21
TORSDOF 2
ENDMDL
MODEL 4
REMARK VINA RESULT:      -6.3      2.395      8.230
REMARK  2 active torsions:
REMARK  status: ('A' for Active; 'I' for Inactive)
REMARK    1  A    between atoms: C5_5  and  N6_21 
REMARK    2  A    between atoms: C18_14  and  N17_19 
ROOT
HETATM    1  O1  MIQ B 502     -15.831 -14.054   2.798  1.00142.91    -0.171 OA
HETATM    2  C2  MIQ B 502     -14.517 -13.588   2.714  1.00141.17     0.195 A 
HETATM    3  C3  MIQ B 502     -13.662 -13.470   1.412  1.00141.71     0.035 A 
HETATM    4  C4  MIQ B 502     -13.928 -13.777  -0.013  1.00142.86     0.046 A 
HETATM    5  C5  MIQ B 502     -12.927 -13.557  -0.993  1.00139.53     0.031 A 
HETATM    6  C12 MIQ B 502     -11.631 -13.027  -0.595  1.00139.38     0.030 A 
HETATM    7  C13 MIQ B 502     -11.375 -12.732   0.771  1.00141.18     0.019 A 
HETATM    8  C14 MIQ B 502     -12.431 -12.963   1.795  1.00138.77     0.033 A 
HETATM    9  C15 MIQ B 502     -12.523 -12.763   3.343  1.00142.10     0.195 A 
HETATM   10  N17 MIQ B 502     -13.739 -13.153   3.690  1.00139.42    -0.288 N 
HETATM   11  O16 MIQ B 502     -11.521 -12.275   4.184  1.00148.93    -0.171 OA
ENDROOT
BRANCH  10  12
HETATM   12  C18 MIQ B 502     -14.178 -13.122   5.072  1.00139.82     0.187 C 
HETATM   13  C19 MIQ B 502     -13.911 -11.713   5.617  1.00140.06     0.247 C 
HETATM   14  O25 MIQ B 502     -14.299 -10.778   5.010  1.00143.95    -0.271 OA
HETATM   15  N20 MIQ B 502     -13.200 -11.497   6.860  1.00140.02    -0.296 N 
HETATM   16  H13 MIQ B 502     -13.026 -10.572   7.201  1.00142.77     0.171 HD
HETATM   17  C21 MIQ B 502     -12.728 -12.653   7.577  1.00142.22     0.224 C 
HETATM   18  C22 MIQ B 502     -12.293 -13.842   6.741  1.00139.52     0.106 C 
HETATM   19  O24 MIQ B 502     -12.687 -12.674   8.758  1.00146.13    -0.273 OA
HETATM   20  C23 MIQ B 502     -13.482 -14.219   5.876  1.00139.15     0.045 C 
ENDBRANCH  10  12
BRANCH   5  21
HETATM   21  N6  MIQ B 502     -13.197 -13.876  -2.383  1.00140.95    -0.377 N 
HETATM   22  C7  MIQ B 502     -12.950 -15.231  -2.846  1.00142.12     0.149 C 
HETATM   23  C8  MIQ B 502     -12.646 -15.276  -4.338  1.00144.10     0.187 C 
HETATM   24  O9  MIQ B 502     -13.556 -14.541  -5.100  1.00148.65    -0.388 OA
HETATM   25  C10 MIQ B 502     -14.476 -13.692  -4.480  1.00147.44     0.187 C 
HETATM   26  C11 MIQ B 502     -14.085 -13.031  -3.162  1.00144.08     0.149 C 
ENDBRANCH   5  21
TORSDOF 2
ENDMDL
MODEL 5
REMARK VINA RESULT:      -6.2      4.320      8.003
REMARK  2 active torsions:
REMARK  status: ('A' for Active; 'I' for Inactive)
REMARK    1  A    between atoms: C5_5  and  N6_21 
REMARK    2  A    between atoms: C18_14  and  N17_19 
ROOT
HETATM    1  O1  MIQ B 502     -13.355 -16.353   3.031  1.00142.91    -0.171 OA
HETATM    2  C2  MIQ B 502     -12.140 -15.827   3.474  1.00141.17     0.195 A 
HETATM    3  C3  MIQ B 502     -10.717 -16.353   3.102  1.00141.71     0.035 A 
HETATM    4  C4  MIQ B 502     -10.232 -17.462   2.247  1.00142.86     0.046 A 
HETATM    5  C5  MIQ B 502      -8.841 -17.698   2.099  1.00139.53     0.031 A 
HETATM    6  C12 MIQ B 502      -7.886 -16.845   2.792  1.00139.38     0.030 A 
HETATM    7  C13 MIQ B 502      -8.351 -15.781   3.611  1.00141.18     0.019 A 
HETATM    8  C14 MIQ B 502      -9.812 -15.537   3.761  1.00138.77     0.033 A 
HETATM    9  C15 MIQ B 502     -10.678 -14.498   4.545  1.00142.10     0.195 A 
HETATM   10  N17 MIQ B 502     -11.938 -14.796   4.277  1.00139.42    -0.288 N 
HETATM   11  O16 MIQ B 502     -10.210 -13.468   5.364  1.00148.93    -0.171 OA
ENDROOT
BRANCH  10  12
HETATM   12  C18 MIQ B 502     -13.035 -14.041   4.854  1.00139.82     0.187 C 
HETATM   13  C19 MIQ B 502     -12.801 -12.559   4.535  1.00140.06     0.247 C 
HETATM   14  O25 MIQ B 502     -12.583 -12.237   3.421  1.00143.95    -0.271 OA
HETATM   15  N20 MIQ B 502     -12.846 -11.540   5.564  1.00140.02    -0.296 N 
HETATM   16  H13 MIQ B 502     -12.686 -10.577   5.344  1.00142.77     0.171 HD
HETATM   17  C21 MIQ B 502     -13.104 -11.960   6.917  1.00142.22     0.224 C 
HETATM   18  C22 MIQ B 502     -12.562 -13.316   7.325  1.00139.52     0.106 C 
HETATM   19  O24 MIQ B 502     -13.713 -11.280   7.669  1.00146.13    -0.273 OA
HETATM   20  C23 MIQ B 502     -13.145 -14.324   6.351  1.00139.15     0.045 C 
ENDBRANCH  10  12
BRANCH   5  21
HETATM   21  N6  MIQ B 502      -8.381 -18.796   1.270  1.00140.95    -0.377 N 
HETATM   22  C7  MIQ B 502      -9.303 -19.375   0.308  1.00142.12     0.149 C 
HETATM   23  C8  MIQ B 502      -8.967 -20.829   0.001  1.00144.10     0.187 C 
HETATM   24  O9  MIQ B 502      -7.613 -21.026  -0.277  1.00148.65    -0.388 OA
HETATM   25  C10 MIQ B 502      -6.687 -20.005  -0.049  1.00147.44     0.187 C 
HETATM   26  C11 MIQ B 502      -6.957 -19.014   1.079  1.00144.08     0.149 C 
ENDBRANCH   5  21
TORSDOF 2
ENDMDL
MODEL 6
REMARK VINA RESULT:      -6.2      2.763      3.570
REMARK  2 active torsions:
REMARK  status: ('A' for Active; 'I' for Inactive)
REMARK    1  A    between atoms: C5_5  and  N6_21 
REMARK    2  A    between atoms: C18_14  and  N17_19 
ROOT
HETATM    1  O1  MIQ B 502     -10.543 -11.909   1.492  1.00142.91    -0.171 OA
HETATM    2  C2  MIQ B 502     -10.941 -13.162   1.021  1.00141.17     0.195 A 
HETATM    3  C3  MIQ B 502     -11.783 -14.218   1.806  1.00141.71     0.035 A 
HETATM    4  C4  MIQ B 502     -12.379 -14.241   3.163  1.00142.86     0.046 A 
HETATM    5  C5  MIQ B 502     -13.111 -15.372   3.605  1.00139.53     0.031 A 
HETATM    6  C12 MIQ B 502     -13.278 -16.516   2.720  1.00139.38     0.030 A 
HETATM    7  C13 MIQ B 502     -12.708 -16.494   1.418  1.00141.18     0.019 A 
HETATM    8  C14 MIQ B 502     -11.943 -15.303   0.959  1.00138.77     0.033 A 
HETATM    9  C15 MIQ B 502     -11.196 -14.918  -0.360  1.00142.10     0.195 A 
HETATM   10  N17 MIQ B 502     -10.703 -13.707  -0.160  1.00139.42    -0.288 N 
HETATM   11  O16 MIQ B 502     -11.075 -15.699  -1.510  1.00148.93    -0.171 OA
ENDROOT
BRANCH  10  12
HETATM   12  C18 MIQ B 502      -9.925 -13.028  -1.180  1.00139.82     0.187 C 
HETATM   13  C19 MIQ B 502      -8.524 -12.774  -0.608  1.00140.06     0.247 C 
HETATM   14  O25 MIQ B 502      -7.929 -13.670  -0.123  1.00143.95    -0.271 OA
HETATM   15  N20 MIQ B 502      -7.908 -11.464  -0.651  1.00140.02    -0.296 N 
HETATM   16  H13 MIQ B 502      -6.996 -11.310  -0.269  1.00142.77     0.171 HD
HETATM   17  C21 MIQ B 502      -8.659 -10.384  -1.239  1.00142.22     0.224 C 
HETATM   18  C22 MIQ B 502     -10.164 -10.423  -1.057  1.00139.52     0.106 C 
HETATM   19  O24 MIQ B 502      -8.126  -9.515  -1.837  1.00146.13    -0.273 OA
HETATM   20  C23 MIQ B 502     -10.633 -11.750  -1.626  1.00139.15     0.045 C 
ENDBRANCH  10  12
BRANCH   5  21
HETATM   21  N6  MIQ B 502     -13.677 -15.387   4.942  1.00140.95    -0.377 N 
HETATM   22  C7  MIQ B 502     -14.113 -14.131   5.526  1.00142.12     0.149 C 
HETATM   23  C8  MIQ B 502     -14.062 -14.163   7.048  1.00144.10     0.187 C 
HETATM   24  O9  MIQ B 502     -14.652 -15.308   7.587  1.00148.65    -0.388 OA
HETATM   25  C10 MIQ B 502     -15.014 -16.374   6.759  1.00147.44     0.187 C 
HETATM   26  C11 MIQ B 502     -14.201 -16.624   5.494  1.00144.08     0.149 C 
ENDBRANCH   5  21
TORSDOF 2
ENDMDL
MODEL 7
REMARK VINA RESULT:      -6.2      9.780     13.722
REMARK  2 active torsions:
REMARK  status: ('A' for Active; 'I' for Inactive)
REMARK    1  A    between atoms: C5_5  and  N6_21 
REMARK    2  A    between atoms: C18_14  and  N17_19 
ROOT
HETATM    1  O1  MIQ B 502     -17.377  -6.274 -10.458  1.00142.91    -0.171 OA
HETATM    2  C2  MIQ B 502     -16.298  -6.103  -9.587  1.00141.17     0.195 A 
HETATM    3  C3  MIQ B 502     -15.745  -7.164  -8.584  1.00141.71     0.035 A 
HETATM    4  C4  MIQ B 502     -16.133  -8.557  -8.257  1.00142.86     0.046 A 
HETATM    5  C5  MIQ B 502     -15.420  -9.288  -7.273  1.00139.53     0.031 A 
HETATM    6  C12 MIQ B 502     -14.299  -8.666  -6.582  1.00139.38     0.030 A 
HETATM    7  C13 MIQ B 502     -13.926  -7.331  -6.896  1.00141.18     0.019 A 
HETATM    8  C14 MIQ B 502     -14.677  -6.570  -7.932  1.00138.77     0.033 A 
HETATM    9  C15 MIQ B 502     -14.566  -5.131  -8.534  1.00142.10     0.195 A 
HETATM   10  N17 MIQ B 502     -15.531  -5.037  -9.434  1.00139.42    -0.288 N 
HETATM   11  O16 MIQ B 502     -13.638  -4.149  -8.186  1.00148.93    -0.171 OA
ENDROOT
BRANCH  10  12
HETATM   12  C18 MIQ B 502     -15.743  -3.818 -10.192  1.00139.82     0.187 C 
HETATM   13  C19 MIQ B 502     -14.450  -3.512 -10.958  1.00140.06     0.247 C 
HETATM   14  O25 MIQ B 502     -13.955  -4.359 -11.614  1.00143.95    -0.271 OA
HETATM   15  N20 MIQ B 502     -13.819  -2.209 -10.903  1.00140.02    -0.296 N 
HETATM   16  H13 MIQ B 502     -12.972  -2.024 -11.402  1.00142.77     0.171 HD
HETATM   17  C21 MIQ B 502     -14.436  -1.196 -10.086  1.00142.22     0.224 C 
HETATM   18  C22 MIQ B 502     -15.136  -1.668  -8.826  1.00139.52     0.106 C 
HETATM   19  O24 MIQ B 502     -14.402  -0.054 -10.389  1.00146.13    -0.273 OA
HETATM   20  C23 MIQ B 502     -16.175  -2.683  -9.265  1.00139.15     0.045 C 
ENDBRANCH  10  12
BRANCH   5  21
HETATM   21  N6  MIQ B 502     -15.821 -10.645  -6.952  1.00140.95    -0.377 N 
HETATM   22  C7  MIQ B 502     -17.066 -11.150  -7.503  1.00142.12     0.149 C 
HETATM   23  C8  MIQ B 502     -17.671 -12.244  -6.632  1.00144.10     0.187 C 
HETATM   24  O9  MIQ B 502     -16.743 -13.219  -6.262  1.00148.65    -0.388 OA
HETATM   25  C10 MIQ B 502     -15.380 -13.026  -6.500  1.00147.44     0.187 C 
HETATM   26  C11 MIQ B 502     -14.832 -11.603  -6.487  1.00144.08     0.149 C 
ENDBRANCH   5  21
TORSDOF 2
ENDMDL
MODEL 8
REMARK VINA RESULT:      -6.2     11.396     14.890
REMARK  2 active torsions:
REMARK  status: ('A' for Active; 'I' for Inactive)
REMARK    1  A    between atoms: C5_5  and  N6_21 
REMARK    2  A    between atoms: C18_14  and  N17_19 
ROOT
HETATM    1  O1  MIQ B 502     -14.330  -5.251  -7.060  1.00142.91    -0.171 OA
HETATM    2  C2  MIQ B 502     -15.146  -5.255  -8.193  1.00141.17     0.195 A 
HETATM    3  C3  MIQ B 502     -16.106  -6.406  -8.634  1.00141.71     0.035 A 
HETATM    4  C4  MIQ B 502     -16.439  -7.731  -8.060  1.00142.86     0.046 A 
HETATM    5  C5  MIQ B 502     -17.376  -8.577  -8.706  1.00139.53     0.031 A 
HETATM    6  C12 MIQ B 502     -18.015  -8.139  -9.939  1.00139.38     0.030 A 
HETATM    7  C13 MIQ B 502     -17.697  -6.868 -10.489  1.00141.18     0.019 A 
HETATM    8  C14 MIQ B 502     -16.714  -5.984  -9.805  1.00138.77     0.033 A 
HETATM    9  C15 MIQ B 502     -16.128  -4.563 -10.093  1.00142.10     0.195 A 
HETATM   10  N17 MIQ B 502     -15.282  -4.310  -9.108  1.00139.42    -0.288 N 
HETATM   11  O16 MIQ B 502     -16.437  -3.734 -11.173  1.00148.93    -0.171 OA
ENDROOT
BRANCH  10  12
HETATM   12  C18 MIQ B 502     -14.531  -3.070  -9.054  1.00139.82     0.187 C 
HETATM   13  C19 MIQ B 502     -15.526  -1.913  -9.206  1.00140.06     0.247 C 
HETATM   14  O25 MIQ B 502     -16.481  -1.880  -8.513  1.00143.95    -0.271 OA
HETATM   15  N20 MIQ B 502     -15.325  -0.854 -10.173  1.00140.02    -0.296 N 
HETATM   16  H13 MIQ B 502     -15.986  -0.108 -10.267  1.00142.77     0.171 HD
HETATM   17  C21 MIQ B 502     -14.158  -0.922 -11.014  1.00142.22     0.224 C 
HETATM   18  C22 MIQ B 502     -13.683  -2.306 -11.411  1.00139.52     0.106 C 
HETATM   19  O24 MIQ B 502     -13.596   0.055 -11.371  1.00146.13    -0.273 OA
HETATM   20  C23 MIQ B 502     -13.436  -3.064 -10.120  1.00139.15     0.045 C 
ENDBRANCH  10  12
BRANCH   5  21
HETATM   21  N6  MIQ B 502     -17.682  -9.878  -8.141  1.00140.95    -0.377 N 
HETATM   22  C7  MIQ B 502     -16.601 -10.654  -7.558  1.00142.12     0.149 C 
HETATM   23  C8  MIQ B 502     -16.884 -12.150  -7.605  1.00144.10     0.187 C 
HETATM   24  O9  MIQ B 502     -18.163 -12.475  -7.152  1.00148.65    -0.388 OA
HETATM   25  C10 MIQ B 502     -19.109 -11.473  -6.920  1.00147.44     0.187 C 
HETATM   26  C11 MIQ B 502     -19.046 -10.203  -7.763  1.00144.08     0.149 C 
ENDBRANCH   5  21
TORSDOF 2
ENDMDL
MODEL 9
REMARK VINA RESULT:      -6.1      3.089      8.056
REMARK  2 active torsions:
REMARK  status: ('A' for Active; 'I' for Inactive)
REMARK    1  A    between atoms: C5_5  and  N6_21 
REMARK    2  A    between atoms: C18_14  and  N17_19 
ROOT
HETATM    1  O1  MIQ B 502     -10.939 -16.010   4.529  1.00142.91    -0.171 OA
HETATM    2  C2  MIQ B 502     -11.353 -14.866   3.843  1.00141.17     0.195 A 
HETATM    3  C3  MIQ B 502     -10.871 -14.414   2.428  1.00141.71     0.035 A 
HETATM    4  C4  MIQ B 502      -9.920 -14.984   1.445  1.00142.86     0.046 A 
HETATM    5  C5  MIQ B 502      -9.685 -14.327   0.210  1.00139.53     0.031 A 
HETATM    6  C12 MIQ B 502     -10.383 -13.086  -0.092  1.00139.38     0.030 A 
HETATM    7  C13 MIQ B 502     -11.295 -12.539   0.850  1.00141.18     0.019 A 
HETATM    8  C14 MIQ B 502     -11.540 -13.234   2.143  1.00138.77     0.033 A 
HETATM    9  C15 MIQ B 502     -12.443 -12.953   3.388  1.00142.10     0.195 A 
HETATM   10  N17 MIQ B 502     -12.223 -13.949   4.231  1.00139.42    -0.288 N 
HETATM   11  O16 MIQ B 502     -13.303 -11.869   3.570  1.00148.93    -0.171 OA
ENDROOT
BRANCH  10  12
HETATM   12  C18 MIQ B 502     -12.888 -14.012   5.519  1.00139.82     0.187 C 
HETATM   13  C19 MIQ B 502     -14.398 -13.919   5.271  1.00140.06     0.247 C 
HETATM   14  O25 MIQ B 502     -14.898 -14.640   4.483  1.00143.95    -0.271 OA
HETATM   15  N20 MIQ B 502     -15.232 -12.973   5.984  1.00140.02    -0.296 N 
HETATM   16  H13 MIQ B 502     -16.216 -12.918   5.808  1.00142.77     0.171 HD
HETATM   17  C21 MIQ B 502     -14.598 -12.096   6.934  1.00142.22     0.224 C 
HETATM   18  C22 MIQ B 502     -13.185 -11.650   6.612  1.00139.52     0.106 C 
HETATM   19  O24 MIQ B 502     -15.152 -11.748   7.918  1.00146.13    -0.273 OA
HETATM   20  C23 MIQ B 502     -12.362 -12.914   6.443  1.00139.15     0.045 C 
ENDBRANCH  10  12
BRANCH   5  21
HETATM   21  N6  MIQ B 502      -8.740 -14.889  -0.737  1.00140.95    -0.377 N 
HETATM   22  C7  MIQ B 502      -7.341 -14.977  -0.353  1.00142.12     0.149 C 
HETATM   23  C8  MIQ B 502      -6.417 -14.953  -1.564  1.00144.10     0.187 C 
HETATM   24  O9  MIQ B 502      -6.816 -15.834  -2.570  1.00148.65    -0.388 OA
HETATM   25  C10 MIQ B 502      -8.063 -16.462  -2.508  1.00147.44     0.187 C 
HETATM   26  C11 MIQ B 502      -9.213 -15.733  -1.820  1.00144.08     0.149 C 
ENDBRANCH   5  21
TORSDOF 2
ENDMDL
