MODEL 1
REMARK VINA RESULT:      -6.3      0.000      0.000
REMARK  2 active torsions:
REMARK  status: ('A' for Active; 'I' for Inactive)
REMARK    1  A    between atoms: C5_5  and  N6_21 
REMARK    2  A    between atoms: C18_14  and  N17_19 
ROOT
HETATM    1  O1  MIQ B 502      -5.110 -16.629  20.855  1.00142.91    -0.171 OA
HETATM    2  C2  MIQ B 502      -5.054 -17.405  19.696  1.00141.17     0.195 A 
HETATM    3  C3  MIQ B 502      -6.213 -18.272  19.109  1.00141.71     0.035 A 
HETATM    4  C4  MIQ B 502      -7.608 -18.531  19.537  1.00142.86     0.046 A 
HETATM    5  C5  MIQ B 502      -8.444 -19.388  18.776  1.00139.53     0.031 A 
HETATM    6  C12 MIQ B 502      -7.927 -20.015  17.568  1.00139.38     0.030 A 
HETATM    7  C13 MIQ B 502      -6.590 -19.766  17.157  1.00141.18     0.019 A 
HETATM    8  C14 MIQ B 502      -5.718 -18.864  17.959  1.00138.77     0.033 A 
HETATM    9  C15 MIQ B 502      -4.243 -18.361  17.830  1.00142.10     0.195 A 
HETATM   10  N17 MIQ B 502      -4.037 -17.564  18.865  1.00139.42    -0.288 N 
HETATM   11  O16 MIQ B 502      -3.332 -18.692  16.825  1.00148.93    -0.171 OA
ENDROOT
BRANCH  10  12
HETATM   12  C18 MIQ B 502      -2.755 -16.920  19.082  1.00139.82     0.187 C 
HETATM   13  C19 MIQ B 502      -2.321 -17.216  20.523  1.00140.06     0.247 C 
HETATM   14  O25 MIQ B 502      -2.325 -18.331  20.908  1.00143.95    -0.271 OA
HETATM   15  N20 MIQ B 502      -1.900 -16.163  21.425  1.00140.02    -0.296 N 
HETATM   16  H13 MIQ B 502      -1.625 -16.369  22.366  1.00142.77     0.171 HD
HETATM   17  C21 MIQ B 502      -1.915 -14.809  20.935  1.00142.22     0.224 C 
HETATM   18  C22 MIQ B 502      -3.001 -14.457  19.937  1.00139.52     0.106 C 
HETATM   19  O24 MIQ B 502      -1.115 -14.015  21.291  1.00146.13    -0.273 OA
HETATM   20  C23 MIQ B 502      -2.852 -15.426  18.778  1.00139.15     0.045 C 
ENDBRANCH  10  12
BRANCH   5  21
HETATM   21  N6  MIQ B 502      -9.803 -19.644  19.215  1.00140.95    -0.377 N 
HETATM   22  C7  MIQ B 502     -10.420 -20.911  18.860  1.00142.12     0.149 C 
HETATM   23  C8  MIQ B 502     -11.938 -20.804  18.791  1.00144.10     0.187 C 
HETATM   24  O9  MIQ B 502     -12.489 -20.163  19.902  1.00148.65    -0.388 OA
HETATM   25  C10 MIQ B 502     -11.666 -19.507  20.821  1.00147.44     0.187 C 
HETATM   26  C11 MIQ B 502     -10.363 -18.890  20.323  1.00144.08     0.149 C 
ENDBRANCH   5  21
TORSDOF 2
ENDMDL
MODEL 2
REMARK VINA RESULT:      -6.1      1.045      1.235
REMARK  2 active torsions:
REMARK  status: ('A' for Active; 'I' for Inactive)
REMARK    1  A    between atoms: C5_5  and  N6_21 
REMARK    2  A    between atoms: C18_14  and  N17_19 
ROOT
HETATM    1  O1  MIQ B 502      -5.411 -17.104  21.000  1.00142.91    -0.171 OA
HETATM    2  C2  MIQ B 502      -5.568 -17.797  19.798  1.00141.17     0.195 A 
HETATM    3  C3  MIQ B 502      -6.802 -18.663  19.387  1.00141.71     0.035 A 
HETATM    4  C4  MIQ B 502      -8.079 -19.000  20.059  1.00142.86     0.046 A 
HETATM    5  C5  MIQ B 502      -9.030 -19.832  19.415  1.00139.53     0.031 A 
HETATM    6  C12 MIQ B 502      -8.748 -20.357  18.086  1.00139.38     0.030 A 
HETATM    7  C13 MIQ B 502      -7.524 -20.033  17.442  1.00141.18     0.019 A 
HETATM    8  C14 MIQ B 502      -6.531 -19.157  18.121  1.00138.77     0.033 A 
HETATM    9  C15 MIQ B 502      -5.122 -18.594  17.744  1.00142.10     0.195 A 
HETATM   10  N17 MIQ B 502      -4.733 -17.862  18.775  1.00139.42    -0.288 N 
HETATM   11  O16 MIQ B 502      -4.421 -18.823  16.559  1.00148.93    -0.171 OA
ENDROOT
BRANCH  10  12
HETATM   12  C18 MIQ B 502      -3.447 -17.189  18.784  1.00139.82     0.187 C 
HETATM   13  C19 MIQ B 502      -2.726 -17.577  20.080  1.00140.06     0.247 C 
HETATM   14  O25 MIQ B 502      -2.628 -18.717  20.366  1.00143.95    -0.271 OA
HETATM   15  N20 MIQ B 502      -2.154 -16.581  20.964  1.00140.02    -0.296 N 
HETATM   16  H13 MIQ B 502      -1.691 -16.847  21.810  1.00142.77     0.171 HD
HETATM   17  C21 MIQ B 502      -2.296 -15.195  20.599  1.00142.22     0.224 C 
HETATM   18  C22 MIQ B 502      -3.568 -14.809  19.870  1.00139.52     0.106 C 
HETATM   19  O24 MIQ B 502      -1.458 -14.401  20.851  1.00146.13    -0.273 OA
HETATM   20  C23 MIQ B 502      -3.636 -15.681  18.629  1.00139.15     0.045 C 
ENDBRANCH  10  12
BRANCH   5  21
HETATM   21  N6  MIQ B 502     -10.270 -20.166  20.091  1.00140.95    -0.377 N 
HETATM   22  C7  MIQ B 502     -10.215 -20.564  21.487  1.00142.12     0.149 C 
HETATM   23  C8  MIQ B 502     -11.382 -21.465  21.868  1.00144.10     0.187 C 
HETATM   24  O9  MIQ B 502     -12.615 -20.970  21.437  1.00148.65    -0.388 OA
HETATM   25  C10 MIQ B 502     -12.673 -19.888  20.555  1.00147.44     0.187 C 
HETATM   26  C11 MIQ B 502     -11.537 -19.699  19.555  1.00144.08     0.149 C 
ENDBRANCH   5  21
TORSDOF 2
ENDMDL
MODEL 3
REMARK VINA RESULT:      -6.1      3.267      8.431
REMARK  2 active torsions:
REMARK  status: ('A' for Active; 'I' for Inactive)
REMARK    1  A    between atoms: C5_5  and  N6_21 
REMARK    2  A    between atoms: C18_14  and  N17_19 
ROOT
HETATM    1  O1  MIQ B 502     -10.450 -20.471  18.805  1.00142.91    -0.171 OA
HETATM    2  C2  MIQ B 502      -9.523 -20.149  19.798  1.00141.17     0.195 A 
HETATM    3  C3  MIQ B 502      -8.097 -19.554  19.571  1.00141.71     0.035 A 
HETATM    4  C4  MIQ B 502      -7.334 -19.172  18.359  1.00142.86     0.046 A 
HETATM    5  C5  MIQ B 502      -6.023 -18.644  18.475  1.00139.53     0.031 A 
HETATM    6  C12 MIQ B 502      -5.426 -18.475  19.792  1.00139.38     0.030 A 
HETATM    7  C13 MIQ B 502      -6.157 -18.840  20.954  1.00141.18     0.019 A 
HETATM    8  C14 MIQ B 502      -7.534 -19.393  20.826  1.00138.77     0.033 A 
HETATM    9  C15 MIQ B 502      -8.617 -19.889  21.839  1.00142.10     0.195 A 
HETATM   10  N17 MIQ B 502      -9.653 -20.269  21.109  1.00139.42    -0.288 N 
HETATM   11  O16 MIQ B 502      -8.507 -19.924  23.230  1.00148.93    -0.171 OA
ENDROOT
BRANCH  10  12
HETATM   12  C18 MIQ B 502     -10.853 -20.807  21.720  1.00139.82     0.187 C 
HETATM   13  C19 MIQ B 502     -11.140 -22.167  21.070  1.00140.06     0.247 C 
HETATM   14  O25 MIQ B 502     -10.277 -22.970  21.011  1.00143.95    -0.271 OA
HETATM   15  N20 MIQ B 502     -12.443 -22.496  20.531  1.00140.02    -0.296 N 
HETATM   16  H13 MIQ B 502     -12.615 -23.385  20.103  1.00142.77     0.171 HD
HETATM   17  C21 MIQ B 502     -13.476 -21.496  20.605  1.00142.22     0.224 C 
HETATM   18  C22 MIQ B 502     -13.035 -20.050  20.485  1.00139.52     0.106 C 
HETATM   19  O24 MIQ B 502     -14.611 -21.789  20.758  1.00146.13    -0.273 OA
HETATM   20  C23 MIQ B 502     -12.010 -19.819  21.581  1.00139.15     0.045 C 
ENDBRANCH  10  12
BRANCH   5  21
HETATM   21  N6  MIQ B 502      -5.281 -18.287  17.279  1.00140.95    -0.377 N 
HETATM   22  C7  MIQ B 502      -4.501 -17.062  17.285  1.00142.12     0.149 C 
HETATM   23  C8  MIQ B 502      -4.329 -16.490  15.884  1.00144.10     0.187 C 
HETATM   24  O9  MIQ B 502      -3.929 -17.449  14.951  1.00148.65    -0.388 OA
HETATM   25  C10 MIQ B 502      -3.934 -18.806  15.284  1.00147.44     0.187 C 
HETATM   26  C11 MIQ B 502      -4.961 -19.305  16.294  1.00144.08     0.149 C 
ENDBRANCH   5  21
TORSDOF 2
ENDMDL
MODEL 4
REMARK VINA RESULT:      -6.0      6.450     10.468
REMARK  2 active torsions:
REMARK  status: ('A' for Active; 'I' for Inactive)
REMARK    1  A    between atoms: C5_5  and  N6_21 
REMARK    2  A    between atoms: C18_14  and  N17_19 
ROOT
HETATM    1  O1  MIQ B 502     -14.246 -22.541  18.005  1.00142.91    -0.171 OA
HETATM    2  C2  MIQ B 502     -13.234 -21.821  18.643  1.00141.17     0.195 A 
HETATM    3  C3  MIQ B 502     -11.911 -21.310  17.987  1.00141.71     0.035 A 
HETATM    4  C4  MIQ B 502     -11.350 -21.405  16.619  1.00142.86     0.046 A 
HETATM    5  C5  MIQ B 502     -10.091 -20.825  16.319  1.00139.53     0.031 A 
HETATM    6  C12 MIQ B 502      -9.348 -20.132  17.361  1.00139.38     0.030 A 
HETATM    7  C13 MIQ B 502      -9.886 -20.041  18.673  1.00141.18     0.019 A 
HETATM    8  C14 MIQ B 502     -11.209 -20.650  18.982  1.00138.77     0.033 A 
HETATM    9  C15 MIQ B 502     -12.101 -20.750  20.262  1.00142.10     0.195 A 
HETATM   10  N17 MIQ B 502     -13.181 -21.423  19.903  1.00139.42    -0.288 N 
HETATM   11  O16 MIQ B 502     -11.810 -20.233  21.526  1.00148.93    -0.171 OA
ENDROOT
BRANCH  10  12
HETATM   12  C18 MIQ B 502     -14.237 -21.724  20.852  1.00139.82     0.187 C 
HETATM   13  C19 MIQ B 502     -14.514 -23.231  20.782  1.00140.06     0.247 C 
HETATM   14  O25 MIQ B 502     -13.613 -23.987  20.871  1.00143.95    -0.271 OA
HETATM   15  N20 MIQ B 502     -15.854 -23.754  20.614  1.00140.02    -0.296 N 
HETATM   16  H13 MIQ B 502     -16.021 -24.740  20.563  1.00142.77     0.171 HD
HETATM   17  C21 MIQ B 502     -16.936 -22.811  20.496  1.00142.22     0.224 C 
HETATM   18  C22 MIQ B 502     -16.625 -21.500  19.801  1.00139.52     0.106 C 
HETATM   19  O24 MIQ B 502     -18.011 -23.048  20.926  1.00146.13    -0.273 OA
HETATM   20  C23 MIQ B 502     -15.471 -20.872  20.562  1.00139.15     0.045 C 
ENDBRANCH  10  12
BRANCH   5  21
HETATM   21  N6  MIQ B 502      -9.547 -20.938  14.978  1.00140.95    -0.377 N 
HETATM   22  C7  MIQ B 502      -8.373 -21.769  14.773  1.00142.12     0.149 C 
HETATM   23  C8  MIQ B 502      -7.558 -21.315  13.569  1.00144.10     0.187 C 
HETATM   24  O9  MIQ B 502      -8.341 -21.096  12.433  1.00148.65    -0.388 OA
HETATM   25  C10 MIQ B 502      -9.735 -21.085  12.526  1.00147.44     0.187 C 
HETATM   26  C11 MIQ B 502     -10.375 -20.616  13.829  1.00144.08     0.149 C 
ENDBRANCH   5  21
TORSDOF 2
ENDMDL
MODEL 5
REMARK VINA RESULT:      -6.0      4.221      6.607
REMARK  2 active torsions:
REMARK  status: ('A' for Active; 'I' for Inactive)
REMARK    1  A    between atoms: C5_5  and  N6_21 
REMARK    2  A    between atoms: C18_14  and  N17_19 
ROOT
HETATM    1  O1  MIQ B 502      -1.067 -16.427  19.428  1.00142.91    -0.171 OA
HETATM    2  C2  MIQ B 502      -2.355 -16.618  18.922  1.00141.17     0.195 A 
HETATM    3  C3  MIQ B 502      -2.744 -17.514  17.704  1.00141.71     0.035 A 
HETATM    4  C4  MIQ B 502      -1.964 -18.371  16.779  1.00142.86     0.046 A 
HETATM    5  C5  MIQ B 502      -2.616 -19.083  15.741  1.00139.53     0.031 A 
HETATM    6  C12 MIQ B 502      -4.060 -18.973  15.584  1.00139.38     0.030 A 
HETATM    7  C13 MIQ B 502      -4.807 -18.153  16.472  1.00141.18     0.019 A 
HETATM    8  C14 MIQ B 502      -4.118 -17.409  17.561  1.00138.77     0.033 A 
HETATM    9  C15 MIQ B 502      -4.584 -16.442  18.698  1.00142.10     0.195 A 
HETATM   10  N17 MIQ B 502      -3.490 -16.100  19.358  1.00139.42    -0.288 N 
HETATM   11  O16 MIQ B 502      -5.891 -16.026  18.957  1.00148.93    -0.171 OA
ENDROOT
BRANCH  10  12
HETATM   12  C18 MIQ B 502      -3.540 -15.188  20.485  1.00139.82     0.187 C 
HETATM   13  C19 MIQ B 502      -2.511 -14.078  20.235  1.00140.06     0.247 C 
HETATM   14  O25 MIQ B 502      -2.522 -13.505  19.204  1.00143.95    -0.271 OA
HETATM   15  N20 MIQ B 502      -1.528 -13.709  21.233  1.00140.02    -0.296 N 
HETATM   16  H13 MIQ B 502      -0.858 -12.987  21.054  1.00142.77     0.171 HD
HETATM   17  C21 MIQ B 502      -1.529 -14.430  22.480  1.00142.22     0.224 C 
HETATM   18  C22 MIQ B 502      -1.922 -15.893  22.420  1.00139.52     0.106 C 
HETATM   19  O24 MIQ B 502      -1.241 -13.903  23.498  1.00146.13    -0.273 OA
HETATM   20  C23 MIQ B 502      -3.303 -15.943  21.792  1.00139.15     0.045 C 
ENDBRANCH  10  12
BRANCH   5  21
HETATM   21  N6  MIQ B 502      -1.839 -19.907  14.833  1.00140.95    -0.377 N 
HETATM   22  C7  MIQ B 502      -0.891 -20.855  15.393  1.00142.12     0.149 C 
HETATM   23  C8  MIQ B 502       0.252 -21.152  14.432  1.00144.10     0.187 C 
HETATM   24  O9  MIQ B 502      -0.186 -21.440  13.138  1.00148.65    -0.388 OA
HETATM   25  C10 MIQ B 502      -1.520 -21.230  12.780  1.00147.44     0.187 C 
HETATM   26  C11 MIQ B 502      -2.292 -20.109  13.468  1.00144.08     0.149 C 
ENDBRANCH   5  21
TORSDOF 2
ENDMDL
MODEL 6
REMARK VINA RESULT:      -6.0      5.075      8.905
REMARK  2 active torsions:
REMARK  status: ('A' for Active; 'I' for Inactive)
REMARK    1  A    between atoms: C5_5  and  N6_21 
REMARK    2  A    between atoms: C18_14  and  N17_19 
ROOT
HETATM    1  O1  MIQ B 502     -11.955 -24.283  21.325  1.00142.91    -0.171 OA
HETATM    2  C2  MIQ B 502     -12.409 -22.971  21.177  1.00141.17     0.195 A 
HETATM    3  C3  MIQ B 502     -13.880 -22.530  20.891  1.00141.71     0.035 A 
HETATM    4  C4  MIQ B 502     -15.148 -23.273  20.704  1.00142.86     0.046 A 
HETATM    5  C5  MIQ B 502     -16.357 -22.576  20.453  1.00139.53     0.031 A 
HETATM    6  C12 MIQ B 502     -16.351 -21.122  20.378  1.00139.38     0.030 A 
HETATM    7  C13 MIQ B 502     -15.135 -20.409  20.557  1.00141.18     0.019 A 
HETATM    8  C14 MIQ B 502     -13.869 -21.146  20.824  1.00138.77     0.033 A 
HETATM    9  C15 MIQ B 502     -12.384 -20.726  21.070  1.00142.10     0.195 A 
HETATM   10  N17 MIQ B 502     -11.711 -21.850  21.250  1.00139.42    -0.288 N 
HETATM   11  O16 MIQ B 502     -11.876 -19.426  21.092  1.00148.93    -0.171 OA
ENDROOT
BRANCH  10  12
HETATM   12  C18 MIQ B 502     -10.280 -21.846  21.492  1.00139.82     0.187 C 
HETATM   13  C19 MIQ B 502     -10.008 -20.907  22.673  1.00140.06     0.247 C 
HETATM   14  O25 MIQ B 502     -10.623 -21.042  23.670  1.00143.95    -0.271 OA
HETATM   15  N20 MIQ B 502      -9.011 -19.858  22.601  1.00140.02    -0.296 N 
HETATM   16  H13 MIQ B 502      -8.848 -19.247  23.376  1.00142.77     0.171 HD
HETATM   17  C21 MIQ B 502      -8.281 -19.706  21.369  1.00142.22     0.224 C 
HETATM   18  C22 MIQ B 502      -9.030 -20.023  20.089  1.00139.52     0.106 C 
HETATM   19  O24 MIQ B 502      -7.152 -19.356  21.359  1.00146.13    -0.273 OA
HETATM   20  C23 MIQ B 502      -9.527 -21.450  20.223  1.00139.15     0.045 C 
ENDBRANCH  10  12
BRANCH   5  21
HETATM   21  N6  MIQ B 502     -17.590 -23.318  20.258  1.00140.95    -0.377 N 
HETATM   22  C7  MIQ B 502     -17.513 -24.658  19.703  1.00142.12     0.149 C 
HETATM   23  C8  MIQ B 502     -18.793 -25.046  18.973  1.00144.10     0.187 C 
HETATM   24  O9  MIQ B 502     -19.945 -24.770  19.713  1.00148.65    -0.388 OA
HETATM   25  C10 MIQ B 502     -19.871 -24.008  20.881  1.00147.44     0.187 C 
HETATM   26  C11 MIQ B 502     -18.787 -22.940  20.987  1.00144.08     0.149 C 
ENDBRANCH   5  21
TORSDOF 2
ENDMDL
MODEL 7
REMARK VINA RESULT:      -5.9      2.075      2.480
REMARK  2 active torsions:
REMARK  status: ('A' for Active; 'I' for Inactive)
REMARK    1  A    between atoms: C5_5  and  N6_21 
REMARK    2  A    between atoms: C18_14  and  N17_19 
ROOT
HETATM    1  O1  MIQ B 502      -4.233 -17.281  22.039  1.00142.91    -0.171 OA
HETATM    2  C2  MIQ B 502      -4.894 -17.522  20.832  1.00141.17     0.195 A 
HETATM    3  C3  MIQ B 502      -6.214 -18.337  20.651  1.00141.71     0.035 A 
HETATM    4  C4  MIQ B 502      -7.111 -19.047  21.593  1.00142.86     0.046 A 
HETATM    5  C5  MIQ B 502      -8.268 -19.713  21.117  1.00139.53     0.031 A 
HETATM    6  C12 MIQ B 502      -8.576 -19.699  19.694  1.00139.38     0.030 A 
HETATM    7  C13 MIQ B 502      -7.716 -19.018  18.790  1.00141.18     0.019 A 
HETATM    8  C14 MIQ B 502      -6.504 -18.318  19.296  1.00138.77     0.033 A 
HETATM    9  C15 MIQ B 502      -5.358 -17.486  18.633  1.00142.10     0.195 A 
HETATM   10  N17 MIQ B 502      -4.556 -17.120  19.619  1.00139.42    -0.288 N 
HETATM   11  O16 MIQ B 502      -5.214 -17.195  17.276  1.00148.93    -0.171 OA
ENDROOT
BRANCH  10  12
HETATM   12  C18 MIQ B 502      -3.360 -16.337  19.371  1.00139.82     0.187 C 
HETATM   13  C19 MIQ B 502      -2.174 -17.084  19.993  1.00140.06     0.247 C 
HETATM   14  O25 MIQ B 502      -2.014 -18.224  19.739  1.00143.95    -0.271 OA
HETATM   15  N20 MIQ B 502      -1.238 -16.426  20.883  1.00140.02    -0.296 N 
HETATM   16  H13 MIQ B 502      -0.472 -16.926  21.288  1.00142.77     0.171 HD
HETATM   17  C21 MIQ B 502      -1.461 -15.036  21.187  1.00142.22     0.224 C 
HETATM   18  C22 MIQ B 502      -2.904 -14.576  21.255  1.00139.52     0.106 C 
HETATM   19  O24 MIQ B 502      -0.561 -14.292  21.369  1.00146.13    -0.273 OA
HETATM   20  C23 MIQ B 502      -3.530 -14.919  19.915  1.00139.15     0.045 C 
ENDBRANCH  10  12
BRANCH   5  21
HETATM   21  N6  MIQ B 502      -9.131 -20.416  22.049  1.00140.95    -0.377 N 
HETATM   22  C7  MIQ B 502      -9.579 -19.718  23.242  1.00142.12     0.149 C 
HETATM   23  C8  MIQ B 502      -9.890 -20.681  24.381  1.00144.10     0.187 C 
HETATM   24  O9  MIQ B 502     -10.688 -21.755  23.982  1.00148.65    -0.388 OA
HETATM   25  C10 MIQ B 502     -10.939 -21.986  22.627  1.00147.44     0.187 C 
HETATM   26  C11 MIQ B 502      -9.876 -21.582  21.610  1.00144.08     0.149 C 
ENDBRANCH   5  21
TORSDOF 2
ENDMDL
MODEL 8
REMARK VINA RESULT:      -5.9      6.631      8.543
REMARK  2 active torsions:
REMARK  status: ('A' for Active; 'I' for Inactive)
REMARK    1  A    between atoms: C5_5  and  N6_21 
REMARK    2  A    between atoms: C18_14  and  N17_19 
ROOT
HETATM    1  O1  MIQ B 502     -10.748 -23.756  22.433  1.00142.91    -0.171 OA
HETATM    2  C2  MIQ B 502     -11.216 -22.491  22.072  1.00141.17     0.195 A 
HETATM    3  C3  MIQ B 502     -12.625 -22.162  21.483  1.00141.71     0.035 A 
HETATM    4  C4  MIQ B 502     -13.808 -22.990  21.150  1.00142.86     0.046 A 
HETATM    5  C5  MIQ B 502     -14.976 -22.388  20.616  1.00139.53     0.031 A 
HETATM    6  C12 MIQ B 502     -15.012 -20.950  20.395  1.00139.38     0.030 A 
HETATM    7  C13 MIQ B 502     -13.878 -20.156  20.715  1.00141.18     0.019 A 
HETATM    8  C14 MIQ B 502     -12.655 -20.792  21.278  1.00138.77     0.033 A 
HETATM    9  C15 MIQ B 502     -11.258 -20.268  21.743  1.00142.10     0.195 A 
HETATM   10  N17 MIQ B 502     -10.587 -21.331  22.154  1.00139.42    -0.288 N 
HETATM   11  O16 MIQ B 502     -10.813 -18.945  21.722  1.00148.93    -0.171 OA
ENDROOT
BRANCH  10  12
HETATM   12  C18 MIQ B 502      -9.226 -21.224  22.647  1.00139.82     0.187 C 
HETATM   13  C19 MIQ B 502      -8.377 -22.263  21.904  1.00140.06     0.247 C 
HETATM   14  O25 MIQ B 502      -8.416 -22.303  20.726  1.00143.95    -0.271 OA
HETATM   15  N20 MIQ B 502      -7.521 -23.194  22.610  1.00140.02    -0.296 N 
HETATM   16  H13 MIQ B 502      -6.976 -23.872  22.114  1.00142.77     0.171 HD
HETATM   17  C21 MIQ B 502      -7.497 -23.132  24.049  1.00142.22     0.224 C 
HETATM   18  C22 MIQ B 502      -8.793 -22.744  24.735  1.00139.52     0.106 C 
HETATM   19  O24 MIQ B 502      -6.515 -23.368  24.661  1.00146.13    -0.273 OA
HETATM   20  C23 MIQ B 502      -9.196 -21.396  24.165  1.00139.15     0.045 C 
ENDBRANCH  10  12
BRANCH   5  21
HETATM   21  N6  MIQ B 502     -16.122 -23.213  20.280  1.00140.95    -0.377 N 
HETATM   22  C7  MIQ B 502     -17.454 -22.676  20.501  1.00142.12     0.149 C 
HETATM   23  C8  MIQ B 502     -18.480 -23.777  20.734  1.00144.10     0.187 C 
HETATM   24  O9  MIQ B 502     -18.400 -24.802  19.790  1.00148.65    -0.388 OA
HETATM   25  C10 MIQ B 502     -17.323 -24.865  18.902  1.00147.44     0.187 C 
HETATM   26  C11 MIQ B 502     -15.971 -24.324  19.357  1.00144.08     0.149 C 
ENDBRANCH   5  21
TORSDOF 2
ENDMDL
MODEL 9
REMARK VINA RESULT:      -5.9      5.754      9.378
REMARK  2 active torsions:
REMARK  status: ('A' for Active; 'I' for Inactive)
REMARK    1  A    between atoms: C5_5  and  N6_21 
REMARK    2  A    between atoms: C18_14  and  N17_19 
ROOT
HETATM    1  O1  MIQ B 502     -12.266 -21.175  13.926  1.00142.91    -0.171 OA
HETATM    2  C2  MIQ B 502     -10.893 -21.093  14.166  1.00141.17     0.195 A 
HETATM    3  C3  MIQ B 502     -10.213 -20.765  15.533  1.00141.71     0.035 A 
HETATM    4  C4  MIQ B 502     -10.739 -20.465  16.887  1.00142.86     0.046 A 
HETATM    5  C5  MIQ B 502      -9.850 -20.201  17.959  1.00139.53     0.031 A 
HETATM    6  C12 MIQ B 502      -8.413 -20.226  17.728  1.00139.38     0.030 A 
HETATM    7  C13 MIQ B 502      -7.908 -20.514  16.432  1.00141.18     0.019 A 
HETATM    8  C14 MIQ B 502      -8.846 -20.792  15.310  1.00138.77     0.033 A 
HETATM    9  C15 MIQ B 502      -8.676 -21.141  13.795  1.00142.10     0.195 A 
HETATM   10  N17 MIQ B 502      -9.900 -21.277  13.312  1.00139.42    -0.288 N 
HETATM   11  O16 MIQ B 502      -7.474 -21.277  13.099  1.00148.93    -0.171 OA
ENDROOT
BRANCH  10  12
HETATM   12  C18 MIQ B 502     -10.132 -21.590  11.914  1.00139.82     0.187 C 
HETATM   13  C19 MIQ B 502     -11.034 -20.495  11.333  1.00140.06     0.247 C 
HETATM   14  O25 MIQ B 502     -10.739 -19.363  11.488  1.00143.95    -0.271 OA
HETATM   15  N20 MIQ B 502     -12.238 -20.810  10.593  1.00140.02    -0.296 N 
HETATM   16  H13 MIQ B 502     -12.822 -20.085  10.224  1.00142.77     0.171 HD
HETATM   17  C21 MIQ B 502     -12.584 -22.198  10.426  1.00142.22     0.224 C 
HETATM   18  C22 MIQ B 502     -12.219 -23.132  11.564  1.00139.52     0.106 C 
HETATM   19  O24 MIQ B 502     -13.120 -22.589   9.448  1.00146.13    -0.273 OA
HETATM   20  C23 MIQ B 502     -10.723 -22.992  11.774  1.00139.15     0.045 C 
ENDBRANCH  10  12
BRANCH   5  21
HETATM   21  N6  MIQ B 502     -10.379 -19.895  19.275  1.00140.95    -0.377 N 
HETATM   22  C7  MIQ B 502     -11.644 -20.489  19.671  1.00142.12     0.149 C 
HETATM   23  C8  MIQ B 502     -12.373 -19.640  20.705  1.00144.10     0.187 C 
HETATM   24  O9  MIQ B 502     -11.548 -19.238  21.757  1.00148.65    -0.388 OA
HETATM   25  C10 MIQ B 502     -10.165 -19.428  21.684  1.00147.44     0.187 C 
HETATM   26  C11 MIQ B 502      -9.495 -19.396  20.315  1.00144.08     0.149 C 
ENDBRANCH   5  21
TORSDOF 2
ENDMDL
