MODEL 1
REMARK VINA RESULT:      -5.4      0.000      0.000
REMARK  2 active torsions:
REMARK  status: ('A' for Active; 'I' for Inactive)
REMARK    1  A    between atoms: C5_5  and  N6_21 
REMARK    2  A    between atoms: C18_14  and  N17_19 
ROOT
HETATM    1  O1  MIQ B 502      26.744  14.075   2.975  1.00142.91    -0.171 OA
HETATM    2  C2  MIQ B 502      25.588  14.809   2.698  1.00141.17     0.195 A 
HETATM    3  C3  MIQ B 502      25.526  16.324   2.323  1.00141.71     0.035 A 
HETATM    4  C4  MIQ B 502      26.557  17.374   2.149  1.00142.86     0.046 A 
HETATM    5  C5  MIQ B 502      26.183  18.695   1.793  1.00139.53     0.031 A 
HETATM    6  C12 MIQ B 502      24.778  19.020   1.598  1.00139.38     0.030 A 
HETATM    7  C13 MIQ B 502      23.788  18.013   1.764  1.00141.18     0.019 A 
HETATM    8  C14 MIQ B 502      24.187  16.628   2.134  1.00138.77     0.033 A 
HETATM    9  C15 MIQ B 502      23.414  15.294   2.394  1.00142.10     0.195 A 
HETATM   10  N17 MIQ B 502      24.334  14.390   2.691  1.00139.42    -0.288 N 
HETATM   11  O16 MIQ B 502      22.033  15.102   2.328  1.00148.93    -0.171 OA
ENDROOT
BRANCH  10  12
HETATM   12  C18 MIQ B 502      23.976  13.021   3.010  1.00139.82     0.187 C 
HETATM   13  C19 MIQ B 502      24.564  12.693   4.388  1.00140.06     0.247 C 
HETATM   14  O25 MIQ B 502      24.358  13.424   5.291  1.00143.95    -0.271 OA
HETATM   15  N20 MIQ B 502      25.361  11.505   4.615  1.00140.02    -0.296 N 
HETATM   16  H13 MIQ B 502      25.745  11.306   5.517  1.00142.77     0.171 HD
HETATM   17  C21 MIQ B 502      25.607  10.634   3.495  1.00142.22     0.224 C 
HETATM   18  C22 MIQ B 502      25.737  11.292   2.135  1.00139.52     0.106 C 
HETATM   19  O24 MIQ B 502      25.697   9.463   3.631  1.00146.13    -0.273 OA
HETATM   20  C23 MIQ B 502      24.456  12.075   1.911  1.00139.15     0.045 C 
ENDBRANCH  10  12
BRANCH   5  21
HETATM   21  N6  MIQ B 502      27.203  19.717   1.641  1.00140.95    -0.377 N 
HETATM   22  C7  MIQ B 502      28.566  19.402   2.035  1.00142.12     0.149 C 
HETATM   23  C8  MIQ B 502      29.344  20.649   2.435  1.00144.10     0.187 C 
HETATM   24  O9  MIQ B 502      29.214  21.690   1.513  1.00148.65    -0.388 OA
HETATM   25  C10 MIQ B 502      28.271  21.611   0.485  1.00147.44     0.187 C 
HETATM   26  C11 MIQ B 502      26.986  20.829   0.732  1.00144.08     0.149 C 
ENDBRANCH   5  21
TORSDOF 2
ENDMDL
MODEL 2
REMARK VINA RESULT:      -5.4      3.721      6.657
REMARK  2 active torsions:
REMARK  status: ('A' for Active; 'I' for Inactive)
REMARK    1  A    between atoms: C5_5  and  N6_21 
REMARK    2  A    between atoms: C18_14  and  N17_19 
ROOT
HETATM    1  O1  MIQ B 502      26.279  19.905   0.252  1.00142.91    -0.171 OA
HETATM    2  C2  MIQ B 502      27.165  20.373   1.225  1.00141.17     0.195 A 
HETATM    3  C3  MIQ B 502      28.215  21.515   1.045  1.00141.71     0.035 A 
HETATM    4  C4  MIQ B 502      28.581  22.392  -0.092  1.00142.86     0.046 A 
HETATM    5  C5  MIQ B 502      29.603  23.364   0.052  1.00139.53     0.031 A 
HETATM    6  C12 MIQ B 502      30.295  23.501   1.326  1.00139.38     0.030 A 
HETATM    7  C13 MIQ B 502      29.944  22.661   2.417  1.00141.18     0.019 A 
HETATM    8  C14 MIQ B 502      28.868  21.644   2.260  1.00138.77     0.033 A 
HETATM    9  C15 MIQ B 502      28.220  20.575   3.200  1.00142.10     0.195 A 
HETATM   10  N17 MIQ B 502      27.298  19.963   2.475  1.00139.42    -0.288 N 
HETATM   11  O16 MIQ B 502      28.553  20.322   4.531  1.00148.93    -0.171 OA
ENDROOT
BRANCH  10  12
HETATM   12  C18 MIQ B 502      26.495  18.887   3.024  1.00139.82     0.187 C 
HETATM   13  C19 MIQ B 502      26.702  17.650   2.141  1.00140.06     0.247 C 
HETATM   14  O25 MIQ B 502      27.800  17.298   1.893  1.00143.95    -0.271 OA
HETATM   15  N20 MIQ B 502      25.586  16.898   1.606  1.00140.02    -0.296 N 
HETATM   16  H13 MIQ B 502      25.735  16.096   1.025  1.00142.77     0.171 HD
HETATM   17  C21 MIQ B 502      24.256  17.354   1.915  1.00142.22     0.224 C 
HETATM   18  C22 MIQ B 502      24.064  18.852   2.052  1.00139.52     0.106 C 
HETATM   19  O24 MIQ B 502      23.360  16.596   2.058  1.00146.13    -0.273 OA
HETATM   20  C23 MIQ B 502      25.031  19.314   3.126  1.00139.15     0.045 C 
ENDBRANCH  10  12
BRANCH   5  21
HETATM   21  N6  MIQ B 502      29.962  24.206  -1.074  1.00140.95    -0.377 N 
HETATM   22  C7  MIQ B 502      31.148  23.871  -1.842  1.00142.12     0.149 C 
HETATM   23  C8  MIQ B 502      31.755  25.096  -2.515  1.00144.10     0.187 C 
HETATM   24  O9  MIQ B 502      30.809  25.872  -3.187  1.00148.65    -0.388 OA
HETATM   25  C10 MIQ B 502      29.444  25.625  -3.020  1.00147.44     0.187 C 
HETATM   26  C11 MIQ B 502      28.962  25.063  -1.687  1.00144.08     0.149 C 
ENDBRANCH   5  21
TORSDOF 2
ENDMDL
MODEL 3
REMARK VINA RESULT:      -5.4      1.449      2.715
REMARK  2 active torsions:
REMARK  status: ('A' for Active; 'I' for Inactive)
REMARK    1  A    between atoms: C5_5  and  N6_21 
REMARK    2  A    between atoms: C18_14  and  N17_19 
ROOT
HETATM    1  O1  MIQ B 502      23.976  14.786   1.844  1.00142.91    -0.171 OA
HETATM    2  C2  MIQ B 502      25.222  14.540   2.423  1.00141.17     0.195 A 
HETATM    3  C3  MIQ B 502      26.402  15.558   2.540  1.00141.71     0.035 A 
HETATM    4  C4  MIQ B 502      26.573  16.970   2.126  1.00142.86     0.046 A 
HETATM    5  C5  MIQ B 502      27.793  17.648   2.378  1.00139.53     0.031 A 
HETATM    6  C12 MIQ B 502      28.882  16.951   3.048  1.00139.38     0.030 A 
HETATM    7  C13 MIQ B 502      28.717  15.596   3.446  1.00141.18     0.019 A 
HETATM    8  C14 MIQ B 502      27.433  14.891   3.181  1.00138.77     0.033 A 
HETATM    9  C15 MIQ B 502      26.892  13.452   3.463  1.00142.10     0.195 A 
HETATM   10  N17 MIQ B 502      25.659  13.426   2.985  1.00139.42    -0.288 N 
HETATM   11  O16 MIQ B 502      27.576  12.409   4.090  1.00148.93    -0.171 OA
ENDROOT
BRANCH  10  12
HETATM   12  C18 MIQ B 502      24.843  12.228   3.057  1.00139.82     0.187 C 
HETATM   13  C19 MIQ B 502      24.705  11.845   4.536  1.00140.06     0.247 C 
HETATM   14  O25 MIQ B 502      24.357  12.662   5.312  1.00143.95    -0.271 OA
HETATM   15  N20 MIQ B 502      24.985  10.504   5.008  1.00140.02    -0.296 N 
HETATM   16  H13 MIQ B 502      24.897  10.269   5.977  1.00142.77     0.171 HD
HETATM   17  C21 MIQ B 502      25.418   9.527   4.043  1.00142.22     0.224 C 
HETATM   18  C22 MIQ B 502      26.265  10.035   2.892  1.00139.52     0.106 C 
HETATM   19  O24 MIQ B 502      25.123   8.387   4.143  1.00146.13    -0.273 OA
HETATM   20  C23 MIQ B 502      25.453  11.117   2.204  1.00139.15     0.045 C 
ENDBRANCH  10  12
BRANCH   5  21
HETATM   21  N6  MIQ B 502      27.953  19.027   1.954  1.00140.95    -0.377 N 
HETATM   22  C7  MIQ B 502      26.761  19.817   1.696  1.00142.12     0.149 C 
HETATM   23  C8  MIQ B 502      27.025  20.933   0.694  1.00144.10     0.187 C 
HETATM   24  O9  MIQ B 502      28.176  21.667   0.988  1.00148.65    -0.388 OA
HETATM   25  C10 MIQ B 502      29.067  21.224   1.969  1.00147.44     0.187 C 
HETATM   26  C11 MIQ B 502      29.202  19.723   2.206  1.00144.08     0.149 C 
ENDBRANCH   5  21
TORSDOF 2
ENDMDL
MODEL 4
REMARK VINA RESULT:      -5.2      4.202     11.145
REMARK  2 active torsions:
REMARK  status: ('A' for Active; 'I' for Inactive)
REMARK    1  A    between atoms: C5_5  and  N6_21 
REMARK    2  A    between atoms: C18_14  and  N17_19 
ROOT
HETATM    1  O1  MIQ B 502      29.965  23.073  -1.671  1.00142.91    -0.171 OA
HETATM    2  C2  MIQ B 502      29.398  23.535  -0.482  1.00141.17     0.195 A 
HETATM    3  C3  MIQ B 502      28.603  22.678   0.555  1.00141.71     0.035 A 
HETATM    4  C4  MIQ B 502      28.229  21.246   0.620  1.00142.86     0.046 A 
HETATM    5  C5  MIQ B 502      27.485  20.748   1.719  1.00139.53     0.031 A 
HETATM    6  C12 MIQ B 502      27.088  21.650   2.791  1.00139.38     0.030 A 
HETATM    7  C13 MIQ B 502      27.448  23.024   2.730  1.00141.18     0.019 A 
HETATM    8  C14 MIQ B 502      28.231  23.540   1.574  1.00138.77     0.033 A 
HETATM    9  C15 MIQ B 502      28.797  24.939   1.167  1.00142.10     0.195 A 
HETATM   10  N17 MIQ B 502      29.415  24.762   0.011  1.00139.42    -0.288 N 
HETATM   11  O16 MIQ B 502      28.672  26.132   1.882  1.00148.93    -0.171 OA
ENDROOT
BRANCH  10  12
HETATM   12  C18 MIQ B 502      30.056  25.863  -0.682  1.00139.82     0.187 C 
HETATM   13  C19 MIQ B 502      29.499  25.904  -2.111  1.00140.06     0.247 C 
HETATM   14  O25 MIQ B 502      28.330  25.902  -2.273  1.00143.95    -0.271 OA
HETATM   15  N20 MIQ B 502      30.368  25.952  -3.268  1.00140.02    -0.296 N 
HETATM   16  H13 MIQ B 502      29.992  25.972  -4.196  1.00142.77     0.171 HD
HETATM   17  C21 MIQ B 502      31.791  25.944  -3.045  1.00142.22     0.224 C 
HETATM   18  C22 MIQ B 502      32.288  25.150  -1.852  1.00139.52     0.106 C 
HETATM   19  O24 MIQ B 502      32.531  26.532  -3.754  1.00146.13    -0.273 OA
HETATM   20  C23 MIQ B 502      31.575  25.710  -0.634  1.00139.15     0.045 C 
ENDBRANCH  10  12
BRANCH   5  21
HETATM   21  N6  MIQ B 502      27.113  19.346   1.762  1.00140.95    -0.377 N 
HETATM   22  C7  MIQ B 502      27.689  18.505   2.798  1.00142.12     0.149 C 
HETATM   23  C8  MIQ B 502      27.755  17.044   2.374  1.00144.10     0.187 C 
HETATM   24  O9  MIQ B 502      26.555  16.582   1.829  1.00148.65    -0.388 OA
HETATM   25  C10 MIQ B 502      25.528  17.476   1.519  1.00147.44     0.187 C 
HETATM   26  C11 MIQ B 502      25.897  18.897   1.106  1.00144.08     0.149 C 
ENDBRANCH   5  21
TORSDOF 2
ENDMDL
MODEL 5
REMARK VINA RESULT:      -5.2      1.735      2.893
REMARK  2 active torsions:
REMARK  status: ('A' for Active; 'I' for Inactive)
REMARK    1  A    between atoms: C5_5  and  N6_21 
REMARK    2  A    between atoms: C18_14  and  N17_19 
ROOT
HETATM    1  O1  MIQ B 502      29.092  13.189   3.365  1.00142.91    -0.171 OA
HETATM    2  C2  MIQ B 502      27.718  13.383   3.211  1.00141.17     0.195 A 
HETATM    3  C3  MIQ B 502      27.014  14.718   2.806  1.00141.71     0.035 A 
HETATM    4  C4  MIQ B 502      27.513  16.075   2.481  1.00142.86     0.046 A 
HETATM    5  C5  MIQ B 502      26.606  17.110   2.139  1.00139.53     0.031 A 
HETATM    6  C12 MIQ B 502      25.177  16.836   2.106  1.00139.38     0.030 A 
HETATM    7  C13 MIQ B 502      24.698  15.534   2.416  1.00141.18     0.019 A 
HETATM    8  C14 MIQ B 502      25.655  14.451   2.772  1.00138.77     0.033 A 
HETATM    9  C15 MIQ B 502      25.514  12.943   3.158  1.00142.10     0.195 A 
HETATM   10  N17 MIQ B 502      26.744  12.502   3.365  1.00139.42    -0.288 N 
HETATM   11  O16 MIQ B 502      24.328  12.214   3.264  1.00148.93    -0.171 OA
ENDROOT
BRANCH  10  12
HETATM   12  C18 MIQ B 502      27.001  11.130   3.761  1.00139.82     0.187 C 
HETATM   13  C19 MIQ B 502      26.274  10.213   2.770  1.00140.06     0.247 C 
HETATM   14  O25 MIQ B 502      26.434  10.375   1.612  1.00143.95    -0.271 OA
HETATM   15  N20 MIQ B 502      25.398   9.148   3.215  1.00140.02    -0.296 N 
HETATM   16  H13 MIQ B 502      24.924   8.561   2.557  1.00142.77     0.171 HD
HETATM   17  C21 MIQ B 502      25.210   8.978   4.632  1.00142.22     0.224 C 
HETATM   18  C22 MIQ B 502      25.239  10.235   5.479  1.00139.52     0.106 C 
HETATM   19  O24 MIQ B 502      25.048   7.909   5.110  1.00146.13    -0.273 OA
HETATM   20  C23 MIQ B 502      26.573  10.906   5.211  1.00139.15     0.045 C 
ENDBRANCH  10  12
BRANCH   5  21
HETATM   21  N6  MIQ B 502      27.108  18.438   1.838  1.00140.95    -0.377 N 
HETATM   22  C7  MIQ B 502      26.151  19.510   1.625  1.00142.12     0.149 C 
HETATM   23  C8  MIQ B 502      26.714  20.605   0.728  1.00144.10     0.187 C 
HETATM   24  O9  MIQ B 502      27.994  21.014   1.108  1.00148.65    -0.388 OA
HETATM   25  C10 MIQ B 502      28.712  20.293   2.065  1.00147.44     0.187 C 
HETATM   26  C11 MIQ B 502      28.476  18.791   2.176  1.00144.08     0.149 C 
ENDBRANCH   5  21
TORSDOF 2
ENDMDL
MODEL 6
REMARK VINA RESULT:      -5.2      4.469      7.108
REMARK  2 active torsions:
REMARK  status: ('A' for Active; 'I' for Inactive)
REMARK    1  A    between atoms: C5_5  and  N6_21 
REMARK    2  A    between atoms: C18_14  and  N17_19 
ROOT
HETATM    1  O1  MIQ B 502      26.709  14.084   2.987  1.00142.91    -0.171 OA
HETATM    2  C2  MIQ B 502      26.866  12.739   3.327  1.00141.17     0.195 A 
HETATM    3  C3  MIQ B 502      28.222  11.986   3.512  1.00141.71     0.035 A 
HETATM    4  C4  MIQ B 502      29.641  12.401   3.405  1.00142.86     0.046 A 
HETATM    5  C5  MIQ B 502      30.680  11.466   3.639  1.00139.53     0.031 A 
HETATM    6  C12 MIQ B 502      30.351  10.091   3.986  1.00139.38     0.030 A 
HETATM    7  C13 MIQ B 502      28.991   9.693   4.090  1.00141.18     0.019 A 
HETATM    8  C14 MIQ B 502      27.904  10.679   3.846  1.00138.77     0.033 A 
HETATM    9  C15 MIQ B 502      26.341  10.621   3.868  1.00142.10     0.195 A 
HETATM   10  N17 MIQ B 502      25.926  11.839   3.563  1.00139.42    -0.288 N 
HETATM   11  O16 MIQ B 502      25.550   9.506   4.151  1.00148.93    -0.171 OA
ENDROOT
BRANCH  10  12
HETATM   12  C18 MIQ B 502      24.513  12.158   3.473  1.00139.82     0.187 C 
HETATM   13  C19 MIQ B 502      24.271  12.834   2.118  1.00140.06     0.247 C 
HETATM   14  O25 MIQ B 502      24.669  12.316   1.136  1.00143.95    -0.271 OA
HETATM   15  N20 MIQ B 502      23.561  14.093   2.009  1.00140.02    -0.296 N 
HETATM   16  H13 MIQ B 502      23.416  14.527   1.119  1.00142.77     0.171 HD
HETATM   17  C21 MIQ B 502      23.095  14.711   3.223  1.00142.22     0.224 C 
HETATM   18  C22 MIQ B 502      23.951  14.518   4.459  1.00139.52     0.106 C 
HETATM   19  O24 MIQ B 502      22.091  15.334   3.252  1.00146.13    -0.273 OA
HETATM   20  C23 MIQ B 502      24.086  13.019   4.660  1.00139.15     0.045 C 
ENDBRANCH  10  12
BRANCH   5  21
HETATM   21  N6  MIQ B 502      32.065  11.882   3.516  1.00140.95    -0.377 N 
HETATM   22  C7  MIQ B 502      32.663  12.636   4.605  1.00142.12     0.149 C 
HETATM   23  C8  MIQ B 502      33.802  13.526   4.123  1.00144.10     0.187 C 
HETATM   24  O9  MIQ B 502      34.704  12.853   3.296  1.00148.65    -0.388 OA
HETATM   25  C10 MIQ B 502      34.407  11.576   2.815  1.00147.44     0.187 C 
HETATM   26  C11 MIQ B 502      32.946  11.207   2.578  1.00144.08     0.149 C 
ENDBRANCH   5  21
TORSDOF 2
ENDMDL
MODEL 7
REMARK VINA RESULT:      -5.2     17.074     19.258
REMARK  2 active torsions:
REMARK  status: ('A' for Active; 'I' for Inactive)
REMARK    1  A    between atoms: C5_5  and  N6_21 
REMARK    2  A    between atoms: C18_14  and  N17_19 
ROOT
HETATM    1  O1  MIQ B 502      29.043  15.580 -15.011  1.00142.91    -0.171 OA
HETATM    2  C2  MIQ B 502      27.778  15.033 -15.239  1.00141.17     0.195 A 
HETATM    3  C3  MIQ B 502      27.338  13.567 -14.930  1.00141.71     0.035 A 
HETATM    4  C4  MIQ B 502      28.035  12.394 -14.351  1.00142.86     0.046 A 
HETATM    5  C5  MIQ B 502      27.352  11.162 -14.188  1.00139.53     0.031 A 
HETATM    6  C12 MIQ B 502      25.957  11.051 -14.592  1.00139.38     0.030 A 
HETATM    7  C13 MIQ B 502      25.288  12.175 -15.145  1.00141.18     0.019 A 
HETATM    8  C14 MIQ B 502      26.010  13.466 -15.312  1.00138.77     0.033 A 
HETATM    9  C15 MIQ B 502      25.624  14.879 -15.861  1.00142.10     0.195 A 
HETATM   10  N17 MIQ B 502      26.710  15.624 -15.747  1.00139.42    -0.288 N 
HETATM   11  O16 MIQ B 502      24.383  15.267 -16.369  1.00148.93    -0.171 OA
ENDROOT
BRANCH  10  12
HETATM   12  C18 MIQ B 502      26.727  17.009 -16.180  1.00139.82     0.187 C 
HETATM   13  C19 MIQ B 502      27.970  17.211 -17.054  1.00140.06     0.247 C 
HETATM   14  O25 MIQ B 502      28.173  16.469 -17.948  1.00143.95    -0.271 OA
HETATM   15  N20 MIQ B 502      28.903  18.294 -16.818  1.00140.02    -0.296 N 
HETATM   16  H13 MIQ B 502      29.715  18.411 -17.392  1.00142.77     0.171 HD
HETATM   17  C21 MIQ B 502      28.640  19.181 -15.714  1.00142.22     0.224 C 
HETATM   18  C22 MIQ B 502      27.980  18.572 -14.493  1.00139.52     0.106 C 
HETATM   19  O24 MIQ B 502      28.922  20.328 -15.763  1.00146.13    -0.273 OA
HETATM   20  C23 MIQ B 502      26.684  17.944 -14.972  1.00139.15     0.045 C 
ENDBRANCH  10  12
BRANCH   5  21
HETATM   21  N6  MIQ B 502      28.051  10.018 -13.634  1.00140.95    -0.377 N 
HETATM   22  C7  MIQ B 502      28.830  10.200 -12.421  1.00142.12     0.149 C 
HETATM   23  C8  MIQ B 502      29.967   9.192 -12.318  1.00144.10     0.187 C 
HETATM   24  O9  MIQ B 502      29.557   7.882 -12.572  1.00148.65    -0.388 OA
HETATM   25  C10 MIQ B 502      28.284   7.627 -13.090  1.00147.44     0.187 C 
HETATM   26  C11 MIQ B 502      27.642   8.672 -13.996  1.00144.08     0.149 C 
ENDBRANCH   5  21
TORSDOF 2
ENDMDL
MODEL 8
REMARK VINA RESULT:      -5.2     19.504     21.630
REMARK  2 active torsions:
REMARK  status: ('A' for Active; 'I' for Inactive)
REMARK    1  A    between atoms: C5_5  and  N6_21 
REMARK    2  A    between atoms: C18_14  and  N17_19 
ROOT
HETATM    1  O1  MIQ B 502      29.634  19.876 -16.624  1.00142.91    -0.171 OA
HETATM    2  C2  MIQ B 502      30.133  18.708 -17.203  1.00141.17     0.195 A 
HETATM    3  C3  MIQ B 502      31.480  18.568 -17.983  1.00141.71     0.035 A 
HETATM    4  C4  MIQ B 502      32.560  19.521 -18.330  1.00142.86     0.046 A 
HETATM    5  C5  MIQ B 502      33.691  19.086 -19.066  1.00139.53     0.031 A 
HETATM    6  C12 MIQ B 502      33.790  17.694 -19.483  1.00139.38     0.030 A 
HETATM    7  C13 MIQ B 502      32.754  16.780 -19.150  1.00141.18     0.019 A 
HETATM    8  C14 MIQ B 502      31.571  17.242 -18.375  1.00138.77     0.033 A 
HETATM    9  C15 MIQ B 502      30.274  16.555 -17.834  1.00142.10     0.195 A 
HETATM   10  N17 MIQ B 502      29.592  17.502 -17.211  1.00139.42    -0.288 N 
HETATM   11  O16 MIQ B 502      29.914  15.215 -17.985  1.00148.93    -0.171 OA
ENDROOT
BRANCH  10  12
HETATM   12  C18 MIQ B 502      28.310  17.227 -16.590  1.00139.82     0.187 C 
HETATM   13  C19 MIQ B 502      27.291  18.221 -17.160  1.00140.06     0.247 C 
HETATM   14  O25 MIQ B 502      27.197  18.342 -18.330  1.00143.95    -0.271 OA
HETATM   15  N20 MIQ B 502      26.435  19.015 -16.302  1.00140.02    -0.296 N 
HETATM   16  H13 MIQ B 502      25.779  19.665 -16.687  1.00142.77     0.171 HD
HETATM   17  C21 MIQ B 502      26.576  18.857 -14.878  1.00142.22     0.224 C 
HETATM   18  C22 MIQ B 502      27.969  18.557 -14.360  1.00139.52     0.106 C 
HETATM   19  O24 MIQ B 502      25.649  18.953 -14.151  1.00146.13    -0.273 OA
HETATM   20  C23 MIQ B 502      28.430  17.296 -15.068  1.00139.15     0.045 C 
ENDBRANCH  10  12
BRANCH   5  21
HETATM   21  N6  MIQ B 502      34.735  20.033 -19.412  1.00140.95    -0.377 N 
HETATM   22  C7  MIQ B 502      35.939  19.536 -20.054  1.00142.12     0.149 C 
HETATM   23  C8  MIQ B 502      37.141  20.430 -19.778  1.00144.10     0.187 C 
HETATM   24  O9  MIQ B 502      36.870  21.784 -19.984  1.00148.65    -0.388 OA
HETATM   25  C10 MIQ B 502      35.559  22.220 -20.189  1.00147.44     0.187 C 
HETATM   26  C11 MIQ B 502      34.422  21.446 -19.531  1.00144.08     0.149 C 
ENDBRANCH   5  21
TORSDOF 2
ENDMDL
MODEL 9
REMARK VINA RESULT:      -5.1      4.663     11.823
REMARK  2 active torsions:
REMARK  status: ('A' for Active; 'I' for Inactive)
REMARK    1  A    between atoms: C5_5  and  N6_21 
REMARK    2  A    between atoms: C18_14  and  N17_19 
ROOT
HETATM    1  O1  MIQ B 502      29.215  24.480  -1.790  1.00142.91    -0.171 OA
HETATM    2  C2  MIQ B 502      29.816  24.222  -0.555  1.00141.17     0.195 A 
HETATM    3  C3  MIQ B 502      29.446  23.065   0.427  1.00141.71     0.035 A 
HETATM    4  C4  MIQ B 502      28.448  21.971   0.382  1.00142.86     0.046 A 
HETATM    5  C5  MIQ B 502      28.348  21.047   1.454  1.00139.53     0.031 A 
HETATM    6  C12 MIQ B 502      29.232  21.176   2.603  1.00139.38     0.030 A 
HETATM    7  C13 MIQ B 502      30.191  22.225   2.646  1.00141.18     0.019 A 
HETATM    8  C14 MIQ B 502      30.292  23.189   1.517  1.00138.77     0.033 A 
HETATM    9  C15 MIQ B 502      31.192  24.431   1.209  1.00142.10     0.195 A 
HETATM   10  N17 MIQ B 502      30.802  24.881   0.029  1.00139.42    -0.288 N 
HETATM   11  O16 MIQ B 502      32.200  24.954   2.021  1.00148.93    -0.171 OA
ENDROOT
BRANCH  10  12
HETATM   12  C18 MIQ B 502      31.414  26.050  -0.576  1.00139.82     0.187 C 
HETATM   13  C19 MIQ B 502      30.289  27.016  -0.969  1.00140.06     0.247 C 
HETATM   14  O25 MIQ B 502      29.476  27.310  -0.167  1.00143.95    -0.271 OA
HETATM   15  N20 MIQ B 502      30.200  27.584  -2.299  1.00140.02    -0.296 N 
HETATM   16  H13 MIQ B 502      29.457  28.208  -2.545  1.00142.77     0.171 HD
HETATM   17  C21 MIQ B 502      31.198  27.201  -3.264  1.00142.22     0.224 C 
HETATM   18  C22 MIQ B 502      31.739  25.788  -3.161  1.00139.52     0.106 C 
HETATM   19  O24 MIQ B 502      31.580  27.955  -4.090  1.00146.13    -0.273 OA
HETATM   20  C23 MIQ B 502      32.293  25.639  -1.756  1.00139.15     0.045 C 
ENDBRANCH  10  12
BRANCH   5  21
HETATM   21  N6  MIQ B 502      27.356  19.989   1.404  1.00140.95    -0.377 N 
HETATM   22  C7  MIQ B 502      27.316  19.022   2.487  1.00142.12     0.149 C 
HETATM   23  C8  MIQ B 502      26.742  17.685   2.035  1.00144.10     0.187 C 
HETATM   24  O9  MIQ B 502      25.556  17.820   1.312  1.00148.65    -0.388 OA
HETATM   25  C10 MIQ B 502      25.127  19.079   0.884  1.00147.44     0.187 C 
HETATM   26  C11 MIQ B 502      26.177  20.139   0.568  1.00144.08     0.149 C 
ENDBRANCH   5  21
TORSDOF 2
ENDMDL
