MODEL 1
REMARK VINA RESULT:      -5.9      0.000      0.000
REMARK  2 active torsions:
REMARK  status: ('A' for Active; 'I' for Inactive)
REMARK    1  A    between atoms: C5_5  and  N6_21 
REMARK    2  A    between atoms: C18_14  and  N17_19 
ROOT
HETATM    1  O1  MIQ B 502     -28.991  -2.131  32.876  1.00142.91    -0.171 OA
HETATM    2  C2  MIQ B 502     -29.231  -3.401  33.405  1.00141.17     0.195 A 
HETATM    3  C3  MIQ B 502     -30.144  -3.733  34.628  1.00141.71     0.035 A 
HETATM    4  C4  MIQ B 502     -30.972  -2.905  35.536  1.00142.86     0.046 A 
HETATM    5  C5  MIQ B 502     -31.711  -3.510  36.584  1.00139.53     0.031 A 
HETATM    6  C12 MIQ B 502     -31.655  -4.953  36.768  1.00139.38     0.030 A 
HETATM    7  C13 MIQ B 502     -30.862  -5.748  35.897  1.00141.18     0.019 A 
HETATM    8  C14 MIQ B 502     -30.090  -5.107  34.797  1.00138.77     0.033 A 
HETATM    9  C15 MIQ B 502     -29.139  -5.631  33.671  1.00142.10     0.195 A 
HETATM   10  N17 MIQ B 502     -28.755  -4.563  32.992  1.00139.42    -0.288 N 
HETATM   11  O16 MIQ B 502     -28.772  -6.958  33.438  1.00148.93    -0.171 OA
ENDROOT
BRANCH  10  12
HETATM   12  C18 MIQ B 502     -27.843  -4.669  31.868  1.00139.82     0.187 C 
HETATM   13  C19 MIQ B 502     -28.380  -5.756  30.930  1.00140.06     0.247 C 
HETATM   14  O25 MIQ B 502     -29.506  -5.711  30.580  1.00143.95    -0.271 OA
HETATM   15  N20 MIQ B 502     -27.541  -6.838  30.455  1.00140.02    -0.296 N 
HETATM   16  H13 MIQ B 502     -27.906  -7.545  29.848  1.00142.77     0.171 HD
HETATM   17  C21 MIQ B 502     -26.173  -6.877  30.904  1.00142.22     0.224 C 
HETATM   18  C22 MIQ B 502     -25.902  -6.371  32.308  1.00139.52     0.106 C 
HETATM   19  O24 MIQ B 502     -25.306  -7.280  30.209  1.00146.13    -0.273 OA
HETATM   20  C23 MIQ B 502     -26.423  -4.947  32.360  1.00139.15     0.045 C 
ENDBRANCH  10  12
BRANCH   5  21
HETATM   21  N6  MIQ B 502     -32.507  -2.685  37.475  1.00140.95    -0.377 N 
HETATM   22  C7  MIQ B 502     -33.761  -2.142  36.983  1.00142.12     0.149 C 
HETATM   23  C8  MIQ B 502     -34.144  -0.854  37.702  1.00144.10     0.187 C 
HETATM   24  O9  MIQ B 502     -34.041  -0.956  39.090  1.00148.65    -0.388 OA
HETATM   25  C10 MIQ B 502     -33.423  -2.064  39.675  1.00147.44     0.187 C 
HETATM   26  C11 MIQ B 502     -32.303  -2.763  38.911  1.00144.08     0.149 C 
ENDBRANCH   5  21
TORSDOF 2
ENDMDL
MODEL 2
REMARK VINA RESULT:      -5.8      1.383      2.536
REMARK  2 active torsions:
REMARK  status: ('A' for Active; 'I' for Inactive)
REMARK    1  A    between atoms: C5_5  and  N6_21 
REMARK    2  A    between atoms: C18_14  and  N17_19 
ROOT
HETATM    1  O1  MIQ B 502     -29.737  -7.466  34.589  1.00142.91    -0.171 OA
HETATM    2  C2  MIQ B 502     -29.495  -6.203  34.043  1.00141.17     0.195 A 
HETATM    3  C3  MIQ B 502     -29.998  -4.839  34.616  1.00141.71     0.035 A 
HETATM    4  C4  MIQ B 502     -30.808  -4.468  35.800  1.00142.86     0.046 A 
HETATM    5  C5  MIQ B 502     -31.108  -3.108  36.066  1.00139.53     0.031 A 
HETATM    6  C12 MIQ B 502     -30.616  -2.071  35.170  1.00139.38     0.030 A 
HETATM    7  C13 MIQ B 502     -29.839  -2.427  34.035  1.00141.18     0.019 A 
HETATM    8  C14 MIQ B 502     -29.525  -3.856  33.762  1.00138.77     0.033 A 
HETATM    9  C15 MIQ B 502     -28.723  -4.613  32.654  1.00142.10     0.195 A 
HETATM   10  N17 MIQ B 502     -28.803  -5.898  32.959  1.00139.42    -0.288 N 
HETATM   11  O16 MIQ B 502     -28.062  -4.044  31.564  1.00148.93    -0.171 OA
ENDROOT
BRANCH  10  12
HETATM   12  C18 MIQ B 502     -28.181  -6.914  32.130  1.00139.82     0.187 C 
HETATM   13  C19 MIQ B 502     -26.733  -6.481  31.869  1.00140.06     0.247 C 
HETATM   14  O25 MIQ B 502     -26.049  -6.177  32.781  1.00143.95    -0.271 OA
HETATM   15  N20 MIQ B 502     -26.177  -6.440  30.532  1.00140.02    -0.296 N 
HETATM   16  H13 MIQ B 502     -25.232  -6.150  30.375  1.00142.77     0.171 HD
HETATM   17  C21 MIQ B 502     -27.034  -6.806  29.434  1.00142.22     0.224 C 
HETATM   18  C22 MIQ B 502     -28.504  -6.457  29.572  1.00139.52     0.106 C 
HETATM   19  O24 MIQ B 502     -26.611  -7.354  28.476  1.00146.13    -0.273 OA
HETATM   20  C23 MIQ B 502     -28.986  -7.121  30.848  1.00139.15     0.045 C 
ENDBRANCH  10  12
BRANCH   5  21
HETATM   21  N6  MIQ B 502     -31.915  -2.760  37.221  1.00140.95    -0.377 N 
HETATM   22  C7  MIQ B 502     -33.302  -2.384  37.012  1.00142.12     0.149 C 
HETATM   23  C8  MIQ B 502     -33.815  -1.465  38.114  1.00144.10     0.187 C 
HETATM   24  O9  MIQ B 502     -33.510  -1.930  39.394  1.00148.65    -0.388 OA
HETATM   25  C10 MIQ B 502     -32.626  -2.999  39.567  1.00147.44     0.187 C 
HETATM   26  C11 MIQ B 502     -31.510  -3.194  38.547  1.00144.08     0.149 C 
ENDBRANCH   5  21
TORSDOF 2
ENDMDL
MODEL 3
REMARK VINA RESULT:      -5.8      1.358      2.550
REMARK  2 active torsions:
REMARK  status: ('A' for Active; 'I' for Inactive)
REMARK    1  A    between atoms: C5_5  and  N6_21 
REMARK    2  A    between atoms: C18_14  and  N17_19 
ROOT
HETATM    1  O1  MIQ B 502     -28.605  -6.936  33.508  1.00142.91    -0.171 OA
HETATM    2  C2  MIQ B 502     -28.615  -5.548  33.346  1.00141.17     0.195 A 
HETATM    3  C3  MIQ B 502     -29.516  -4.536  34.123  1.00141.71     0.035 A 
HETATM    4  C4  MIQ B 502     -30.546  -4.689  35.177  1.00142.86     0.046 A 
HETATM    5  C5  MIQ B 502     -31.210  -3.551  35.701  1.00139.53     0.031 A 
HETATM    6  C12 MIQ B 502     -30.876  -2.225  35.201  1.00139.38     0.030 A 
HETATM    7  C13 MIQ B 502     -29.887  -2.078  34.191  1.00141.18     0.019 A 
HETATM    8  C14 MIQ B 502     -29.192  -3.276  33.646  1.00138.77     0.033 A 
HETATM    9  C15 MIQ B 502     -28.083  -3.508  32.568  1.00142.10     0.195 A 
HETATM   10  N17 MIQ B 502     -27.880  -4.814  32.528  1.00139.42    -0.288 N 
HETATM   11  O16 MIQ B 502     -27.443  -2.531  31.804  1.00148.93    -0.171 OA
ENDROOT
BRANCH  10  12
HETATM   12  C18 MIQ B 502     -26.917  -5.404  31.617  1.00139.82     0.187 C 
HETATM   13  C19 MIQ B 502     -27.636  -6.499  30.820  1.00140.06     0.247 C 
HETATM   14  O25 MIQ B 502     -28.653  -6.245  30.281  1.00143.95    -0.271 OA
HETATM   15  N20 MIQ B 502     -27.097  -7.839  30.706  1.00140.02    -0.296 N 
HETATM   16  H13 MIQ B 502     -27.579  -8.547  30.188  1.00142.77     0.171 HD
HETATM   17  C21 MIQ B 502     -25.858  -8.128  31.382  1.00142.22     0.224 C 
HETATM   18  C22 MIQ B 502     -25.612  -7.404  32.692  1.00139.52     0.106 C 
HETATM   19  O24 MIQ B 502     -25.072  -8.887  30.934  1.00146.13    -0.273 OA
HETATM   20  C23 MIQ B 502     -25.703  -5.920  32.388  1.00139.15     0.045 C 
ENDBRANCH  10  12
BRANCH   5  21
HETATM   21  N6  MIQ B 502     -32.228  -3.717  36.723  1.00140.95    -0.377 N 
HETATM   22  C7  MIQ B 502     -32.049  -4.761  37.718  1.00142.12     0.149 C 
HETATM   23  C8  MIQ B 502     -33.380  -5.247  38.277  1.00144.10     0.187 C 
HETATM   24  O9  MIQ B 502     -34.226  -4.201  38.654  1.00148.65    -0.388 OA
HETATM   25  C10 MIQ B 502     -33.918  -2.883  38.308  1.00147.44     0.187 C 
HETATM   26  C11 MIQ B 502     -33.142  -2.629  37.020  1.00144.08     0.149 C 
ENDBRANCH   5  21
TORSDOF 2
ENDMDL
MODEL 4
REMARK VINA RESULT:      -5.7      1.806      8.409
REMARK  2 active torsions:
REMARK  status: ('A' for Active; 'I' for Inactive)
REMARK    1  A    between atoms: C5_5  and  N6_21 
REMARK    2  A    between atoms: C18_14  and  N17_19 
ROOT
HETATM    1  O1  MIQ B 502     -31.071  -7.098  36.240  1.00142.91    -0.171 OA
HETATM    2  C2  MIQ B 502     -30.907  -5.772  35.835  1.00141.17     0.195 A 
HETATM    3  C3  MIQ B 502     -29.951  -5.263  34.709  1.00141.71     0.035 A 
HETATM    4  C4  MIQ B 502     -29.006  -5.942  33.791  1.00142.86     0.046 A 
HETATM    5  C5  MIQ B 502     -28.258  -5.192  32.849  1.00139.53     0.031 A 
HETATM    6  C12 MIQ B 502     -28.421  -3.747  32.783  1.00139.38     0.030 A 
HETATM    7  C13 MIQ B 502     -29.329  -3.096  33.662  1.00141.18     0.019 A 
HETATM    8  C14 MIQ B 502     -30.113  -3.889  34.647  1.00138.77     0.033 A 
HETATM    9  C15 MIQ B 502     -31.175  -3.542  35.741  1.00142.10     0.195 A 
HETATM   10  N17 MIQ B 502     -31.511  -4.693  36.301  1.00139.42    -0.288 N 
HETATM   11  O16 MIQ B 502     -31.663  -2.274  36.059  1.00148.93    -0.171 OA
ENDROOT
BRANCH  10  12
HETATM   12  C18 MIQ B 502     -32.477  -4.755  37.382  1.00139.82     0.187 C 
HETATM   13  C19 MIQ B 502     -33.709  -3.948  36.956  1.00140.06     0.247 C 
HETATM   14  O25 MIQ B 502     -34.206  -4.166  35.909  1.00143.95    -0.271 OA
HETATM   15  N20 MIQ B 502     -34.285  -2.927  37.807  1.00140.02    -0.296 N 
HETATM   16  H13 MIQ B 502     -35.086  -2.402  37.515  1.00142.77     0.171 HD
HETATM   17  C21 MIQ B 502     -33.654  -2.672  39.076  1.00142.22     0.224 C 
HETATM   18  C22 MIQ B 502     -32.147  -2.836  39.133  1.00139.52     0.106 C 
HETATM   19  O24 MIQ B 502     -34.282  -2.355  40.026  1.00146.13    -0.273 OA
HETATM   20  C23 MIQ B 502     -31.851  -4.255  38.683  1.00139.15     0.045 C 
ENDBRANCH  10  12
BRANCH   5  21
HETATM   21  N6  MIQ B 502     -27.324  -5.868  31.966  1.00140.95    -0.377 N 
HETATM   22  C7  MIQ B 502     -27.535  -5.778  30.532  1.00142.12     0.149 C 
HETATM   23  C8  MIQ B 502     -26.950  -6.976  29.795  1.00144.10     0.187 C 
HETATM   24  O9  MIQ B 502     -25.643  -7.270  30.188  1.00148.65    -0.388 OA
HETATM   25  C10 MIQ B 502     -25.083  -6.646  31.306  1.00147.44     0.187 C 
HETATM   26  C11 MIQ B 502     -26.004  -6.232  32.449  1.00144.08     0.149 C 
ENDBRANCH   5  21
TORSDOF 2
ENDMDL
MODEL 5
REMARK VINA RESULT:      -5.7     11.288     12.829
REMARK  2 active torsions:
REMARK  status: ('A' for Active; 'I' for Inactive)
REMARK    1  A    between atoms: C5_5  and  N6_21 
REMARK    2  A    between atoms: C18_14  and  N17_19 
ROOT
HETATM    1  O1  MIQ B 502     -25.949   5.087  29.507  1.00142.91    -0.171 OA
HETATM    2  C2  MIQ B 502     -25.305   4.345  28.514  1.00141.17     0.195 A 
HETATM    3  C3  MIQ B 502     -25.998   3.525  27.380  1.00141.71     0.035 A 
HETATM    4  C4  MIQ B 502     -27.414   3.286  27.014  1.00142.86     0.046 A 
HETATM    5  C5  MIQ B 502     -27.739   2.473  25.899  1.00139.53     0.031 A 
HETATM    6  C12 MIQ B 502     -26.675   1.871  25.109  1.00139.38     0.030 A 
HETATM    7  C13 MIQ B 502     -25.317   2.101  25.458  1.00141.18     0.019 A 
HETATM    8  C14 MIQ B 502     -24.981   2.957  26.629  1.00138.77     0.033 A 
HETATM    9  C15 MIQ B 502     -23.650   3.428  27.300  1.00142.10     0.195 A 
HETATM   10  N17 MIQ B 502     -24.006   4.188  28.323  1.00139.42    -0.288 N 
HETATM   11  O16 MIQ B 502     -22.352   3.107  26.899  1.00148.93    -0.171 OA
ENDROOT
BRANCH  10  12
HETATM   12  C18 MIQ B 502     -23.018   4.794  29.196  1.00139.82     0.187 C 
HETATM   13  C19 MIQ B 502     -23.450   4.530  30.644  1.00140.06     0.247 C 
HETATM   14  O25 MIQ B 502     -23.713   3.429  30.975  1.00143.95    -0.271 OA
HETATM   15  N20 MIQ B 502     -23.537   5.596  31.621  1.00140.02    -0.296 N 
HETATM   16  H13 MIQ B 502     -23.826   5.412  32.562  1.00142.77     0.171 HD
HETATM   17  C21 MIQ B 502     -23.220   6.933  31.190  1.00142.22     0.224 C 
HETATM   18  C22 MIQ B 502     -23.574   7.290  29.759  1.00139.52     0.106 C 
HETATM   19  O24 MIQ B 502     -22.705   7.711  31.916  1.00146.13    -0.273 OA
HETATM   20  C23 MIQ B 502     -22.866   6.280  28.875  1.00139.15     0.045 C 
ENDBRANCH  10  12
BRANCH   5  21
HETATM   21  N6  MIQ B 502     -29.131   2.236  25.561  1.00140.95    -0.377 N 
HETATM   22  C7  MIQ B 502     -29.437   1.292  24.500  1.00142.12     0.149 C 
HETATM   23  C8  MIQ B 502     -30.769   1.603  23.830  1.00144.10     0.187 C 
HETATM   24  O9  MIQ B 502     -31.799   1.825  24.745  1.00148.65    -0.388 OA
HETATM   25  C10 MIQ B 502     -31.518   1.967  26.107  1.00147.44     0.187 C 
HETATM   26  C11 MIQ B 502     -30.175   2.565  26.516  1.00144.08     0.149 C 
ENDBRANCH   5  21
TORSDOF 2
ENDMDL
MODEL 6
REMARK VINA RESULT:      -5.6     19.670     20.965
REMARK  2 active torsions:
REMARK  status: ('A' for Active; 'I' for Inactive)
REMARK    1  A    between atoms: C5_5  and  N6_21 
REMARK    2  A    between atoms: C18_14  and  N17_19 
ROOT
HETATM    1  O1  MIQ B 502     -12.292   0.654  40.554  1.00142.91    -0.171 OA
HETATM    2  C2  MIQ B 502     -12.124   0.127  41.836  1.00141.17     0.195 A 
HETATM    3  C3  MIQ B 502     -11.965   0.947  43.156  1.00141.71     0.035 A 
HETATM    4  C4  MIQ B 502     -11.945   2.398  43.459  1.00142.86     0.046 A 
HETATM    5  C5  MIQ B 502     -11.781   2.850  44.793  1.00139.53     0.031 A 
HETATM    6  C12 MIQ B 502     -11.632   1.882  45.870  1.00139.38     0.030 A 
HETATM    7  C13 MIQ B 502     -11.652   0.491  45.581  1.00141.18     0.019 A 
HETATM    8  C14 MIQ B 502     -11.827   0.022  44.179  1.00138.77     0.033 A 
HETATM    9  C15 MIQ B 502     -11.901  -1.379  43.490  1.00142.10     0.195 A 
HETATM   10  N17 MIQ B 502     -12.069  -1.143  42.199  1.00139.42    -0.288 N 
HETATM   11  O16 MIQ B 502     -11.806  -2.624  44.114  1.00148.93    -0.171 OA
ENDROOT
BRANCH  10  12
HETATM   12  C18 MIQ B 502     -12.166  -2.225  41.237  1.00139.82     0.187 C 
HETATM   13  C19 MIQ B 502     -13.248  -3.193  41.730  1.00140.06     0.247 C 
HETATM   14  O25 MIQ B 502     -14.309  -2.770  42.024  1.00143.95    -0.271 OA
HETATM   15  N20 MIQ B 502     -13.007  -4.618  41.839  1.00140.02    -0.296 N 
HETATM   16  H13 MIQ B 502     -13.720  -5.238  42.168  1.00142.77     0.171 HD
HETATM   17  C21 MIQ B 502     -11.700  -5.109  41.484  1.00142.22     0.224 C 
HETATM   18  C22 MIQ B 502     -10.526  -4.195  41.775  1.00139.52     0.106 C 
HETATM   19  O24 MIQ B 502     -11.554  -6.171  40.986  1.00146.13    -0.273 OA
HETATM   20  C23 MIQ B 502     -10.804  -2.892  41.048  1.00139.15     0.045 C 
ENDBRANCH  10  12
BRANCH   5  21
HETATM   21  N6  MIQ B 502     -11.749   4.274  45.073  1.00140.95    -0.377 N 
HETATM   22  C7  MIQ B 502     -11.188   4.720  46.336  1.00142.12     0.149 C 
HETATM   23  C8  MIQ B 502     -11.773   6.056  46.777  1.00144.10     0.187 C 
HETATM   24  O9  MIQ B 502     -11.779   7.010  45.757  1.00148.65    -0.388 OA
HETATM   25  C10 MIQ B 502     -11.488   6.640  44.441  1.00147.44     0.187 C 
HETATM   26  C11 MIQ B 502     -11.845   5.229  43.983  1.00144.08     0.149 C 
ENDBRANCH   5  21
TORSDOF 2
ENDMDL
MODEL 7
REMARK VINA RESULT:      -5.5     19.417     20.875
REMARK  2 active torsions:
REMARK  status: ('A' for Active; 'I' for Inactive)
REMARK    1  A    between atoms: C5_5  and  N6_21 
REMARK    2  A    between atoms: C18_14  and  N17_19 
ROOT
HETATM    1  O1  MIQ B 502     -12.037  -2.177  43.971  1.00142.91    -0.171 OA
HETATM    2  C2  MIQ B 502     -11.954  -1.293  42.893  1.00141.17     0.195 A 
HETATM    3  C3  MIQ B 502     -11.822   0.260  42.981  1.00141.71     0.035 A 
HETATM    4  C4  MIQ B 502     -11.746   1.214  44.114  1.00142.86     0.046 A 
HETATM    5  C5  MIQ B 502     -11.624   2.605  43.873  1.00139.53     0.031 A 
HETATM    6  C12 MIQ B 502     -11.574   3.100  42.504  1.00139.38     0.030 A 
HETATM    7  C13 MIQ B 502     -11.645   2.186  41.418  1.00141.18     0.019 A 
HETATM    8  C14 MIQ B 502     -11.770   0.726  41.678  1.00138.77     0.033 A 
HETATM    9  C15 MIQ B 502     -11.870  -0.547  40.774  1.00142.10     0.195 A 
HETATM   10  N17 MIQ B 502     -11.963  -1.575  41.601  1.00139.42    -0.288 N 
HETATM   11  O16 MIQ B 502     -11.865  -0.583  39.379  1.00148.93    -0.171 OA
ENDROOT
BRANCH  10  12
HETATM   12  C18 MIQ B 502     -12.089  -2.934  41.108  1.00139.82     0.187 C 
HETATM   13  C19 MIQ B 502     -13.345  -3.546  41.740  1.00140.06     0.247 C 
HETATM   14  O25 MIQ B 502     -14.366  -2.959  41.678  1.00143.95    -0.271 OA
HETATM   15  N20 MIQ B 502     -13.315  -4.831  42.408  1.00140.02    -0.296 N 
HETATM   16  H13 MIQ B 502     -14.141  -5.217  42.823  1.00142.77     0.171 HD
HETATM   17  C21 MIQ B 502     -12.055  -5.524  42.481  1.00142.22     0.224 C 
HETATM   18  C22 MIQ B 502     -10.811  -4.666  42.600  1.00139.52     0.106 C 
HETATM   19  O24 MIQ B 502     -11.996  -6.704  42.444  1.00146.13    -0.273 OA
HETATM   20  C23 MIQ B 502     -10.818  -3.728  41.406  1.00139.15     0.045 C 
ENDBRANCH  10  12
BRANCH   5  21
HETATM   21  N6  MIQ B 502     -11.566   3.529  44.991  1.00140.95    -0.377 N 
HETATM   22  C7  MIQ B 502     -11.077   3.041  46.269  1.00142.12     0.149 C 
HETATM   23  C8  MIQ B 502     -11.648   3.836  47.437  1.00144.10     0.187 C 
HETATM   24  O9  MIQ B 502     -11.557   5.217  47.250  1.00148.65    -0.388 OA
HETATM   25  C10 MIQ B 502     -11.191   5.740  46.008  1.00147.44     0.187 C 
HETATM   26  C11 MIQ B 502     -11.560   4.961  44.750  1.00144.08     0.149 C 
ENDBRANCH   5  21
TORSDOF 2
ENDMDL
MODEL 8
REMARK VINA RESULT:      -5.5      2.470      8.200
REMARK  2 active torsions:
REMARK  status: ('A' for Active; 'I' for Inactive)
REMARK    1  A    between atoms: C5_5  and  N6_21 
REMARK    2  A    between atoms: C18_14  and  N17_19 
ROOT
HETATM    1  O1  MIQ B 502     -32.273  -2.180  36.894  1.00142.91    -0.171 OA
HETATM    2  C2  MIQ B 502     -31.941  -3.527  36.740  1.00141.17     0.195 A 
HETATM    3  C3  MIQ B 502     -30.988  -4.124  35.657  1.00141.71     0.035 A 
HETATM    4  C4  MIQ B 502     -30.200  -3.527  34.552  1.00142.86     0.046 A 
HETATM    5  C5  MIQ B 502     -29.405  -4.349  33.713  1.00139.53     0.031 A 
HETATM    6  C12 MIQ B 502     -29.363  -5.786  33.939  1.00139.38     0.030 A 
HETATM    7  C13 MIQ B 502     -30.118  -6.359  34.999  1.00141.18     0.019 A 
HETATM    8  C14 MIQ B 502     -30.949  -5.491  35.878  1.00138.77     0.033 A 
HETATM    9  C15 MIQ B 502     -31.883  -5.744  37.106  1.00142.10     0.195 A 
HETATM   10  N17 MIQ B 502     -32.348  -4.558  37.462  1.00139.42    -0.288 N 
HETATM   11  O16 MIQ B 502     -32.166  -6.975  37.701  1.00148.93    -0.171 OA
ENDROOT
BRANCH  10  12
HETATM   12  C18 MIQ B 502     -33.270  -4.408  38.572  1.00139.82     0.187 C 
HETATM   13  C19 MIQ B 502     -34.488  -3.626  38.065  1.00140.06     0.247 C 
HETATM   14  O25 MIQ B 502     -35.035  -3.984  37.083  1.00143.95    -0.271 OA
HETATM   15  N20 MIQ B 502     -34.991  -2.460  38.762  1.00140.02    -0.296 N 
HETATM   16  H13 MIQ B 502     -35.783  -1.954  38.418  1.00142.77     0.171 HD
HETATM   17  C21 MIQ B 502     -34.300  -2.036  39.953  1.00142.22     0.224 C 
HETATM   18  C22 MIQ B 502     -32.799  -2.253  39.984  1.00139.52     0.106 C 
HETATM   19  O24 MIQ B 502     -34.877  -1.547  40.861  1.00146.13    -0.273 OA
HETATM   20  C23 MIQ B 502     -32.574  -3.737  39.755  1.00139.15     0.045 C 
ENDBRANCH  10  12
BRANCH   5  21
HETATM   21  N6  MIQ B 502     -28.650  -3.752  32.627  1.00140.95    -0.377 N 
HETATM   22  C7  MIQ B 502     -27.212  -3.952  32.589  1.00142.12     0.149 C 
HETATM   23  C8  MIQ B 502     -26.500  -2.821  31.858  1.00144.10     0.187 C 
HETATM   24  O9  MIQ B 502     -27.091  -2.509  30.632  1.00148.65    -0.388 OA
HETATM   25  C10 MIQ B 502     -28.332  -3.050  30.287  1.00147.44     0.187 C 
HETATM   26  C11 MIQ B 502     -29.326  -3.364  31.401  1.00144.08     0.149 C 
ENDBRANCH   5  21
TORSDOF 2
ENDMDL
MODEL 9
REMARK VINA RESULT:      -5.5     12.131     13.385
REMARK  2 active torsions:
REMARK  status: ('A' for Active; 'I' for Inactive)
REMARK    1  A    between atoms: C5_5  and  N6_21 
REMARK    2  A    between atoms: C18_14  and  N17_19 
ROOT
HETATM    1  O1  MIQ B 502     -26.811   6.444  28.091  1.00142.91    -0.171 OA
HETATM    2  C2  MIQ B 502     -26.039   5.333  27.745  1.00141.17     0.195 A 
HETATM    3  C3  MIQ B 502     -26.462   4.180  26.780  1.00141.71     0.035 A 
HETATM    4  C4  MIQ B 502     -27.688   3.909  25.992  1.00142.86     0.046 A 
HETATM    5  C5  MIQ B 502     -27.779   2.748  25.185  1.00139.53     0.031 A 
HETATM    6  C12 MIQ B 502     -26.661   1.817  25.130  1.00139.38     0.030 A 
HETATM    7  C13 MIQ B 502     -25.485   2.077  25.884  1.00141.18     0.019 A 
HETATM    8  C14 MIQ B 502     -25.394   3.299  26.728  1.00138.77     0.033 A 
HETATM    9  C15 MIQ B 502     -24.302   3.909  27.666  1.00142.10     0.195 A 
HETATM   10  N17 MIQ B 502     -24.816   5.030  28.145  1.00139.42    -0.288 N 
HETATM   11  O16 MIQ B 502     -23.042   3.373  27.941  1.00148.93    -0.171 OA
ENDROOT
BRANCH  10  12
HETATM   12  C18 MIQ B 502     -24.078   5.865  29.075  1.00139.82     0.187 C 
HETATM   13  C19 MIQ B 502     -22.685   6.108  28.482  1.00140.06     0.247 C 
HETATM   14  O25 MIQ B 502     -22.591   6.496  27.372  1.00143.95    -0.271 OA
HETATM   15  N20 MIQ B 502     -21.478   5.879  29.249  1.00140.02    -0.296 N 
HETATM   16  H13 MIQ B 502     -20.574   6.035  28.848  1.00142.77     0.171 HD
HETATM   17  C21 MIQ B 502     -21.617   5.395  30.598  1.00142.22     0.224 C 
HETATM   18  C22 MIQ B 502     -22.784   4.465  30.871  1.00139.52     0.106 C 
HETATM   19  O24 MIQ B 502     -20.862   5.712  31.449  1.00146.13    -0.273 OA
HETATM   20  C23 MIQ B 502     -24.038   5.214  30.457  1.00139.15     0.045 C 
ENDBRANCH  10  12
BRANCH   5  21
HETATM   21  N6  MIQ B 502     -28.991   2.487  24.430  1.00140.95    -0.377 N 
HETATM   22  C7  MIQ B 502     -29.515   1.133  24.404  1.00142.12     0.149 C 
HETATM   23  C8  MIQ B 502     -30.328   0.862  23.144  1.00144.10     0.187 C 
HETATM   24  O9  MIQ B 502     -31.258   1.867  22.871  1.00148.65    -0.388 OA
HETATM   25  C10 MIQ B 502     -31.228   3.070  23.580  1.00147.44     0.187 C 
HETATM   26  C11 MIQ B 502     -29.886   3.581  24.095  1.00144.08     0.149 C 
ENDBRANCH   5  21
TORSDOF 2
ENDMDL
