REMARK  2 active torsions:
REMARK  status: ('A' for Active; 'I' for Inactive)
REMARK    1  A    between atoms: C5_5  and  N6_21 
REMARK    2  A    between atoms: C18_14  and  N17_19 
ROOT
HETATM    1  O1  MIQ B 502     144.061 152.601  90.262  1.00142.91    -0.171 OA
HETATM    2  C2  MIQ B 502     143.160 151.545  90.108  1.00141.17     0.195 A 
HETATM    3  C3  MIQ B 502     142.255 151.279  88.863  1.00141.71     0.035 A 
HETATM    4  C4  MIQ B 502     142.071 151.978  87.569  1.00142.86     0.046 A 
HETATM    5  C5  MIQ B 502     141.151 151.482  86.611  1.00139.53     0.031 A 
HETATM    6  C12 MIQ B 502     140.384 150.279  86.901  1.00139.38     0.030 A 
HETATM    7  C13 MIQ B 502     140.561 149.608  88.141  1.00141.18     0.019 A 
HETATM    8  C14 MIQ B 502     141.530 150.132  89.142  1.00138.77     0.033 A 
HETATM    9  C15 MIQ B 502     141.988 149.683  90.568  1.00142.10     0.195 A 
HETATM   10  N17 MIQ B 502     142.891 150.568  90.957  1.00139.42    -0.288 N 
HETATM   11  O16 MIQ B 502     141.531 148.574  91.282  1.00148.93    -0.171 OA
ENDROOT
BRANCH  10  12
HETATM   12  C18 MIQ B 502     143.531 150.476  92.256  1.00139.82     0.187 C 
HETATM   13  C19 MIQ B 502     143.618 151.893  92.836  1.00140.06     0.247 C 
HETATM   14  O25 MIQ B 502     142.647 152.562  92.870  1.00143.95    -0.271 OA
HETATM   15  N20 MIQ B 502     144.860 152.433  93.350  1.00140.02    -0.296 N 
HETATM   16  H13 MIQ B 502     144.905 153.362  93.720  1.00142.77     0.171 HD
HETATM   17  C21 MIQ B 502     146.034 151.601  93.288  1.00142.22     0.224 C 
HETATM   18  C22 MIQ B 502     146.139 150.658  92.105  1.00139.52     0.106 C 
HETATM   19  O24 MIQ B 502     146.870 151.649  94.122  1.00146.13    -0.273 OA
HETATM   20  C23 MIQ B 502     144.892 149.793  92.131  1.00139.15     0.045 C 
ENDBRANCH  10  12
BRANCH   5  21
HETATM   21  N6  MIQ B 502     140.970 152.185  85.354  1.00140.95    -0.377 N 
HETATM   22  C7  MIQ B 502     139.622 152.539  84.944  1.00142.12     0.149 C 
HETATM   23  C8  MIQ B 502     139.500 152.655  83.430  1.00144.10     0.187 C 
HETATM   24  O9  MIQ B 502     140.518 153.422  82.860  1.00148.65    -0.388 OA
HETATM   25  C10 MIQ B 502     141.623 153.810  83.622  1.00147.44     0.187 C 
HETATM   26  C11 MIQ B 502     142.084 152.899  84.755  1.00144.08     0.149 C 
ENDBRANCH   5  21
TORSDOF 2
