MODEL 1
REMARK VINA RESULT:      -8.3      0.000      0.000
REMARK  2 active torsions:
REMARK  status: ('A' for Active; 'I' for Inactive)
REMARK    1  A    between atoms: C5_5  and  N6_21 
REMARK    2  A    between atoms: C18_14  and  N17_19 
ROOT
HETATM    1  O1  MIQ B 502       7.211  -4.064  -6.066  1.00142.91    -0.171 OA
HETATM    2  C2  MIQ B 502       6.264  -3.055  -6.249  1.00141.17     0.195 A 
HETATM    3  C3  MIQ B 502       4.747  -3.136  -5.886  1.00141.71     0.035 A 
HETATM    4  C4  MIQ B 502       3.898  -4.194  -5.288  1.00142.86     0.046 A 
HETATM    5  C5  MIQ B 502       2.515  -3.966  -5.073  1.00139.53     0.031 A 
HETATM    6  C12 MIQ B 502       1.927  -2.686  -5.441  1.00139.38     0.030 A 
HETATM    7  C13 MIQ B 502       2.741  -1.671  -6.013  1.00141.18     0.019 A 
HETATM    8  C14 MIQ B 502       4.193  -1.915  -6.234  1.00138.77     0.033 A 
HETATM    9  C15 MIQ B 502       5.373  -1.071  -6.817  1.00142.10     0.195 A 
HETATM   10  N17 MIQ B 502       6.444  -1.845  -6.750  1.00139.42    -0.288 N 
HETATM   11  O16 MIQ B 502       5.304   0.234  -7.308  1.00148.93    -0.171 OA
ENDROOT
BRANCH  10  12
HETATM   12  C18 MIQ B 502       7.738  -1.390  -7.224  1.00139.82     0.187 C 
HETATM   13  C19 MIQ B 502       8.082  -0.097  -6.475  1.00140.06     0.247 C 
HETATM   14  O25 MIQ B 502       8.013  -0.078  -5.297  1.00143.95    -0.271 OA
HETATM   15  N20 MIQ B 502       8.497   1.103  -7.172  1.00140.02    -0.296 N 
HETATM   16  H13 MIQ B 502       8.713   1.942  -6.671  1.00142.77     0.171 HD
HETATM   17  C21 MIQ B 502       8.564   1.058  -8.610  1.00142.22     0.224 C 
HETATM   18  C22 MIQ B 502       7.547   0.179  -9.312  1.00139.52     0.106 C 
HETATM   19  O24 MIQ B 502       9.375   1.673  -9.210  1.00146.13    -0.273 OA
HETATM   20  C23 MIQ B 502       7.717  -1.217  -8.742  1.00139.15     0.045 C 
ENDBRANCH  10  12
BRANCH   5  21
HETATM   21  N6  MIQ B 502       1.692  -5.016  -4.500  1.00140.95    -0.377 N 
HETATM   22  C7  MIQ B 502       2.251  -6.352  -4.386  1.00142.12     0.149 C 
HETATM   23  C8  MIQ B 502       1.169  -7.424  -4.402  1.00144.10     0.187 C 
HETATM   24  O9  MIQ B 502       0.112  -7.143  -3.534  1.00148.65    -0.388 OA
HETATM   25  C10 MIQ B 502       0.009  -5.889  -2.928  1.00147.44     0.187 C 
HETATM   26  C11 MIQ B 502       0.549  -4.672  -3.672  1.00144.08     0.149 C 
ENDBRANCH   5  21
TORSDOF 2
ENDMDL
MODEL 2
REMARK VINA RESULT:      -8.1      1.837      2.474
REMARK  2 active torsions:
REMARK  status: ('A' for Active; 'I' for Inactive)
REMARK    1  A    between atoms: C5_5  and  N6_21 
REMARK    2  A    between atoms: C18_14  and  N17_19 
ROOT
HETATM    1  O1  MIQ B 502       6.156  -2.679  -3.266  1.00142.91    -0.171 OA
HETATM    2  C2  MIQ B 502       5.461  -3.048  -4.420  1.00141.17     0.195 A 
HETATM    3  C3  MIQ B 502       4.212  -3.983  -4.484  1.00141.71     0.035 A 
HETATM    4  C4  MIQ B 502       3.428  -4.709  -3.457  1.00142.86     0.046 A 
HETATM    5  C5  MIQ B 502       2.313  -5.500  -3.833  1.00139.53     0.031 A 
HETATM    6  C12 MIQ B 502       1.936  -5.598  -5.235  1.00139.38     0.030 A 
HETATM    7  C13 MIQ B 502       2.687  -4.902  -6.221  1.00141.18     0.019 A 
HETATM    8  C14 MIQ B 502       3.855  -4.071  -5.820  1.00138.77     0.033 A 
HETATM    9  C15 MIQ B 502       4.888  -3.185  -6.589  1.00142.10     0.195 A 
HETATM   10  N17 MIQ B 502       5.702  -2.692  -5.670  1.00139.42    -0.288 N 
HETATM   11  O16 MIQ B 502       4.939  -2.964  -7.966  1.00148.93    -0.171 OA
ENDROOT
BRANCH  10  12
HETATM   12  C18 MIQ B 502       6.810  -1.825  -6.025  1.00139.82     0.187 C 
HETATM   13  C19 MIQ B 502       6.229  -0.578  -6.705  1.00140.06     0.247 C 
HETATM   14  O25 MIQ B 502       5.359   0.015  -6.173  1.00143.95    -0.271 OA
HETATM   15  N20 MIQ B 502       6.724  -0.104  -7.981  1.00140.02    -0.296 N 
HETATM   16  H13 MIQ B 502       6.331   0.707  -8.417  1.00142.77     0.171 HD
HETATM   17  C21 MIQ B 502       7.779  -0.851  -8.615  1.00142.22     0.224 C 
HETATM   18  C22 MIQ B 502       7.774  -2.352  -8.402  1.00139.52     0.106 C 
HETATM   19  O24 MIQ B 502       8.609  -0.317  -9.265  1.00146.13    -0.273 OA
HETATM   20  C23 MIQ B 502       7.812  -2.575  -6.901  1.00139.15     0.045 C 
ENDBRANCH  10  12
BRANCH   5  21
HETATM   21  N6  MIQ B 502       1.563  -6.218  -2.817  1.00140.95    -0.377 N 
HETATM   22  C7  MIQ B 502       0.415  -7.007  -3.230  1.00142.12     0.149 C 
HETATM   23  C8  MIQ B 502      -0.607  -7.151  -2.110  1.00144.10     0.187 C 
HETATM   24  O9  MIQ B 502      -0.032  -7.524  -0.893  1.00148.65    -0.388 OA
HETATM   25  C10 MIQ B 502       1.356  -7.517  -0.735  1.00147.44     0.187 C 
HETATM   26  C11 MIQ B 502       2.176  -6.509  -1.533  1.00144.08     0.149 C 
ENDBRANCH   5  21
TORSDOF 2
ENDMDL
MODEL 3
REMARK VINA RESULT:      -7.8      2.313      3.350
REMARK  2 active torsions:
REMARK  status: ('A' for Active; 'I' for Inactive)
REMARK    1  A    between atoms: C5_5  and  N6_21 
REMARK    2  A    between atoms: C18_14  and  N17_19 
ROOT
HETATM    1  O1  MIQ B 502       5.703  -3.242  -4.680  1.00142.91    -0.171 OA
HETATM    2  C2  MIQ B 502       4.346  -3.064  -4.959  1.00141.17     0.195 A 
HETATM    3  C3  MIQ B 502       3.160  -3.847  -4.311  1.00141.71     0.035 A 
HETATM    4  C4  MIQ B 502       3.085  -4.921  -3.292  1.00142.86     0.046 A 
HETATM    5  C5  MIQ B 502       1.829  -5.445  -2.895  1.00139.53     0.031 A 
HETATM    6  C12 MIQ B 502       0.607  -4.923  -3.491  1.00139.38     0.030 A 
HETATM    7  C13 MIQ B 502       0.679  -3.893  -4.467  1.00141.18     0.019 A 
HETATM    8  C14 MIQ B 502       2.001  -3.345  -4.879  1.00138.77     0.033 A 
HETATM    9  C15 MIQ B 502       2.469  -2.244  -5.885  1.00142.10     0.195 A 
HETATM   10  N17 MIQ B 502       3.789  -2.214  -5.805  1.00139.42    -0.288 N 
HETATM   11  O16 MIQ B 502       1.654  -1.458  -6.702  1.00148.93    -0.171 OA
ENDROOT
BRANCH  10  12
HETATM   12  C18 MIQ B 502       4.576  -1.309  -6.621  1.00139.82     0.187 C 
HETATM   13  C19 MIQ B 502       5.621  -2.144  -7.372  1.00140.06     0.247 C 
HETATM   14  O25 MIQ B 502       5.271  -3.093  -7.979  1.00143.95    -0.271 OA
HETATM   15  N20 MIQ B 502       7.027  -1.797  -7.361  1.00140.02    -0.296 N 
HETATM   16  H13 MIQ B 502       7.700  -2.355  -7.850  1.00142.77     0.171 HD
HETATM   17  C21 MIQ B 502       7.431  -0.641  -6.604  1.00142.22     0.224 C 
HETATM   18  C22 MIQ B 502       6.648  -0.347  -5.339  1.00139.52     0.106 C 
HETATM   19  O24 MIQ B 502       8.326   0.047  -6.956  1.00146.13    -0.273 OA
HETATM   20  C23 MIQ B 502       5.194  -0.212  -5.754  1.00139.15     0.045 C 
ENDBRANCH  10  12
BRANCH   5  21
HETATM   21  N6  MIQ B 502       1.770  -6.506  -1.907  1.00140.95    -0.377 N 
HETATM   22  C7  MIQ B 502       2.834  -6.598  -0.921  1.00142.12     0.149 C 
HETATM   23  C8  MIQ B 502       3.014  -8.021  -0.409  1.00144.10     0.187 C 
HETATM   24  O9  MIQ B 502       1.809  -8.624  -0.044  1.00148.65    -0.388 OA
HETATM   25  C10 MIQ B 502       0.590  -8.019  -0.362  1.00147.44     0.187 C 
HETATM   26  C11 MIQ B 502       0.507  -7.164  -1.622  1.00144.08     0.149 C 
ENDBRANCH   5  21
TORSDOF 2
ENDMDL
MODEL 4
REMARK VINA RESULT:      -7.8      1.975      8.578
REMARK  2 active torsions:
REMARK  status: ('A' for Active; 'I' for Inactive)
REMARK    1  A    between atoms: C5_5  and  N6_21 
REMARK    2  A    between atoms: C18_14  and  N17_19 
ROOT
HETATM    1  O1  MIQ B 502       2.298  -5.098  -7.188  1.00142.91    -0.171 OA
HETATM    2  C2  MIQ B 502       2.845  -4.647  -5.985  1.00141.17     0.195 A 
HETATM    3  C3  MIQ B 502       4.023  -3.634  -5.829  1.00141.71     0.035 A 
HETATM    4  C4  MIQ B 502       4.862  -2.890  -6.799  1.00142.86     0.046 A 
HETATM    5  C5  MIQ B 502       5.882  -2.018  -6.343  1.00139.53     0.031 A 
HETATM    6  C12 MIQ B 502       6.106  -1.852  -4.914  1.00139.38     0.030 A 
HETATM    7  C13 MIQ B 502       5.301  -2.564  -3.984  1.00141.18     0.019 A 
HETATM    8  C14 MIQ B 502       4.230  -3.477  -4.469  1.00138.77     0.033 A 
HETATM    9  C15 MIQ B 502       3.173  -4.397  -3.775  1.00142.10     0.195 A 
HETATM   10  N17 MIQ B 502       2.489  -4.968  -4.753  1.00139.42    -0.288 N 
HETATM   11  O16 MIQ B 502       2.994  -4.577  -2.402  1.00148.93    -0.171 OA
ENDROOT
BRANCH  10  12
HETATM   12  C18 MIQ B 502       1.421  -5.912  -4.479  1.00139.82     0.187 C 
HETATM   13  C19 MIQ B 502       0.398  -5.211  -3.575  1.00140.06     0.247 C 
HETATM   14  O25 MIQ B 502      -0.019  -4.154  -3.889  1.00143.95    -0.271 OA
HETATM   15  N20 MIQ B 502      -0.076  -5.816  -2.347  1.00140.02    -0.296 N 
HETATM   16  H13 MIQ B 502      -0.739  -5.345  -1.763  1.00142.77     0.171 HD
HETATM   17  C21 MIQ B 502       0.455  -7.103  -1.980  1.00142.22     0.224 C 
HETATM   18  C22 MIQ B 502       1.896  -7.379  -2.363  1.00139.52     0.106 C 
HETATM   19  O24 MIQ B 502      -0.203  -7.904  -1.412  1.00146.13    -0.273 OA
HETATM   20  C23 MIQ B 502       1.986  -7.192  -3.866  1.00139.15     0.045 C 
ENDBRANCH  10  12
BRANCH   5  21
HETATM   21  N6  MIQ B 502       6.706  -1.307  -7.304  1.00140.95    -0.377 N 
HETATM   22  C7  MIQ B 502       7.776  -0.459  -6.808  1.00142.12     0.149 C 
HETATM   23  C8  MIQ B 502       8.108   0.665  -7.781  1.00144.10     0.187 C 
HETATM   24  O9  MIQ B 502       8.259   0.220  -9.095  1.00148.65    -0.388 OA
HETATM   25  C10 MIQ B 502       7.900  -1.084  -9.447  1.00147.44     0.187 C 
HETATM   26  C11 MIQ B 502       6.765  -1.759  -8.683  1.00144.08     0.149 C 
ENDBRANCH   5  21
TORSDOF 2
ENDMDL
MODEL 5
REMARK VINA RESULT:      -7.8      1.629      8.363
REMARK  2 active torsions:
REMARK  status: ('A' for Active; 'I' for Inactive)
REMARK    1  A    between atoms: C5_5  and  N6_21 
REMARK    2  A    between atoms: C18_14  and  N17_19 
ROOT
HETATM    1  O1  MIQ B 502       5.518  -5.179  -4.861  1.00142.91    -0.171 OA
HETATM    2  C2  MIQ B 502       4.427  -4.324  -5.033  1.00141.17     0.195 A 
HETATM    3  C3  MIQ B 502       4.466  -2.891  -5.652  1.00141.71     0.035 A 
HETATM    4  C4  MIQ B 502       5.553  -2.051  -6.208  1.00142.86     0.046 A 
HETATM    5  C5  MIQ B 502       5.271  -0.756  -6.712  1.00139.53     0.031 A 
HETATM    6  C12 MIQ B 502       3.906  -0.251  -6.684  1.00139.38     0.030 A 
HETATM    7  C13 MIQ B 502       2.864  -1.057  -6.152  1.00141.18     0.019 A 
HETATM    8  C14 MIQ B 502       3.165  -2.416  -5.626  1.00138.77     0.033 A 
HETATM    9  C15 MIQ B 502       2.313  -3.561  -4.988  1.00142.10     0.195 A 
HETATM   10  N17 MIQ B 502       3.161  -4.541  -4.721  1.00139.42    -0.288 N 
HETATM   11  O16 MIQ B 502       0.938  -3.546  -4.747  1.00148.93    -0.171 OA
ENDROOT
BRANCH  10  12
HETATM   12  C18 MIQ B 502       2.719  -5.776  -4.099  1.00139.82     0.187 C 
HETATM   13  C19 MIQ B 502       1.530  -6.308  -4.909  1.00140.06     0.247 C 
HETATM   14  O25 MIQ B 502       1.633  -6.416  -6.079  1.00143.95    -0.271 OA
HETATM   15  N20 MIQ B 502       0.284  -6.688  -4.275  1.00140.02    -0.296 N 
HETATM   16  H13 MIQ B 502      -0.487  -7.028  -4.816  1.00142.77     0.171 HD
HETATM   17  C21 MIQ B 502       0.180  -6.537  -2.847  1.00142.22     0.224 C 
HETATM   18  C22 MIQ B 502       0.932  -5.374  -2.228  1.00139.52     0.106 C 
HETATM   19  O24 MIQ B 502      -0.456  -7.287  -2.191  1.00146.13    -0.273 OA
HETATM   20  C23 MIQ B 502       2.387  -5.541  -2.627  1.00139.15     0.045 C 
ENDBRANCH  10  12
BRANCH   5  21
HETATM   21  N6  MIQ B 502       6.348   0.062  -7.240  1.00140.95    -0.377 N 
HETATM   22  C7  MIQ B 502       7.695  -0.158  -6.743  1.00142.12     0.149 C 
HETATM   23  C8  MIQ B 502       8.553   1.096  -6.851  1.00144.10     0.187 C 
HETATM   24  O9  MIQ B 502       8.472   1.704  -8.105  1.00148.65    -0.388 OA
HETATM   25  C10 MIQ B 502       7.510   1.291  -9.031  1.00147.44     0.187 C 
HETATM   26  C11 MIQ B 502       6.184   0.746  -8.511  1.00144.08     0.149 C 
ENDBRANCH   5  21
TORSDOF 2
ENDMDL
MODEL 6
REMARK VINA RESULT:      -7.6      3.702      6.675
REMARK  2 active torsions:
REMARK  status: ('A' for Active; 'I' for Inactive)
REMARK    1  A    between atoms: C5_5  and  N6_21 
REMARK    2  A    between atoms: C18_14  and  N17_19 
ROOT
HETATM    1  O1  MIQ B 502       3.725  -4.412  -5.710  1.00142.91    -0.171 OA
HETATM    2  C2  MIQ B 502       4.400  -3.349  -6.314  1.00141.17     0.195 A 
HETATM    3  C3  MIQ B 502       5.488  -3.460  -7.428  1.00141.71     0.035 A 
HETATM    4  C4  MIQ B 502       6.100  -4.605  -8.144  1.00142.86     0.046 A 
HETATM    5  C5  MIQ B 502       7.090  -4.385  -9.134  1.00139.53     0.031 A 
HETATM    6  C12 MIQ B 502       7.507  -3.026  -9.450  1.00139.38     0.030 A 
HETATM    7  C13 MIQ B 502       6.919  -1.928  -8.765  1.00141.18     0.019 A 
HETATM    8  C14 MIQ B 502       5.878  -2.165  -7.728  1.00138.77     0.033 A 
HETATM    9  C15 MIQ B 502       5.027  -1.244  -6.794  1.00142.10     0.195 A 
HETATM   10  N17 MIQ B 502       4.262  -2.055  -6.081  1.00139.42    -0.288 N 
HETATM   11  O16 MIQ B 502       5.072   0.149  -6.728  1.00148.93    -0.171 OA
ENDROOT
BRANCH  10  12
HETATM   12  C18 MIQ B 502       3.340  -1.543  -5.084  1.00139.82     0.187 C 
HETATM   13  C19 MIQ B 502       2.395  -0.558  -5.783  1.00140.06     0.247 C 
HETATM   14  O25 MIQ B 502       1.838  -0.893  -6.767  1.00143.95    -0.271 OA
HETATM   15  N20 MIQ B 502       2.162   0.775  -5.265  1.00140.02    -0.296 N 
HETATM   16  H13 MIQ B 502       1.548   1.411  -5.734  1.00142.77     0.171 HD
HETATM   17  C21 MIQ B 502       2.862   1.165  -4.068  1.00142.22     0.224 C 
HETATM   18  C22 MIQ B 502       4.253   0.593  -3.875  1.00139.52     0.106 C 
HETATM   19  O24 MIQ B 502       2.372   1.891  -3.275  1.00146.13    -0.273 OA
HETATM   20  C23 MIQ B 502       4.108  -0.917  -3.921  1.00139.15     0.045 C 
ENDBRANCH  10  12
BRANCH   5  21
HETATM   21  N6  MIQ B 502       7.692  -5.516  -9.816  1.00140.95    -0.377 N 
HETATM   22  C7  MIQ B 502       6.825  -6.574 -10.304  1.00142.12     0.149 C 
HETATM   23  C8  MIQ B 502       7.551  -7.911 -10.389  1.00144.10     0.187 C 
HETATM   24  O9  MIQ B 502       8.792  -7.816 -11.023  1.00148.65    -0.388 OA
HETATM   25  C10 MIQ B 502       9.347  -6.566 -11.309  1.00147.44     0.187 C 
HETATM   26  C11 MIQ B 502       9.023  -5.396 -10.385  1.00144.08     0.149 C 
ENDBRANCH   5  21
TORSDOF 2
ENDMDL
MODEL 7
REMARK VINA RESULT:      -7.4      2.619      8.525
REMARK  2 active torsions:
REMARK  status: ('A' for Active; 'I' for Inactive)
REMARK    1  A    between atoms: C5_5  and  N6_21 
REMARK    2  A    between atoms: C18_14  and  N17_19 
ROOT
HETATM    1  O1  MIQ B 502       2.921  -4.655  -2.383  1.00142.91    -0.171 OA
HETATM    2  C2  MIQ B 502       2.997  -4.557  -3.774  1.00141.17     0.195 A 
HETATM    3  C3  MIQ B 502       3.983  -3.655  -4.583  1.00141.71     0.035 A 
HETATM    4  C4  MIQ B 502       5.054  -2.708  -4.190  1.00142.86     0.046 A 
HETATM    5  C5  MIQ B 502       5.800  -2.019  -5.179  1.00139.53     0.031 A 
HETATM    6  C12 MIQ B 502       5.512  -2.244  -6.589  1.00139.38     0.030 A 
HETATM    7  C13 MIQ B 502       4.487  -3.153  -6.966  1.00141.18     0.019 A 
HETATM    8  C14 MIQ B 502       3.709  -3.876  -5.923  1.00138.77     0.033 A 
HETATM    9  C15 MIQ B 502       2.546  -4.921  -5.946  1.00142.10     0.195 A 
HETATM   10  N17 MIQ B 502       2.275  -5.193  -4.680  1.00139.42    -0.288 N 
HETATM   11  O16 MIQ B 502       1.923  -5.453  -7.076  1.00148.93    -0.171 OA
ENDROOT
BRANCH  10  12
HETATM   12  C18 MIQ B 502       1.224  -6.125  -4.314  1.00139.82     0.187 C 
HETATM   13  C19 MIQ B 502       0.270  -5.401  -3.356  1.00140.06     0.247 C 
HETATM   14  O25 MIQ B 502      -0.163  -4.347  -3.661  1.00143.95    -0.271 OA
HETATM   15  N20 MIQ B 502      -0.121  -5.979  -2.086  1.00140.02    -0.296 N 
HETATM   16  H13 MIQ B 502      -0.739  -5.493  -1.467  1.00142.77     0.171 HD
HETATM   17  C21 MIQ B 502       0.429  -7.262  -1.732  1.00142.22     0.224 C 
HETATM   18  C22 MIQ B 502       1.839  -7.554  -2.208  1.00139.52     0.106 C 
HETATM   19  O24 MIQ B 502      -0.192  -8.048  -1.104  1.00146.13    -0.273 OA
HETATM   20  C23 MIQ B 502       1.825  -7.396  -3.718  1.00139.15     0.045 C 
ENDBRANCH  10  12
BRANCH   5  21
HETATM   21  N6  MIQ B 502       6.835  -1.083  -4.780  1.00140.95    -0.377 N 
HETATM   22  C7  MIQ B 502       7.310  -1.117  -3.408  1.00142.12     0.149 C 
HETATM   23  C8  MIQ B 502       7.855   0.233  -2.961  1.00144.10     0.187 C 
HETATM   24  O9  MIQ B 502       8.738   0.796  -3.884  1.00148.65    -0.388 OA
HETATM   25  C10 MIQ B 502       8.877   0.241  -5.159  1.00147.44     0.187 C 
HETATM   26  C11 MIQ B 502       7.674  -0.456  -5.786  1.00144.08     0.149 C 
ENDBRANCH   5  21
TORSDOF 2
ENDMDL
MODEL 8
REMARK VINA RESULT:      -7.3      2.005      3.225
REMARK  2 active torsions:
REMARK  status: ('A' for Active; 'I' for Inactive)
REMARK    1  A    between atoms: C5_5  and  N6_21 
REMARK    2  A    between atoms: C18_14  and  N17_19 
ROOT
HETATM    1  O1  MIQ B 502       2.295  -2.222  -6.491  1.00142.91    -0.171 OA
HETATM    2  C2  MIQ B 502       3.382  -2.677  -5.741  1.00141.17     0.195 A 
HETATM    3  C3  MIQ B 502       3.327  -3.709  -4.570  1.00141.71     0.035 A 
HETATM    4  C4  MIQ B 502       2.225  -4.471  -3.934  1.00142.86     0.046 A 
HETATM    5  C5  MIQ B 502       2.494  -5.358  -2.862  1.00139.53     0.031 A 
HETATM    6  C12 MIQ B 502       3.859  -5.523  -2.384  1.00139.38     0.030 A 
HETATM    7  C13 MIQ B 502       4.915  -4.794  -2.995  1.00141.18     0.019 A 
HETATM    8  C14 MIQ B 502       4.628  -3.865  -4.122  1.00138.77     0.033 A 
HETATM    9  C15 MIQ B 502       5.496  -2.925  -5.020  1.00142.10     0.195 A 
HETATM   10  N17 MIQ B 502       4.656  -2.345  -5.861  1.00139.42    -0.288 N 
HETATM   11  O16 MIQ B 502       6.877  -2.736  -4.942  1.00148.93    -0.171 OA
ENDROOT
BRANCH  10  12
HETATM   12  C18 MIQ B 502       5.114  -1.383  -6.846  1.00139.82     0.187 C 
HETATM   13  C19 MIQ B 502       6.074  -2.108  -7.797  1.00140.06     0.247 C 
HETATM   14  O25 MIQ B 502       5.734  -3.121  -8.297  1.00143.95    -0.271 OA
HETATM   15  N20 MIQ B 502       7.387  -1.580  -8.106  1.00140.02    -0.296 N 
HETATM   16  H13 MIQ B 502       8.007  -2.066  -8.723  1.00142.77     0.171 HD
HETATM   17  C21 MIQ B 502       7.783  -0.347  -7.476  1.00142.22     0.224 C 
HETATM   18  C22 MIQ B 502       7.262  -0.100  -6.073  1.00139.52     0.106 C 
HETATM   19  O24 MIQ B 502       8.476   0.435  -8.029  1.00146.13    -0.273 OA
HETATM   20  C23 MIQ B 502       5.748  -0.177  -6.156  1.00139.15     0.045 C 
ENDBRANCH  10  12
BRANCH   5  21
HETATM   21  N6  MIQ B 502       1.403  -6.086  -2.239  1.00140.95    -0.377 N 
HETATM   22  C7  MIQ B 502       0.463  -6.793  -3.091  1.00142.12     0.149 C 
HETATM   23  C8  MIQ B 502      -0.902  -6.941  -2.432  1.00144.10     0.187 C 
HETATM   24  O9  MIQ B 502      -0.824  -7.404  -1.117  1.00148.65    -0.388 OA
HETATM   25  C10 MIQ B 502       0.409  -7.476  -0.465  1.00147.44     0.187 C 
HETATM   26  C11 MIQ B 502       1.494  -6.473  -0.841  1.00144.08     0.149 C 
ENDBRANCH   5  21
TORSDOF 2
ENDMDL
MODEL 9
REMARK VINA RESULT:      -7.3      3.908      6.615
REMARK  2 active torsions:
REMARK  status: ('A' for Active; 'I' for Inactive)
REMARK    1  A    between atoms: C5_5  and  N6_21 
REMARK    2  A    between atoms: C18_14  and  N17_19 
ROOT
HETATM    1  O1  MIQ B 502       5.731  -4.934  -4.778  1.00142.91    -0.171 OA
HETATM    2  C2  MIQ B 502       6.288  -3.845  -5.451  1.00141.17     0.195 A 
HETATM    3  C3  MIQ B 502       6.882  -3.860  -6.896  1.00141.71     0.035 A 
HETATM    4  C4  MIQ B 502       7.032  -4.916  -7.925  1.00142.86     0.046 A 
HETATM    5  C5  MIQ B 502       7.626  -4.617  -9.178  1.00139.53     0.031 A 
HETATM    6  C12 MIQ B 502       8.088  -3.264  -9.453  1.00139.38     0.030 A 
HETATM    7  C13 MIQ B 502       7.943  -2.251  -8.467  1.00141.18     0.019 A 
HETATM    8  C14 MIQ B 502       7.317  -2.571  -7.155  1.00138.77     0.033 A 
HETATM    9  C15 MIQ B 502       6.992  -1.751  -5.864  1.00142.10     0.195 A 
HETATM   10  N17 MIQ B 502       6.426  -2.601  -5.024  1.00139.42    -0.288 N 
HETATM   11  O16 MIQ B 502       7.252  -0.397  -5.646  1.00148.93    -0.171 OA
ENDROOT
BRANCH  10  12
HETATM   12  C18 MIQ B 502       6.000  -2.188  -3.700  1.00139.82     0.187 C 
HETATM   13  C19 MIQ B 502       5.169  -0.908  -3.854  1.00140.06     0.247 C 
HETATM   14  O25 MIQ B 502       4.280  -0.888  -4.628  1.00143.95    -0.271 OA
HETATM   15  N20 MIQ B 502       5.443   0.278  -3.069  1.00140.02    -0.296 N 
HETATM   16  H13 MIQ B 502       4.897   1.110  -3.184  1.00142.77     0.171 HD
HETATM   17  C21 MIQ B 502       6.540   0.233  -2.138  1.00142.22     0.224 C 
HETATM   18  C22 MIQ B 502       7.736  -0.612  -2.534  1.00139.52     0.106 C 
HETATM   19  O24 MIQ B 502       6.506   0.822  -1.114  1.00146.13    -0.273 OA
HETATM   20  C23 MIQ B 502       7.210  -2.014  -2.783  1.00139.15     0.045 C 
ENDBRANCH  10  12
BRANCH   5  21
HETATM   21  N6  MIQ B 502       7.780  -5.664 -10.170  1.00140.95    -0.377 N 
HETATM   22  C7  MIQ B 502       9.108  -5.934 -10.695  1.00142.12     0.149 C 
HETATM   23  C8  MIQ B 502       9.056  -6.529 -12.096  1.00144.10     0.187 C 
HETATM   24  O9  MIQ B 502       8.146  -7.582 -12.206  1.00148.65    -0.388 OA
HETATM   25  C10 MIQ B 502       7.247  -7.851 -11.171  1.00147.44     0.187 C 
HETATM   26  C11 MIQ B 502       6.763  -6.692 -10.305  1.00144.08     0.149 C 
ENDBRANCH   5  21
TORSDOF 2
ENDMDL
