MODEL 1
REMARK VINA RESULT:      -7.8      0.000      0.000
REMARK  2 active torsions:
REMARK  status: ('A' for Active; 'I' for Inactive)
REMARK    1  A    between atoms: C5_5  and  N6_21 
REMARK    2  A    between atoms: C18_14  and  N17_19 
ROOT
HETATM    1  O1  MIQ B 502      -7.824 -14.037   2.551  1.00142.91    -0.171 OA
HETATM    2  C2  MIQ B 502      -7.033 -15.018   1.947  1.00141.17     0.195 A 
HETATM    3  C3  MIQ B 502      -6.983 -15.352   0.422  1.00141.71     0.035 A 
HETATM    4  C4  MIQ B 502      -7.678 -14.801  -0.766  1.00142.86     0.046 A 
HETATM    5  C5  MIQ B 502      -7.416 -15.325  -2.057  1.00139.53     0.031 A 
HETATM    6  C12 MIQ B 502      -6.458 -16.410  -2.215  1.00139.38     0.030 A 
HETATM    7  C13 MIQ B 502      -5.791 -16.938  -1.077  1.00141.18     0.019 A 
HETATM    8  C14 MIQ B 502      -6.069 -16.383   0.275  1.00138.77     0.033 A 
HETATM    9  C15 MIQ B 502      -5.548 -16.689   1.718  1.00142.10     0.195 A 
HETATM   10  N17 MIQ B 502      -6.178 -15.847   2.520  1.00139.42    -0.288 N 
HETATM   11  O16 MIQ B 502      -4.611 -17.658   2.079  1.00148.93    -0.171 OA
ENDROOT
BRANCH  10  12
HETATM   12  C18 MIQ B 502      -5.952 -15.854   3.953  1.00139.82     0.187 C 
HETATM   13  C19 MIQ B 502      -4.473 -15.528   4.195  1.00140.06     0.247 C 
HETATM   14  O25 MIQ B 502      -4.001 -14.578   3.680  1.00143.95    -0.271 OA
HETATM   15  N20 MIQ B 502      -3.639 -16.353   5.045  1.00140.02    -0.296 N 
HETATM   16  H13 MIQ B 502      -2.673 -16.133   5.190  1.00142.77     0.171 HD
HETATM   17  C21 MIQ B 502      -4.235 -17.513   5.655  1.00142.22     0.224 C 
HETATM   18  C22 MIQ B 502      -5.308 -18.227   4.856  1.00139.52     0.106 C 
HETATM   19  O24 MIQ B 502      -3.906 -17.886   6.727  1.00146.13    -0.273 OA
HETATM   20  C23 MIQ B 502      -6.378 -17.194   4.552  1.00139.15     0.045 C 
ENDBRANCH  10  12
BRANCH   5  21
HETATM   21  N6  MIQ B 502      -8.114 -14.785  -3.209  1.00140.95    -0.377 N 
HETATM   22  C7  MIQ B 502      -8.236 -15.612  -4.397  1.00142.12     0.149 C 
HETATM   23  C8  MIQ B 502      -8.375 -14.774  -5.662  1.00144.10     0.187 C 
HETATM   24  O9  MIQ B 502      -9.328 -13.760  -5.539  1.00148.65    -0.388 OA
HETATM   25  C10 MIQ B 502      -9.881 -13.456  -4.293  1.00147.44     0.187 C 
HETATM   26  C11 MIQ B 502      -9.032 -13.671  -3.045  1.00144.08     0.149 C 
ENDBRANCH   5  21
TORSDOF 2
ENDMDL
MODEL 2
REMARK VINA RESULT:      -7.4      2.069      8.299
REMARK  2 active torsions:
REMARK  status: ('A' for Active; 'I' for Inactive)
REMARK    1  A    between atoms: C5_5  and  N6_21 
REMARK    2  A    between atoms: C18_14  and  N17_19 
ROOT
HETATM    1  O1  MIQ B 502      -6.070 -16.343  -0.864  1.00142.91    -0.171 OA
HETATM    2  C2  MIQ B 502      -6.779 -15.687   0.146  1.00141.17     0.195 A 
HETATM    3  C3  MIQ B 502      -6.592 -15.890   1.683  1.00141.71     0.035 A 
HETATM    4  C4  MIQ B 502      -5.698 -16.747   2.497  1.00142.86     0.046 A 
HETATM    5  C5  MIQ B 502      -5.762 -16.709   3.913  1.00139.53     0.031 A 
HETATM    6  C12 MIQ B 502      -6.711 -15.821   4.570  1.00139.38     0.030 A 
HETATM    7  C13 MIQ B 502      -7.567 -14.999   3.790  1.00141.18     0.019 A 
HETATM    8  C14 MIQ B 502      -7.494 -15.041   2.304  1.00138.77     0.033 A 
HETATM    9  C15 MIQ B 502      -8.245 -14.308   1.145  1.00142.10     0.195 A 
HETATM   10  N17 MIQ B 502      -7.729 -14.777   0.021  1.00139.42    -0.288 N 
HETATM   11  O16 MIQ B 502      -9.256 -13.354   1.276  1.00148.93    -0.171 OA
ENDROOT
BRANCH  10  12
HETATM   12  C18 MIQ B 502      -8.201 -14.327  -1.275  1.00139.82     0.187 C 
HETATM   13  C19 MIQ B 502      -8.610 -15.566  -2.080  1.00140.06     0.247 C 
HETATM   14  O25 MIQ B 502      -9.342 -16.353  -1.594  1.00143.95    -0.271 OA
HETATM   15  N20 MIQ B 502      -8.127 -15.796  -3.426  1.00140.02    -0.296 N 
HETATM   16  H13 MIQ B 502      -8.396 -16.613  -3.939  1.00142.77     0.171 HD
HETATM   17  C21 MIQ B 502      -7.226 -14.827  -3.995  1.00142.22     0.224 C 
HETATM   18  C22 MIQ B 502      -6.272 -14.140  -3.037  1.00139.52     0.106 C 
HETATM   19  O24 MIQ B 502      -7.236 -14.577  -5.150  1.00146.13    -0.273 OA
HETATM   20  C23 MIQ B 502      -7.130 -13.486  -1.969  1.00139.15     0.045 C 
ENDBRANCH  10  12
BRANCH   5  21
HETATM   21  N6  MIQ B 502      -4.890 -17.565   4.697  1.00140.95    -0.377 N 
HETATM   22  C7  MIQ B 502      -4.062 -18.536   4.003  1.00142.12     0.149 C 
HETATM   23  C8  MIQ B 502      -3.728 -19.732   4.885  1.00144.10     0.187 C 
HETATM   24  O9  MIQ B 502      -3.278 -19.363   6.154  1.00148.65    -0.388 OA
HETATM   25  C10 MIQ B 502      -3.375 -18.036   6.581  1.00147.44     0.187 C 
HETATM   26  C11 MIQ B 502      -4.518 -17.179   6.048  1.00144.08     0.149 C 
ENDBRANCH   5  21
TORSDOF 2
ENDMDL
MODEL 3
REMARK VINA RESULT:      -7.4      2.477      3.938
REMARK  2 active torsions:
REMARK  status: ('A' for Active; 'I' for Inactive)
REMARK    1  A    between atoms: C5_5  and  N6_21 
REMARK    2  A    between atoms: C18_14  and  N17_19 
ROOT
HETATM    1  O1  MIQ B 502      -4.470 -18.749   3.464  1.00142.91    -0.171 OA
HETATM    2  C2  MIQ B 502      -5.433 -17.833   3.895  1.00141.17     0.195 A 
HETATM    3  C3  MIQ B 502      -6.083 -16.704   3.033  1.00141.71     0.035 A 
HETATM    4  C4  MIQ B 502      -5.917 -16.275   1.624  1.00142.86     0.046 A 
HETATM    5  C5  MIQ B 502      -6.669 -15.186   1.114  1.00139.53     0.031 A 
HETATM    6  C12 MIQ B 502      -7.608 -14.487   1.980  1.00139.38     0.030 A 
HETATM    7  C13 MIQ B 502      -7.768 -14.900   3.330  1.00141.18     0.019 A 
HETATM    8  C14 MIQ B 502      -6.978 -16.045   3.860  1.00138.77     0.033 A 
HETATM    9  C15 MIQ B 502      -6.884 -16.770   5.242  1.00142.10     0.195 A 
HETATM   10  N17 MIQ B 502      -5.990 -17.732   5.090  1.00139.42    -0.288 N 
HETATM   11  O16 MIQ B 502      -7.599 -16.457   6.400  1.00148.93    -0.171 OA
ENDROOT
BRANCH  10  12
HETATM   12  C18 MIQ B 502      -5.629 -18.611   6.186  1.00139.82     0.187 C 
HETATM   13  C19 MIQ B 502      -4.104 -18.565   6.341  1.00140.06     0.247 C 
HETATM   14  O25 MIQ B 502      -3.565 -17.518   6.420  1.00143.95    -0.271 OA
HETATM   15  N20 MIQ B 502      -3.305 -19.771   6.399  1.00140.02    -0.296 N 
HETATM   16  H13 MIQ B 502      -2.309 -19.727   6.494  1.00142.77     0.171 HD
HETATM   17  C21 MIQ B 502      -3.985 -21.036   6.290  1.00142.22     0.224 C 
HETATM   18  C22 MIQ B 502      -5.214 -21.075   5.403  1.00139.52     0.106 C 
HETATM   19  O24 MIQ B 502      -3.605 -21.994   6.870  1.00146.13    -0.273 OA
HETATM   20  C23 MIQ B 502      -6.165 -20.020   5.937  1.00139.15     0.045 C 
ENDBRANCH  10  12
BRANCH   5  21
HETATM   21  N6  MIQ B 502      -6.485 -14.766  -0.263  1.00140.95    -0.377 N 
HETATM   22  C7  MIQ B 502      -7.016 -15.608  -1.322  1.00142.12     0.149 C 
HETATM   23  C8  MIQ B 502      -6.245 -15.437  -2.625  1.00144.10     0.187 C 
HETATM   24  O9  MIQ B 502      -6.047 -14.099  -2.968  1.00148.65    -0.388 OA
HETATM   25  C10 MIQ B 502      -6.342 -13.083  -2.056  1.00147.44     0.187 C 
HETATM   26  C11 MIQ B 502      -6.196 -13.375  -0.566  1.00144.08     0.149 C 
ENDBRANCH   5  21
TORSDOF 2
ENDMDL
MODEL 4
REMARK VINA RESULT:      -7.4      5.242      9.345
REMARK  2 active torsions:
REMARK  status: ('A' for Active; 'I' for Inactive)
REMARK    1  A    between atoms: C5_5  and  N6_21 
REMARK    2  A    between atoms: C18_14  and  N17_19 
ROOT
HETATM    1  O1  MIQ B 502      -5.580 -15.835   6.392  1.00142.91    -0.171 OA
HETATM    2  C2  MIQ B 502      -6.778 -15.325   5.886  1.00141.17     0.195 A 
HETATM    3  C3  MIQ B 502      -7.852 -14.526   6.691  1.00141.71     0.035 A 
HETATM    4  C4  MIQ B 502      -7.950 -14.086   8.103  1.00142.86     0.046 A 
HETATM    5  C5  MIQ B 502      -9.079 -13.354   8.549  1.00139.53     0.031 A 
HETATM    6  C12 MIQ B 502     -10.147 -13.032   7.614  1.00139.38     0.030 A 
HETATM    7  C13 MIQ B 502     -10.053 -13.452   6.260  1.00141.18     0.019 A 
HETATM    8  C14 MIQ B 502      -8.864 -14.218   5.796  1.00138.77     0.033 A 
HETATM    9  C15 MIQ B 502      -8.416 -14.829   4.429  1.00142.10     0.195 A 
HETATM   10  N17 MIQ B 502      -7.244 -15.401   4.652  1.00139.42    -0.288 N 
HETATM   11  O16 MIQ B 502      -9.115 -14.781   3.222  1.00148.93    -0.171 OA
ENDROOT
BRANCH  10  12
HETATM   12  C18 MIQ B 502      -6.525 -16.092   3.597  1.00139.82     0.187 C 
HETATM   13  C19 MIQ B 502      -6.348 -17.552   4.030  1.00140.06     0.247 C 
HETATM   14  O25 MIQ B 502      -7.289 -18.163   4.395  1.00143.95    -0.271 OA
HETATM   15  N20 MIQ B 502      -5.056 -18.207   3.999  1.00140.02    -0.296 N 
HETATM   16  H13 MIQ B 502      -4.952 -19.158   4.291  1.00142.77     0.171 HD
HETATM   17  C21 MIQ B 502      -3.921 -17.437   3.560  1.00142.22     0.224 C 
HETATM   18  C22 MIQ B 502      -3.928 -15.959   3.898  1.00139.52     0.106 C 
HETATM   19  O24 MIQ B 502      -3.031 -17.934   2.961  1.00146.13    -0.273 OA
HETATM   20  C23 MIQ B 502      -5.202 -15.386   3.305  1.00139.15     0.045 C 
ENDBRANCH  10  12
BRANCH   5  21
HETATM   21  N6  MIQ B 502      -9.168 -12.943   9.939  1.00140.95    -0.377 N 
HETATM   22  C7  MIQ B 502     -10.436 -13.101  10.629  1.00142.12     0.149 C 
HETATM   23  C8  MIQ B 502     -10.592 -12.101  11.768  1.00144.10     0.187 C 
HETATM   24  O9  MIQ B 502      -9.467 -12.037  12.593  1.00148.65    -0.388 OA
HETATM   25  C10 MIQ B 502      -8.279 -12.671  12.219  1.00147.44     0.187 C 
HETATM   26  C11 MIQ B 502      -7.961 -12.807  10.734  1.00144.08     0.149 C 
ENDBRANCH   5  21
TORSDOF 2
ENDMDL
MODEL 5
REMARK VINA RESULT:      -7.3      1.282      2.448
REMARK  2 active torsions:
REMARK  status: ('A' for Active; 'I' for Inactive)
REMARK    1  A    between atoms: C5_5  and  N6_21 
REMARK    2  A    between atoms: C18_14  and  N17_19 
ROOT
HETATM    1  O1  MIQ B 502      -5.100 -17.415   2.165  1.00142.91    -0.171 OA
HETATM    2  C2  MIQ B 502      -6.037 -16.384   2.265  1.00141.17     0.195 A 
HETATM    3  C3  MIQ B 502      -6.941 -15.844   1.112  1.00141.71     0.035 A 
HETATM    4  C4  MIQ B 502      -7.093 -16.205  -0.318  1.00142.86     0.046 A 
HETATM    5  C5  MIQ B 502      -8.023 -15.516  -1.136  1.00139.53     0.031 A 
HETATM    6  C12 MIQ B 502      -8.834 -14.449  -0.567  1.00139.38     0.030 A 
HETATM    7  C13 MIQ B 502      -8.689 -14.103   0.803  1.00141.18     0.019 A 
HETATM    8  C14 MIQ B 502      -7.713 -14.832   1.658  1.00138.77     0.033 A 
HETATM    9  C15 MIQ B 502      -7.286 -14.743   3.160  1.00142.10     0.195 A 
HETATM   10  N17 MIQ B 502      -6.356 -15.669   3.330  1.00139.42    -0.288 N 
HETATM   11  O16 MIQ B 502      -7.786 -13.862   4.120  1.00148.93    -0.171 OA
ENDROOT
BRANCH  10  12
HETATM   12  C18 MIQ B 502      -5.711 -15.867   4.615  1.00139.82     0.187 C 
HETATM   13  C19 MIQ B 502      -4.196 -15.887   4.379  1.00140.06     0.247 C 
HETATM   14  O25 MIQ B 502      -3.697 -15.012   3.766  1.00143.95    -0.271 OA
HETATM   15  N20 MIQ B 502      -3.357 -16.950   4.894  1.00140.02    -0.296 N 
HETATM   16  H13 MIQ B 502      -2.370 -16.956   4.728  1.00142.77     0.171 HD
HETATM   17  C21 MIQ B 502      -3.992 -18.013   5.631  1.00142.22     0.224 C 
HETATM   18  C22 MIQ B 502      -5.393 -18.400   5.199  1.00139.52     0.106 C 
HETATM   19  O24 MIQ B 502      -3.447 -18.552   6.531  1.00146.13    -0.273 OA
HETATM   20  C23 MIQ B 502      -6.233 -17.138   5.282  1.00139.15     0.045 C 
ENDBRANCH  10  12
BRANCH   5  21
HETATM   21  N6  MIQ B 502      -8.151 -15.870  -2.538  1.00140.95    -0.377 N 
HETATM   22  C7  MIQ B 502      -7.397 -15.108  -3.518  1.00142.12     0.149 C 
HETATM   23  C8  MIQ B 502      -8.069 -15.119  -4.886  1.00144.10     0.187 C 
HETATM   24  O9  MIQ B 502      -8.453 -16.398  -5.292  1.00148.65    -0.388 OA
HETATM   25  C10 MIQ B 502      -8.412 -17.468  -4.394  1.00147.44     0.187 C 
HETATM   26  C11 MIQ B 502      -8.638 -17.186  -2.913  1.00144.08     0.149 C 
ENDBRANCH   5  21
TORSDOF 2
ENDMDL
MODEL 6
REMARK VINA RESULT:      -7.1      1.515      1.775
REMARK  2 active torsions:
REMARK  status: ('A' for Active; 'I' for Inactive)
REMARK    1  A    between atoms: C5_5  and  N6_21 
REMARK    2  A    between atoms: C18_14  and  N17_19 
ROOT
HETATM    1  O1  MIQ B 502      -8.336 -15.648   4.172  1.00142.91    -0.171 OA
HETATM    2  C2  MIQ B 502      -7.392 -16.103   3.248  1.00141.17     0.195 A 
HETATM    3  C3  MIQ B 502      -7.434 -15.882   1.702  1.00141.71     0.035 A 
HETATM    4  C4  MIQ B 502      -8.382 -15.189   0.797  1.00142.86     0.046 A 
HETATM    5  C5  MIQ B 502      -8.144 -15.156  -0.600  1.00139.53     0.031 A 
HETATM    6  C12 MIQ B 502      -6.961 -15.805  -1.147  1.00139.38     0.030 A 
HETATM    7  C13 MIQ B 502      -6.051 -16.468  -0.280  1.00141.18     0.019 A 
HETATM    8  C14 MIQ B 502      -6.305 -16.498   1.186  1.00138.77     0.033 A 
HETATM    9  C15 MIQ B 502      -5.558 -17.104   2.419  1.00142.10     0.195 A 
HETATM   10  N17 MIQ B 502      -6.289 -16.794   3.477  1.00139.42    -0.288 N 
HETATM   11  O16 MIQ B 502      -4.364 -17.827   2.400  1.00148.93    -0.171 OA
ENDROOT
BRANCH  10  12
HETATM   12  C18 MIQ B 502      -5.903 -17.212   4.812  1.00139.82     0.187 C 
HETATM   13  C19 MIQ B 502      -4.459 -16.754   5.048  1.00140.06     0.247 C 
HETATM   14  O25 MIQ B 502      -4.170 -15.629   4.838  1.00143.95    -0.271 OA
HETATM   15  N20 MIQ B 502      -3.438 -17.663   5.527  1.00140.02    -0.296 N 
HETATM   16  H13 MIQ B 502      -2.497 -17.352   5.670  1.00142.77     0.171 HD
HETATM   17  C21 MIQ B 502      -3.812 -19.033   5.765  1.00142.22     0.224 C 
HETATM   18  C22 MIQ B 502      -4.871 -19.619   4.851  1.00139.52     0.106 C 
HETATM   19  O24 MIQ B 502      -3.321 -19.665   6.634  1.00146.13    -0.273 OA
HETATM   20  C23 MIQ B 502      -6.089 -18.720   4.971  1.00139.15     0.045 C 
ENDBRANCH  10  12
BRANCH   5  21
HETATM   21  N6  MIQ B 502      -9.088 -14.487  -1.476  1.00140.95    -0.377 N 
HETATM   22  C7  MIQ B 502      -8.884 -14.573  -2.912  1.00142.12     0.149 C 
HETATM   23  C8  MIQ B 502      -9.485 -13.380  -3.644  1.00144.10     0.187 C 
HETATM   24  O9  MIQ B 502     -10.792 -13.098  -3.243  1.00148.65    -0.388 OA
HETATM   25  C10 MIQ B 502     -11.340 -13.729  -2.124  1.00147.44     0.187 C 
HETATM   26  C11 MIQ B 502     -10.409 -14.136  -0.986  1.00144.08     0.149 C 
ENDBRANCH   5  21
TORSDOF 2
ENDMDL
MODEL 7
REMARK VINA RESULT:      -7.0      1.624      1.849
REMARK  2 active torsions:
REMARK  status: ('A' for Active; 'I' for Inactive)
REMARK    1  A    between atoms: C5_5  and  N6_21 
REMARK    2  A    between atoms: C18_14  and  N17_19 
ROOT
HETATM    1  O1  MIQ B 502      -8.868 -16.894   1.892  1.00142.91    -0.171 OA
HETATM    2  C2  MIQ B 502      -7.811 -16.029   1.599  1.00141.17     0.195 A 
HETATM    3  C3  MIQ B 502      -7.657 -15.167   0.306  1.00141.71     0.035 A 
HETATM    4  C4  MIQ B 502      -8.488 -14.993  -0.909  1.00142.86     0.046 A 
HETATM    5  C5  MIQ B 502      -8.074 -14.114  -1.941  1.00139.53     0.031 A 
HETATM    6  C12 MIQ B 502      -6.826 -13.377  -1.805  1.00139.38     0.030 A 
HETATM    7  C13 MIQ B 502      -6.030 -13.542  -0.640  1.00141.18     0.019 A 
HETATM    8  C14 MIQ B 502      -6.470 -14.465   0.441  1.00138.77     0.033 A 
HETATM    9  C15 MIQ B 502      -5.885 -14.893   1.827  1.00142.10     0.195 A 
HETATM   10  N17 MIQ B 502      -6.748 -15.757   2.336  1.00139.42    -0.288 N 
HETATM   11  O16 MIQ B 502      -4.692 -14.452   2.403  1.00148.93    -0.171 OA
ENDROOT
BRANCH  10  12
HETATM   12  C18 MIQ B 502      -6.520 -16.384   3.624  1.00139.82     0.187 C 
HETATM   13  C19 MIQ B 502      -6.196 -15.276   4.633  1.00140.06     0.247 C 
HETATM   14  O25 MIQ B 502      -6.916 -14.345   4.718  1.00143.95    -0.271 OA
HETATM   15  N20 MIQ B 502      -5.031 -15.342   5.492  1.00140.02    -0.296 N 
HETATM   16  H13 MIQ B 502      -4.827 -14.609   6.142  1.00142.77     0.171 HD
HETATM   17  C21 MIQ B 502      -4.162 -16.483   5.363  1.00142.22     0.224 C 
HETATM   18  C22 MIQ B 502      -4.020 -17.078   3.976  1.00139.52     0.106 C 
HETATM   19  O24 MIQ B 502      -3.593 -16.935   6.296  1.00146.13    -0.273 OA
HETATM   20  C23 MIQ B 502      -5.420 -17.439   3.515  1.00139.15     0.045 C 
ENDBRANCH  10  12
BRANCH   5  21
HETATM   21  N6  MIQ B 502      -8.891 -13.965  -3.132  1.00140.95    -0.377 N 
HETATM   22  C7  MIQ B 502      -8.581 -14.781  -4.293  1.00142.12     0.149 C 
HETATM   23  C8  MIQ B 502      -9.026 -14.118  -5.590  1.00144.10     0.187 C 
HETATM   24  O9  MIQ B 502     -10.335 -13.635  -5.532  1.00148.65    -0.388 OA
HETATM   25  C10 MIQ B 502     -11.019 -13.588  -4.314  1.00147.44     0.187 C 
HETATM   26  C11 MIQ B 502     -10.216 -13.378  -3.034  1.00144.08     0.149 C 
ENDBRANCH   5  21
TORSDOF 2
ENDMDL
MODEL 8
REMARK VINA RESULT:      -7.0      2.286      8.074
REMARK  2 active torsions:
REMARK  status: ('A' for Active; 'I' for Inactive)
REMARK    1  A    between atoms: C5_5  and  N6_21 
REMARK    2  A    between atoms: C18_14  and  N17_19 
ROOT
HETATM    1  O1  MIQ B 502      -9.132 -14.240   0.173  1.00142.91    -0.171 OA
HETATM    2  C2  MIQ B 502      -8.016 -15.079   0.170  1.00141.17     0.195 A 
HETATM    3  C3  MIQ B 502      -7.201 -15.533   1.423  1.00141.71     0.035 A 
HETATM    4  C4  MIQ B 502      -7.326 -15.259   2.874  1.00142.86     0.046 A 
HETATM    5  C5  MIQ B 502      -6.410 -15.832   3.793  1.00139.53     0.031 A 
HETATM    6  C12 MIQ B 502      -5.342 -16.693   3.307  1.00139.38     0.030 A 
HETATM    7  C13 MIQ B 502      -5.223 -16.957   1.915  1.00141.18     0.019 A 
HETATM    8  C14 MIQ B 502      -6.188 -16.355   0.956  1.00138.77     0.033 A 
HETATM    9  C15 MIQ B 502      -6.377 -16.412  -0.595  1.00142.10     0.195 A 
HETATM   10  N17 MIQ B 502      -7.429 -15.657  -0.864  1.00139.42    -0.288 N 
HETATM   11  O16 MIQ B 502      -5.589 -17.117  -1.508  1.00148.93    -0.171 OA
ENDROOT
BRANCH  10  12
HETATM   12  C18 MIQ B 502      -7.894 -15.462  -2.224  1.00139.82     0.187 C 
HETATM   13  C19 MIQ B 502      -8.019 -13.953  -2.464  1.00140.06     0.247 C 
HETATM   14  O25 MIQ B 502      -7.107 -13.251  -2.206  1.00143.95    -0.271 OA
HETATM   15  N20 MIQ B 502      -9.226 -13.363  -3.005  1.00140.02    -0.296 N 
HETATM   16  H13 MIQ B 502      -9.298 -12.375  -3.151  1.00142.77     0.171 HD
HETATM   17  C21 MIQ B 502     -10.331 -14.238  -3.302  1.00142.22     0.224 C 
HETATM   18  C22 MIQ B 502     -10.507 -15.443  -2.398  1.00139.52     0.106 C 
HETATM   19  O24 MIQ B 502     -11.058 -14.029  -4.210  1.00146.13    -0.273 OA
HETATM   20  C23 MIQ B 502      -9.203 -16.218  -2.452  1.00139.15     0.045 C 
ENDBRANCH  10  12
BRANCH   5  21
HETATM   21  N6  MIQ B 502      -6.535 -15.543   5.210  1.00140.95    -0.377 N 
HETATM   22  C7  MIQ B 502      -5.329 -15.497   6.018  1.00142.12     0.149 C 
HETATM   23  C8  MIQ B 502      -5.610 -15.831   7.478  1.00144.10     0.187 C 
HETATM   24  O9  MIQ B 502      -6.702 -15.132   7.995  1.00148.65    -0.388 OA
HETATM   25  C10 MIQ B 502      -7.542 -14.405   7.148  1.00147.44     0.187 C 
HETATM   26  C11 MIQ B 502      -7.730 -14.890   5.714  1.00144.08     0.149 C 
ENDBRANCH   5  21
TORSDOF 2
ENDMDL
MODEL 9
REMARK VINA RESULT:      -7.0      2.970      3.761
REMARK  2 active torsions:
REMARK  status: ('A' for Active; 'I' for Inactive)
REMARK    1  A    between atoms: C5_5  and  N6_21 
REMARK    2  A    between atoms: C18_14  and  N17_19 
ROOT
HETATM    1  O1  MIQ B 502      -6.397 -18.332   3.892  1.00142.91    -0.171 OA
HETATM    2  C2  MIQ B 502      -6.136 -17.102   3.286  1.00141.17     0.195 A 
HETATM    3  C3  MIQ B 502      -7.080 -16.340   2.301  1.00141.71     0.035 A 
HETATM    4  C4  MIQ B 502      -8.422 -16.633   1.744  1.00142.86     0.046 A 
HETATM    5  C5  MIQ B 502      -9.041 -15.724   0.849  1.00139.53     0.031 A 
HETATM    6  C12 MIQ B 502      -8.354 -14.496   0.477  1.00139.38     0.030 A 
HETATM    7  C13 MIQ B 502      -7.068 -14.213   1.012  1.00141.18     0.019 A 
HETATM    8  C14 MIQ B 502      -6.424 -15.171   1.953  1.00138.77     0.033 A 
HETATM    9  C15 MIQ B 502      -5.065 -15.206   2.726  1.00142.10     0.195 A 
HETATM   10  N17 MIQ B 502      -5.067 -16.335   3.415  1.00139.42    -0.288 N 
HETATM   11  O16 MIQ B 502      -4.058 -14.240   2.691  1.00148.93    -0.171 OA
ENDROOT
BRANCH  10  12
HETATM   12  C18 MIQ B 502      -3.942 -16.715   4.249  1.00139.82     0.187 C 
HETATM   13  C19 MIQ B 502      -3.489 -18.114   3.815  1.00140.06     0.247 C 
HETATM   14  O25 MIQ B 502      -3.281 -18.323   2.673  1.00143.95    -0.271 OA
HETATM   15  N20 MIQ B 502      -3.303 -19.188   4.770  1.00140.02    -0.296 N 
HETATM   16  H13 MIQ B 502      -3.013 -20.098   4.473  1.00142.77     0.171 HD
HETATM   17  C21 MIQ B 502      -3.574 -18.911   6.157  1.00142.22     0.224 C 
HETATM   18  C22 MIQ B 502      -4.687 -17.923   6.450  1.00139.52     0.106 C 
HETATM   19  O24 MIQ B 502      -2.954 -19.425   7.022  1.00146.13    -0.273 OA
HETATM   20  C23 MIQ B 502      -4.325 -16.639   5.726  1.00139.15     0.045 C 
ENDBRANCH  10  12
BRANCH   5  21
HETATM   21  N6  MIQ B 502     -10.348 -16.031   0.299  1.00140.95    -0.377 N 
HETATM   22  C7  MIQ B 502     -11.373 -16.547   1.191  1.00142.12     0.149 C 
HETATM   23  C8  MIQ B 502     -12.396 -17.398   0.449  1.00144.10     0.187 C 
HETATM   24  O9  MIQ B 502     -12.869 -16.789  -0.715  1.00148.65    -0.388 OA
HETATM   25  C10 MIQ B 502     -12.255 -15.635  -1.209  1.00147.44     0.187 C 
HETATM   26  C11 MIQ B 502     -10.763 -15.439  -0.961  1.00144.08     0.149 C 
ENDBRANCH   5  21
TORSDOF 2
ENDMDL
