MODEL 1
REMARK VINA RESULT:      -6.1      0.000      0.000
REMARK  2 active torsions:
REMARK  status: ('A' for Active; 'I' for Inactive)
REMARK    1  A    between atoms: C5_5  and  N6_21 
REMARK    2  A    between atoms: C18_14  and  N17_19 
ROOT
HETATM    1  O1  MIQ B 502       9.345  21.444  20.943  1.00142.91    -0.171 OA
HETATM    2  C2  MIQ B 502       9.610  21.291  19.580  1.00141.17     0.195 A 
HETATM    3  C3  MIQ B 502       9.831  22.442  18.548  1.00141.71     0.035 A 
HETATM    4  C4  MIQ B 502       9.838  23.921  18.657  1.00142.86     0.046 A 
HETATM    5  C5  MIQ B 502      10.077  24.723  17.513  1.00139.53     0.031 A 
HETATM    6  C12 MIQ B 502      10.317  24.089  16.224  1.00139.38     0.030 A 
HETATM    7  C13 MIQ B 502      10.311  22.672  16.119  1.00141.18     0.019 A 
HETATM    8  C14 MIQ B 502      10.063  21.835  17.325  1.00138.77     0.033 A 
HETATM    9  C15 MIQ B 502       9.985  20.298  17.599  1.00142.10     0.195 A 
HETATM   10  N17 MIQ B 502       9.731  20.169  18.890  1.00139.42    -0.288 N 
HETATM   11  O16 MIQ B 502      10.148  19.273  16.665  1.00148.93    -0.171 OA
ENDROOT
BRANCH  10  12
HETATM   12  C18 MIQ B 502       9.574  18.864  19.505  1.00139.82     0.187 C 
HETATM   13  C19 MIQ B 502       8.230  18.853  20.244  1.00140.06     0.247 C 
HETATM   14  O25 MIQ B 502       7.256  19.190  19.670  1.00143.95    -0.271 OA
HETATM   15  N20 MIQ B 502       8.121  18.435  21.626  1.00140.02    -0.296 N 
HETATM   16  H13 MIQ B 502       7.239  18.439  22.099  1.00142.77     0.171 HD
HETATM   17  C21 MIQ B 502       9.327  18.039  22.308  1.00142.22     0.224 C 
HETATM   18  C22 MIQ B 502      10.601  18.759  21.912  1.00139.52     0.106 C 
HETATM   19  O24 MIQ B 502       9.321  17.190  23.130  1.00146.13    -0.273 OA
HETATM   20  C23 MIQ B 502      10.763  18.559  20.416  1.00139.15     0.045 C 
ENDBRANCH  10  12
BRANCH   5  21
HETATM   21  N6  MIQ B 502      10.066  26.169  17.631  1.00140.95    -0.377 N 
HETATM   22  C7  MIQ B 502      11.214  26.826  18.231  1.00142.12     0.149 C 
HETATM   23  C8  MIQ B 502      10.840  28.158  18.868  1.00144.10     0.187 C 
HETATM   24  O9  MIQ B 502      10.063  28.961  18.030  1.00148.65    -0.388 OA
HETATM   25  C10 MIQ B 502       9.528  28.442  16.849  1.00147.44     0.187 C 
HETATM   26  C11 MIQ B 502       9.176  26.959  16.797  1.00144.08     0.149 C 
ENDBRANCH   5  21
TORSDOF 2
ENDMDL
MODEL 2
REMARK VINA RESULT:      -6.1      1.608      2.678
REMARK  2 active torsions:
REMARK  status: ('A' for Active; 'I' for Inactive)
REMARK    1  A    between atoms: C5_5  and  N6_21 
REMARK    2  A    between atoms: C18_14  and  N17_19 
ROOT
HETATM    1  O1  MIQ B 502       9.896  19.006  17.341  1.00142.91    -0.171 OA
HETATM    2  C2  MIQ B 502       9.883  19.868  18.440  1.00141.17     0.195 A 
HETATM    3  C3  MIQ B 502       9.870  21.429  18.387  1.00141.71     0.035 A 
HETATM    4  C4  MIQ B 502       9.865  22.411  17.277  1.00142.86     0.046 A 
HETATM    5  C5  MIQ B 502       9.851  23.802  17.550  1.00139.53     0.031 A 
HETATM    6  C12 MIQ B 502       9.841  24.267  18.930  1.00139.38     0.030 A 
HETATM    7  C13 MIQ B 502       9.845  23.326  19.994  1.00141.18     0.019 A 
HETATM    8  C14 MIQ B 502       9.857  21.867  19.701  1.00138.77     0.033 A 
HETATM    9  C15 MIQ B 502       9.861  20.570  20.575  1.00142.10     0.195 A 
HETATM   10  N17 MIQ B 502       9.873  19.557  19.725  1.00139.42    -0.288 N 
HETATM   11  O16 MIQ B 502       9.856  20.502  21.969  1.00148.93    -0.171 OA
ENDROOT
BRANCH  10  12
HETATM   12  C18 MIQ B 502       9.896  18.181  20.186  1.00139.82     0.187 C 
HETATM   13  C19 MIQ B 502       8.678  17.972  21.094  1.00140.06     0.247 C 
HETATM   14  O25 MIQ B 502       7.609  18.289  20.707  1.00143.95    -0.271 OA
HETATM   15  N20 MIQ B 502       8.801  17.390  22.415  1.00140.02    -0.296 N 
HETATM   16  H13 MIQ B 502       7.998  17.265  23.000  1.00142.77     0.171 HD
HETATM   17  C21 MIQ B 502      10.116  17.021  22.869  1.00142.22     0.224 C 
HETATM   18  C22 MIQ B 502      11.268  17.887  22.396  1.00139.52     0.106 C 
HETATM   19  O24 MIQ B 502      10.288  16.086  23.571  1.00146.13    -0.273 OA
HETATM   20  C23 MIQ B 502      11.222  17.875  20.879  1.00139.15     0.045 C 
ENDBRANCH  10  12
BRANCH   5  21
HETATM   21  N6  MIQ B 502       9.862  24.753  16.453  1.00140.95    -0.377 N 
HETATM   22  C7  MIQ B 502       9.857  26.172  16.764  1.00142.12     0.149 C 
HETATM   23  C8  MIQ B 502       9.236  26.997  15.644  1.00144.10     0.187 C 
HETATM   24  O9  MIQ B 502       9.735  26.664  14.383  1.00148.65    -0.388 OA
HETATM   25  C10 MIQ B 502      10.535  25.531  14.215  1.00147.44     0.187 C 
HETATM   26  C11 MIQ B 502      10.309  24.336  15.136  1.00144.08     0.149 C 
ENDBRANCH   5  21
TORSDOF 2
ENDMDL
MODEL 3
REMARK VINA RESULT:      -6.1      4.326      8.814
REMARK  2 active torsions:
REMARK  status: ('A' for Active; 'I' for Inactive)
REMARK    1  A    between atoms: C5_5  and  N6_21 
REMARK    2  A    between atoms: C18_14  and  N17_19 
ROOT
HETATM    1  O1  MIQ B 502      10.696  19.252  18.222  1.00142.91    -0.171 OA
HETATM    2  C2  MIQ B 502      10.790  18.215  19.152  1.00141.17     0.195 A 
HETATM    3  C3  MIQ B 502      11.388  16.795  18.893  1.00141.71     0.035 A 
HETATM    4  C4  MIQ B 502      11.992  16.144  17.706  1.00142.86     0.046 A 
HETATM    5  C5  MIQ B 502      12.458  14.808  17.781  1.00139.53     0.031 A 
HETATM    6  C12 MIQ B 502      12.343  14.071  19.031  1.00139.38     0.030 A 
HETATM    7  C13 MIQ B 502      11.765  14.695  20.170  1.00141.18     0.019 A 
HETATM    8  C14 MIQ B 502      11.280  16.099  20.086  1.00138.77     0.033 A 
HETATM    9  C15 MIQ B 502      10.612  17.093  21.092  1.00142.10     0.195 A 
HETATM   10  N17 MIQ B 502      10.410  18.213  20.418  1.00139.42    -0.288 N 
HETATM   11  O16 MIQ B 502      10.293  16.842  22.428  1.00148.93    -0.171 OA
ENDROOT
BRANCH  10  12
HETATM   12  C18 MIQ B 502       9.784  19.367  21.037  1.00139.82     0.187 C 
HETATM   13  C19 MIQ B 502       8.619  19.804  20.141  1.00140.06     0.247 C 
HETATM   14  O25 MIQ B 502       7.824  19.003  19.798  1.00143.95    -0.271 OA
HETATM   15  N20 MIQ B 502       8.463  21.177  19.707  1.00140.02    -0.296 N 
HETATM   16  H13 MIQ B 502       7.702  21.449  19.117  1.00142.77     0.171 HD
HETATM   17  C21 MIQ B 502       9.452  22.135  20.130  1.00142.22     0.224 C 
HETATM   18  C22 MIQ B 502      10.873  21.625  20.282  1.00139.52     0.106 C 
HETATM   19  O24 MIQ B 502       9.168  23.260  20.353  1.00146.13    -0.273 OA
HETATM   20  C23 MIQ B 502      10.814  20.472  21.266  1.00139.15     0.045 C 
ENDBRANCH  10  12
BRANCH   5  21
HETATM   21  N6  MIQ B 502      13.033  14.178  16.606  1.00140.95    -0.377 N 
HETATM   22  C7  MIQ B 502      13.198  14.974  15.402  1.00142.12     0.149 C 
HETATM   23  C8  MIQ B 502      13.178  14.114  14.145  1.00144.10     0.187 C 
HETATM   24  O9  MIQ B 502      14.008  12.995  14.239  1.00148.65    -0.388 OA
HETATM   25  C10 MIQ B 502      14.579  12.638  15.463  1.00147.44     0.187 C 
HETATM   26  C11 MIQ B 502      13.820  12.965  16.745  1.00144.08     0.149 C 
ENDBRANCH   5  21
TORSDOF 2
ENDMDL
MODEL 4
REMARK VINA RESULT:      -5.9      2.698      3.557
REMARK  2 active torsions:
REMARK  status: ('A' for Active; 'I' for Inactive)
REMARK    1  A    between atoms: C5_5  and  N6_21 
REMARK    2  A    between atoms: C18_14  and  N17_19 
ROOT
HETATM    1  O1  MIQ B 502      11.961  19.086  21.998  1.00142.91    -0.171 OA
HETATM    2  C2  MIQ B 502      10.912  19.607  21.238  1.00141.17     0.195 A 
HETATM    3  C3  MIQ B 502      10.731  21.101  20.817  1.00141.71     0.035 A 
HETATM    4  C4  MIQ B 502      11.526  22.329  21.054  1.00142.86     0.046 A 
HETATM    5  C5  MIQ B 502      11.096  23.574  20.528  1.00139.53     0.031 A 
HETATM    6  C12 MIQ B 502       9.866  23.644  19.752  1.00139.38     0.030 A 
HETATM    7  C13 MIQ B 502       9.104  22.466  19.524  1.00141.18     0.019 A 
HETATM    8  C14 MIQ B 502       9.562  21.162  20.076  1.00138.77     0.033 A 
HETATM    9  C15 MIQ B 502       9.015  19.698  20.036  1.00142.10     0.195 A 
HETATM   10  N17 MIQ B 502       9.877  18.966  20.722  1.00139.42    -0.288 N 
HETATM   11  O16 MIQ B 502       7.849  19.259  19.406  1.00148.93    -0.171 OA
ENDROOT
BRANCH  10  12
HETATM   12  C18 MIQ B 502       9.680  17.541  20.910  1.00139.82     0.187 C 
HETATM   13  C19 MIQ B 502       9.707  17.261  22.418  1.00140.06     0.247 C 
HETATM   14  O25 MIQ B 502       9.021  17.899  23.135  1.00143.95    -0.271 OA
HETATM   15  N20 MIQ B 502      10.548  16.228  22.988  1.00140.02    -0.296 N 
HETATM   16  H13 MIQ B 502      10.561  16.059  23.974  1.00142.77     0.171 HD
HETATM   17  C21 MIQ B 502      11.384  15.470  22.094  1.00142.22     0.224 C 
HETATM   18  C22 MIQ B 502      11.932  16.204  20.885  1.00139.52     0.106 C 
HETATM   19  O24 MIQ B 502      11.626  14.330  22.292  1.00146.13    -0.273 OA
HETATM   20  C23 MIQ B 502      10.732  16.751  20.133  1.00139.15     0.045 C 
ENDBRANCH  10  12
BRANCH   5  21
HETATM   21  N6  MIQ B 502      11.876  24.771  20.780  1.00140.95    -0.377 N 
HETATM   22  C7  MIQ B 502      13.009  24.685  21.685  1.00142.12     0.149 C 
HETATM   23  C8  MIQ B 502      13.313  26.023  22.346  1.00144.10     0.187 C 
HETATM   24  O9  MIQ B 502      13.356  27.081  21.435  1.00148.65    -0.388 OA
HETATM   25  C10 MIQ B 502      12.925  26.900  20.119  1.00147.44     0.187 C 
HETATM   26  C11 MIQ B 502      11.822  25.882  19.846  1.00144.08     0.149 C 
ENDBRANCH   5  21
TORSDOF 2
ENDMDL
MODEL 5
REMARK VINA RESULT:      -5.8     16.654     18.631
REMARK  2 active torsions:
REMARK  status: ('A' for Active; 'I' for Inactive)
REMARK    1  A    between atoms: C5_5  and  N6_21 
REMARK    2  A    between atoms: C18_14  and  N17_19 
ROOT
HETATM    1  O1  MIQ B 502      -4.064  16.008  32.286  1.00142.91    -0.171 OA
HETATM    2  C2  MIQ B 502      -3.779  16.667  31.088  1.00141.17     0.195 A 
HETATM    3  C3  MIQ B 502      -2.899  17.947  30.927  1.00141.71     0.035 A 
HETATM    4  C4  MIQ B 502      -2.153  18.798  31.884  1.00142.86     0.046 A 
HETATM    5  C5  MIQ B 502      -1.425  19.925  31.425  1.00139.53     0.031 A 
HETATM    6  C12 MIQ B 502      -1.413  20.248  30.005  1.00139.38     0.030 A 
HETATM    7  C13 MIQ B 502      -2.128  19.432  29.087  1.00141.18     0.019 A 
HETATM    8  C14 MIQ B 502      -2.887  18.248  29.575  1.00138.77     0.033 A 
HETATM    9  C15 MIQ B 502      -3.763  17.148  28.892  1.00142.10     0.195 A 
HETATM   10  N17 MIQ B 502      -4.176  16.353  29.867  1.00139.42    -0.288 N 
HETATM   11  O16 MIQ B 502      -4.051  17.033  27.531  1.00148.93    -0.171 OA
ENDROOT
BRANCH  10  12
HETATM   12  C18 MIQ B 502      -5.036  15.215  29.603  1.00139.82     0.187 C 
HETATM   13  C19 MIQ B 502      -6.204  15.271  30.595  1.00140.06     0.247 C 
HETATM   14  O25 MIQ B 502      -6.819  16.271  30.704  1.00143.95    -0.271 OA
HETATM   15  N20 MIQ B 502      -6.578  14.126  31.399  1.00140.02    -0.296 N 
HETATM   16  H13 MIQ B 502      -7.338  14.177  32.048  1.00142.77     0.171 HD
HETATM   17  C21 MIQ B 502      -5.805  12.919  31.256  1.00142.22     0.224 C 
HETATM   18  C22 MIQ B 502      -4.328  13.088  30.956  1.00139.52     0.106 C 
HETATM   19  O24 MIQ B 502      -6.301  11.851  31.361  1.00146.13    -0.273 OA
HETATM   20  C23 MIQ B 502      -4.237  13.915  29.686  1.00139.15     0.045 C 
ENDBRANCH  10  12
BRANCH   5  21
HETATM   21  N6  MIQ B 502      -0.711  20.758  32.375  1.00140.95    -0.377 N 
HETATM   22  C7  MIQ B 502      -1.293  20.969  33.689  1.00142.12     0.149 C 
HETATM   23  C8  MIQ B 502      -0.841  22.286  34.307  1.00144.10     0.187 C 
HETATM   24  O9  MIQ B 502       0.540  22.477  34.229  1.00148.65    -0.388 OA
HETATM   25  C10 MIQ B 502       1.329  21.628  33.448  1.00147.44     0.187 C 
HETATM   26  C11 MIQ B 502       0.711  20.998  32.204  1.00144.08     0.149 C 
ENDBRANCH   5  21
TORSDOF 2
ENDMDL
MODEL 6
REMARK VINA RESULT:      -5.7     14.473     16.731
REMARK  2 active torsions:
REMARK  status: ('A' for Active; 'I' for Inactive)
REMARK    1  A    between atoms: C5_5  and  N6_21 
REMARK    2  A    between atoms: C18_14  and  N17_19 
ROOT
HETATM    1  O1  MIQ B 502       1.999  21.276  35.001  1.00142.91    -0.171 OA
HETATM    2  C2  MIQ B 502       2.359  21.680  33.714  1.00141.17     0.195 A 
HETATM    3  C3  MIQ B 502       1.567  21.389  32.400  1.00141.71     0.035 A 
HETATM    4  C4  MIQ B 502       0.305  20.668  32.110  1.00142.86     0.046 A 
HETATM    5  C5  MIQ B 502      -0.175  20.569  30.779  1.00139.53     0.031 A 
HETATM    6  C12 MIQ B 502       0.577  21.180  29.693  1.00139.38     0.030 A 
HETATM    7  C13 MIQ B 502       1.787  21.872  29.971  1.00141.18     0.019 A 
HETATM    8  C14 MIQ B 502       2.284  21.975  31.370  1.00138.77     0.033 A 
HETATM    9  C15 MIQ B 502       3.529  22.635  32.048  1.00142.10     0.195 A 
HETATM   10  N17 MIQ B 502       3.416  22.382  33.342  1.00139.42    -0.288 N 
HETATM   11  O16 MIQ B 502       4.549  23.344  31.412  1.00148.93    -0.171 OA
ENDROOT
BRANCH  10  12
HETATM   12  C18 MIQ B 502       4.415  22.835  34.292  1.00139.82     0.187 C 
HETATM   13  C19 MIQ B 502       4.573  24.351  34.117  1.00140.06     0.247 C 
HETATM   14  O25 MIQ B 502       3.612  25.035  34.129  1.00143.95    -0.271 OA
HETATM   15  N20 MIQ B 502       5.872  24.969  33.944  1.00140.02    -0.296 N 
HETATM   16  H13 MIQ B 502       5.960  25.958  33.825  1.00142.77     0.171 HD
HETATM   17  C21 MIQ B 502       7.029  24.112  33.923  1.00142.22     0.224 C 
HETATM   18  C22 MIQ B 502       6.844  22.733  33.319  1.00139.52     0.106 C 
HETATM   19  O24 MIQ B 502       8.068  24.466  34.360  1.00146.13    -0.273 OA
HETATM   20  C23 MIQ B 502       5.722  22.068  34.095  1.00139.15     0.045 C 
ENDBRANCH  10  12
BRANCH   5  21
HETATM   21  N6  MIQ B 502      -1.405  19.847  30.508  1.00140.95    -0.377 N 
HETATM   22  C7  MIQ B 502      -2.542  20.057  31.388  1.00142.12     0.149 C 
HETATM   23  C8  MIQ B 502      -3.471  18.850  31.414  1.00144.10     0.187 C 
HETATM   24  O9  MIQ B 502      -3.783  18.377  30.138  1.00148.65    -0.388 OA
HETATM   25  C10 MIQ B 502      -3.097  18.855  29.018  1.00147.44     0.187 C 
HETATM   26  C11 MIQ B 502      -1.647  19.298  29.185  1.00144.08     0.149 C 
ENDBRANCH   5  21
TORSDOF 2
ENDMDL
MODEL 7
REMARK VINA RESULT:      -5.7      4.946      8.916
REMARK  2 active torsions:
REMARK  status: ('A' for Active; 'I' for Inactive)
REMARK    1  A    between atoms: C5_5  and  N6_21 
REMARK    2  A    between atoms: C18_14  and  N17_19 
ROOT
HETATM    1  O1  MIQ B 502      11.848  16.773  20.269  1.00142.91    -0.171 OA
HETATM    2  C2  MIQ B 502      11.522  17.347  19.038  1.00141.17     0.195 A 
HETATM    3  C3  MIQ B 502      11.794  16.727  17.631  1.00141.71     0.035 A 
HETATM    4  C4  MIQ B 502      12.416  15.461  17.178  1.00142.86     0.046 A 
HETATM    5  C5  MIQ B 502      12.522  15.169  15.795  1.00139.53     0.031 A 
HETATM    6  C12 MIQ B 502      12.016  16.119  14.815  1.00139.38     0.030 A 
HETATM    7  C13 MIQ B 502      11.418  17.332  15.248  1.00141.18     0.019 A 
HETATM    8  C14 MIQ B 502      11.307  17.633  16.702  1.00138.77     0.033 A 
HETATM    9  C15 MIQ B 502      10.729  18.821  17.538  1.00142.10     0.195 A 
HETATM   10  N17 MIQ B 502      10.925  18.504  18.807  1.00139.42    -0.288 N 
HETATM   11  O16 MIQ B 502      10.132  19.980  17.041  1.00148.93    -0.171 OA
ENDROOT
BRANCH  10  12
HETATM   12  C18 MIQ B 502      10.523  19.393  19.881  1.00139.82     0.187 C 
HETATM   13  C19 MIQ B 502       9.033  19.706  19.696  1.00140.06     0.247 C 
HETATM   14  O25 MIQ B 502       8.271  18.817  19.553  1.00143.95    -0.271 OA
HETATM   15  N20 MIQ B 502       8.532  21.065  19.699  1.00140.02    -0.296 N 
HETATM   16  H13 MIQ B 502       7.558  21.256  19.570  1.00142.77     0.171 HD
HETATM   17  C21 MIQ B 502       9.483  22.134  19.865  1.00142.22     0.224 C 
HETATM   18  C22 MIQ B 502      10.862  21.918  19.273  1.00139.52     0.106 C 
HETATM   19  O24 MIQ B 502       9.201  23.127  20.440  1.00146.13    -0.273 OA
HETATM   20  C23 MIQ B 502      11.402  20.642  19.894  1.00139.15     0.045 C 
ENDBRANCH  10  12
BRANCH   5  21
HETATM   21  N6  MIQ B 502      13.148  13.931  15.365  1.00140.95    -0.377 N 
HETATM   22  C7  MIQ B 502      13.324  13.700  13.941  1.00142.12     0.149 C 
HETATM   23  C8  MIQ B 502      13.364  12.214  13.608  1.00144.10     0.187 C 
HETATM   24  O9  MIQ B 502      14.222  11.493  14.440  1.00148.65    -0.388 OA
HETATM   25  C10 MIQ B 502      14.768  12.088  15.580  1.00147.44     0.187 C 
HETATM   26  C11 MIQ B 502      13.964  13.170  16.295  1.00144.08     0.149 C 
ENDBRANCH   5  21
TORSDOF 2
ENDMDL
MODEL 8
REMARK VINA RESULT:      -5.6      3.333      7.786
REMARK  2 active torsions:
REMARK  status: ('A' for Active; 'I' for Inactive)
REMARK    1  A    between atoms: C5_5  and  N6_21 
REMARK    2  A    between atoms: C18_14  and  N17_19 
ROOT
HETATM    1  O1  MIQ B 502      10.290  19.521  14.680  1.00142.91    -0.171 OA
HETATM    2  C2  MIQ B 502      10.180  20.752  15.330  1.00141.17     0.195 A 
HETATM    3  C3  MIQ B 502       9.888  20.970  16.849  1.00141.71     0.035 A 
HETATM    4  C4  MIQ B 502       9.659  20.047  17.985  1.00142.86     0.046 A 
HETATM    5  C5  MIQ B 502       9.414  20.557  19.285  1.00139.53     0.031 A 
HETATM    6  C12 MIQ B 502       9.389  21.996  19.504  1.00139.38     0.030 A 
HETATM    7  C13 MIQ B 502       9.610  22.882  18.415  1.00141.18     0.019 A 
HETATM    8  C14 MIQ B 502       9.868  22.340  17.052  1.00138.77     0.033 A 
HETATM    9  C15 MIQ B 502      10.150  22.976  15.652  1.00142.10     0.195 A 
HETATM   10  N17 MIQ B 502      10.301  21.963  14.815  1.00139.42    -0.288 N 
HETATM   11  O16 MIQ B 502      10.224  24.338  15.352  1.00148.93    -0.171 OA
ENDROOT
BRANCH  10  12
HETATM   12  C18 MIQ B 502      10.563  22.180  13.404  1.00139.82     0.187 C 
HETATM   13  C19 MIQ B 502       9.593  21.298  12.607  1.00140.06     0.247 C 
HETATM   14  O25 MIQ B 502       8.440  21.343  12.853  1.00143.95    -0.271 OA
HETATM   15  N20 MIQ B 502      10.053  20.414  11.556  1.00140.02    -0.296 N 
HETATM   16  H13 MIQ B 502       9.410  19.839  11.048  1.00142.77     0.171 HD
HETATM   17  C21 MIQ B 502      11.466  20.369  11.282  1.00142.22     0.224 C 
HETATM   18  C22 MIQ B 502      12.396  20.562  12.464  1.00139.52     0.106 C 
HETATM   19  O24 MIQ B 502      11.878  20.196  10.188  1.00146.13    -0.273 OA
HETATM   20  C23 MIQ B 502      12.031  21.898  13.087  1.00139.15     0.045 C 
ENDBRANCH  10  12
BRANCH   5  21
HETATM   21  N6  MIQ B 502       9.176  19.641  20.386  1.00140.95    -0.377 N 
HETATM   22  C7  MIQ B 502       9.775  19.937  21.677  1.00142.12     0.149 C 
HETATM   23  C8  MIQ B 502      10.003  18.675  22.500  1.00144.10     0.187 C 
HETATM   24  O9  MIQ B 502       8.884  17.841  22.537  1.00148.65    -0.388 OA
HETATM   25  C10 MIQ B 502       7.793  18.082  21.698  1.00147.44     0.187 C 
HETATM   26  C11 MIQ B 502       8.046  18.731  20.341  1.00144.08     0.149 C 
ENDBRANCH   5  21
TORSDOF 2
ENDMDL
MODEL 9
REMARK VINA RESULT:      -5.6      2.907      5.033
REMARK  2 active torsions:
REMARK  status: ('A' for Active; 'I' for Inactive)
REMARK    1  A    between atoms: C5_5  and  N6_21 
REMARK    2  A    between atoms: C18_14  and  N17_19 
ROOT
HETATM    1  O1  MIQ B 502      10.227  18.493  18.769  1.00142.91    -0.171 OA
HETATM    2  C2  MIQ B 502      10.021  19.873  18.710  1.00141.17     0.195 A 
HETATM    3  C3  MIQ B 502      10.032  20.753  17.419  1.00141.71     0.035 A 
HETATM    4  C4  MIQ B 502      10.240  20.453  15.983  1.00142.86     0.046 A 
HETATM    5  C5  MIQ B 502      10.189  21.491  15.019  1.00139.53     0.031 A 
HETATM    6  C12 MIQ B 502       9.930  22.860  15.444  1.00139.38     0.030 A 
HETATM    7  C13 MIQ B 502       9.730  23.148  16.821  1.00141.18     0.019 A 
HETATM    8  C14 MIQ B 502       9.782  22.053  17.828  1.00138.77     0.033 A 
HETATM    9  C15 MIQ B 502       9.614  21.979  19.381  1.00142.10     0.195 A 
HETATM   10  N17 MIQ B 502       9.772  20.707  19.705  1.00139.42    -0.288 N 
HETATM   11  O16 MIQ B 502       9.353  23.044  20.245  1.00148.93    -0.171 OA
ENDROOT
BRANCH  10  12
HETATM   12  C18 MIQ B 502       9.697  20.262  21.084  1.00139.82     0.187 C 
HETATM   13  C19 MIQ B 502      10.995  19.511  21.405  1.00140.06     0.247 C 
HETATM   14  O25 MIQ B 502      12.031  20.021  21.162  1.00143.95    -0.271 OA
HETATM   15  N20 MIQ B 502      10.987  18.191  22.003  1.00140.02    -0.296 N 
HETATM   16  H13 MIQ B 502      11.841  17.709  22.201  1.00142.77     0.171 HD
HETATM   17  C21 MIQ B 502       9.710  17.585  22.280  1.00142.22     0.224 C 
HETATM   18  C22 MIQ B 502       8.581  17.905  21.319  1.00139.52     0.106 C 
HETATM   19  O24 MIQ B 502       9.551  16.878  23.214  1.00146.13    -0.273 OA
HETATM   20  C23 MIQ B 502       8.444  19.416  21.303  1.00139.15     0.045 C 
ENDBRANCH  10  12
BRANCH   5  21
HETATM   21  N6  MIQ B 502      10.409  21.185  13.617  1.00140.95    -0.377 N 
HETATM   22  C7  MIQ B 502      11.307  20.095  13.277  1.00142.12     0.149 C 
HETATM   23  C8  MIQ B 502      11.937  20.285  11.903  1.00144.10     0.187 C 
HETATM   24  O9  MIQ B 502      11.004  20.618  10.919  1.00148.65    -0.388 OA
HETATM   25  C10 MIQ B 502       9.695  20.957  11.271  1.00147.44     0.187 C 
HETATM   26  C11 MIQ B 502       9.452  21.629  12.619  1.00144.08     0.149 C 
ENDBRANCH   5  21
TORSDOF 2
ENDMDL
