MODEL 1
REMARK VINA RESULT:      -7.2      0.000      0.000
REMARK  2 active torsions:
REMARK  status: ('A' for Active; 'I' for Inactive)
REMARK    1  A    between atoms: C5_5  and  N6_21 
REMARK    2  A    between atoms: C18_14  and  N17_19 
ROOT
HETATM    1  O1  MIQ B 502      -5.349  -1.365  17.735  1.00142.91    -0.171 OA
HETATM    2  C2  MIQ B 502      -4.389  -2.319  18.081  1.00141.17     0.195 A 
HETATM    3  C3  MIQ B 502      -2.973  -2.029  18.672  1.00141.71     0.035 A 
HETATM    4  C4  MIQ B 502      -2.252  -0.784  19.029  1.00142.86     0.046 A 
HETATM    5  C5  MIQ B 502      -0.940  -0.843  19.562  1.00139.53     0.031 A 
HETATM    6  C12 MIQ B 502      -0.298  -2.134  19.761  1.00139.38     0.030 A 
HETATM    7  C13 MIQ B 502      -0.989  -3.328  19.420  1.00141.18     0.019 A 
HETATM    8  C14 MIQ B 502      -2.367  -3.261  18.863  1.00138.77     0.033 A 
HETATM    9  C15 MIQ B 502      -3.414  -4.320  18.387  1.00142.10     0.195 A 
HETATM   10  N17 MIQ B 502      -4.473  -3.635  17.990  1.00139.42    -0.288 N 
HETATM   11  O16 MIQ B 502      -3.256  -5.707  18.383  1.00148.93    -0.171 OA
ENDROOT
BRANCH  10  12
HETATM   12  C18 MIQ B 502      -5.651  -4.299  17.463  1.00139.82     0.187 C 
HETATM   13  C19 MIQ B 502      -5.985  -3.655  16.111  1.00140.06     0.247 C 
HETATM   14  O25 MIQ B 502      -5.138  -3.550  15.298  1.00143.95    -0.271 OA
HETATM   15  N20 MIQ B 502      -7.317  -3.175  15.803  1.00140.02    -0.296 N 
HETATM   16  H13 MIQ B 502      -7.521  -2.751  14.919  1.00142.77     0.171 HD
HETATM   17  C21 MIQ B 502      -8.332  -3.305  16.816  1.00142.22     0.224 C 
HETATM   18  C22 MIQ B 502      -7.877  -3.172  18.257  1.00139.52     0.106 C 
HETATM   19  O24 MIQ B 502      -9.462  -3.509  16.536  1.00146.13    -0.273 OA
HETATM   20  C23 MIQ B 502      -6.799  -4.220  18.467  1.00139.15     0.045 C 
ENDBRANCH  10  12
BRANCH   5  21
HETATM   21  N6  MIQ B 502      -0.240   0.385  19.893  1.00140.95    -0.377 N 
HETATM   22  C7  MIQ B 502      -1.006   1.616  19.992  1.00142.12     0.149 C 
HETATM   23  C8  MIQ B 502      -0.152   2.843  19.698  1.00144.10     0.187 C 
HETATM   24  O9  MIQ B 502       1.061   2.838  20.388  1.00148.65    -0.388 OA
HETATM   25  C10 MIQ B 502       1.484   1.693  21.070  1.00147.44     0.187 C 
HETATM   26  C11 MIQ B 502       1.061   0.329  20.535  1.00144.08     0.149 C 
ENDBRANCH   5  21
TORSDOF 2
ENDMDL
MODEL 2
REMARK VINA RESULT:      -6.8      2.815      7.880
REMARK  2 active torsions:
REMARK  status: ('A' for Active; 'I' for Inactive)
REMARK    1  A    between atoms: C5_5  and  N6_21 
REMARK    2  A    between atoms: C18_14  and  N17_19 
ROOT
HETATM    1  O1  MIQ B 502      -3.129  -1.057  20.914  1.00142.91    -0.171 OA
HETATM    2  C2  MIQ B 502      -3.658  -1.262  19.637  1.00141.17     0.195 A 
HETATM    3  C3  MIQ B 502      -5.152  -1.564  19.296  1.00141.71     0.035 A 
HETATM    4  C4  MIQ B 502      -6.375  -1.714  20.120  1.00142.86     0.046 A 
HETATM    5  C5  MIQ B 502      -7.623  -1.993  19.506  1.00139.53     0.031 A 
HETATM    6  C12 MIQ B 502      -7.701  -2.132  18.059  1.00139.38     0.030 A 
HETATM    7  C13 MIQ B 502      -6.529  -1.987  17.269  1.00141.18     0.019 A 
HETATM    8  C14 MIQ B 502      -5.223  -1.692  17.919  1.00138.77     0.033 A 
HETATM    9  C15 MIQ B 502      -3.764  -1.467  17.402  1.00142.10     0.195 A 
HETATM   10  N17 MIQ B 502      -3.027  -1.240  18.476  1.00139.42    -0.288 N 
HETATM   11  O16 MIQ B 502      -3.333  -1.503  16.074  1.00148.93    -0.171 OA
ENDROOT
BRANCH  10  12
HETATM   12  C18 MIQ B 502      -1.599  -1.002  18.378  1.00139.82     0.187 C 
HETATM   13  C19 MIQ B 502      -0.895  -1.981  19.326  1.00140.06     0.247 C 
HETATM   14  O25 MIQ B 502      -1.155  -3.130  19.264  1.00143.95    -0.271 OA
HETATM   15  N20 MIQ B 502       0.086  -1.535  20.294  1.00140.02    -0.296 N 
HETATM   16  H13 MIQ B 502       0.534  -2.184  20.911  1.00142.77     0.171 HD
HETATM   17  C21 MIQ B 502       0.379  -0.127  20.357  1.00142.22     0.224 C 
HETATM   18  C22 MIQ B 502      -0.767   0.821  20.064  1.00139.52     0.106 C 
HETATM   19  O24 MIQ B 502       1.462   0.268  20.620  1.00146.13    -0.273 OA
HETATM   20  C23 MIQ B 502      -1.282   0.461  18.682  1.00139.15     0.045 C 
ENDBRANCH  10  12
BRANCH   5  21
HETATM   21  N6  MIQ B 502      -8.810  -2.152  20.326  1.00140.95    -0.377 N 
HETATM   22  C7  MIQ B 502      -9.554  -3.396  20.236  1.00142.12     0.149 C 
HETATM   23  C8  MIQ B 502     -11.023  -3.207  20.594  1.00144.10     0.187 C 
HETATM   24  O9  MIQ B 502     -11.206  -2.487  21.776  1.00148.65    -0.388 OA
HETATM   25  C10 MIQ B 502     -10.128  -1.838  22.383  1.00147.44     0.187 C 
HETATM   26  C11 MIQ B 502      -8.998  -1.318  21.501  1.00144.08     0.149 C 
ENDBRANCH   5  21
TORSDOF 2
ENDMDL
MODEL 3
REMARK VINA RESULT:      -6.8      2.369      3.460
REMARK  2 active torsions:
REMARK  status: ('A' for Active; 'I' for Inactive)
REMARK    1  A    between atoms: C5_5  and  N6_21 
REMARK    2  A    between atoms: C18_14  and  N17_19 
ROOT
HETATM    1  O1  MIQ B 502      -6.248  -2.241  20.650  1.00142.91    -0.171 OA
HETATM    2  C2  MIQ B 502      -5.896  -2.096  19.307  1.00141.17     0.195 A 
HETATM    3  C3  MIQ B 502      -4.491  -1.686  18.761  1.00141.71     0.035 A 
HETATM    4  C4  MIQ B 502      -3.202  -1.354  19.412  1.00142.86     0.046 A 
HETATM    5  C5  MIQ B 502      -2.070  -1.013  18.629  1.00139.53     0.031 A 
HETATM    6  C12 MIQ B 502      -2.176  -0.990  17.177  1.00139.38     0.030 A 
HETATM    7  C13 MIQ B 502      -3.412  -1.310  16.552  1.00141.18     0.019 A 
HETATM    8  C14 MIQ B 502      -4.596  -1.670  17.379  1.00138.77     0.033 A 
HETATM    9  C15 MIQ B 502      -6.074  -2.072  17.066  1.00142.10     0.195 A 
HETATM   10  N17 MIQ B 502      -6.653  -2.275  18.238  1.00139.42    -0.288 N 
HETATM   11  O16 MIQ B 502      -6.659  -2.188  15.804  1.00148.93    -0.171 OA
ENDROOT
BRANCH  10  12
HETATM   12  C18 MIQ B 502      -8.051  -2.652  18.337  1.00139.82     0.187 C 
HETATM   13  C19 MIQ B 502      -8.718  -1.716  19.351  1.00140.06     0.247 C 
HETATM   14  O25 MIQ B 502      -8.584  -0.550  19.233  1.00143.95    -0.271 OA
HETATM   15  N20 MIQ B 502      -9.515  -2.222  20.450  1.00140.02    -0.296 N 
HETATM   16  H13 MIQ B 502      -9.939  -1.600  21.109  1.00142.77     0.171 HD
HETATM   17  C21 MIQ B 502      -9.655  -3.650  20.579  1.00142.22     0.224 C 
HETATM   18  C22 MIQ B 502      -8.468  -4.492  20.153  1.00139.52     0.106 C 
HETATM   19  O24 MIQ B 502     -10.648  -4.138  20.992  1.00146.13    -0.273 OA
HETATM   20  C23 MIQ B 502      -8.178  -4.129  18.708  1.00139.15     0.045 C 
ENDBRANCH  10  12
BRANCH   5  21
HETATM   21  N6  MIQ B 502      -0.818  -0.675  19.281  1.00140.95    -0.377 N 
HETATM   22  C7  MIQ B 502       0.402  -1.311  18.814  1.00142.12     0.149 C 
HETATM   23  C8  MIQ B 502       1.456  -1.394  19.911  1.00144.10     0.187 C 
HETATM   24  O9  MIQ B 502       1.634  -0.184  20.586  1.00148.65    -0.388 OA
HETATM   25  C10 MIQ B 502       0.745   0.875  20.385  1.00147.44     0.187 C 
HETATM   26  C11 MIQ B 502      -0.706   0.555  20.045  1.00144.08     0.149 C 
ENDBRANCH   5  21
TORSDOF 2
ENDMDL
MODEL 4
REMARK VINA RESULT:      -6.8      1.188      1.297
REMARK  2 active torsions:
REMARK  status: ('A' for Active; 'I' for Inactive)
REMARK    1  A    between atoms: C5_5  and  N6_21 
REMARK    2  A    between atoms: C18_14  and  N17_19 
ROOT
HETATM    1  O1  MIQ B 502      -6.043  -0.868  19.067  1.00142.91    -0.171 OA
HETATM    2  C2  MIQ B 502      -5.079  -1.879  19.048  1.00141.17     0.195 A 
HETATM    3  C3  MIQ B 502      -3.546  -1.696  19.285  1.00141.71     0.035 A 
HETATM    4  C4  MIQ B 502      -2.694  -0.520  19.579  1.00142.86     0.046 A 
HETATM    5  C5  MIQ B 502      -1.294  -0.673  19.748  1.00139.53     0.031 A 
HETATM    6  C12 MIQ B 502      -0.693  -1.994  19.632  1.00139.38     0.030 A 
HETATM    7  C13 MIQ B 502      -1.510  -3.122  19.351  1.00141.18     0.019 A 
HETATM    8  C14 MIQ B 502      -2.979  -2.955  19.177  1.00138.77     0.033 A 
HETATM    9  C15 MIQ B 502      -4.167  -3.926  18.872  1.00142.10     0.195 A 
HETATM   10  N17 MIQ B 502      -5.254  -3.172  18.837  1.00139.42    -0.288 N 
HETATM   11  O16 MIQ B 502      -4.089  -5.305  18.676  1.00148.93    -0.171 OA
ENDROOT
BRANCH  10  12
HETATM   12  C18 MIQ B 502      -6.560  -3.740  18.560  1.00139.82     0.187 C 
HETATM   13  C19 MIQ B 502      -7.176  -2.951  17.399  1.00140.06     0.247 C 
HETATM   14  O25 MIQ B 502      -6.548  -2.792  16.413  1.00143.95    -0.271 OA
HETATM   15  N20 MIQ B 502      -8.514  -2.400  17.474  1.00140.02    -0.296 N 
HETATM   16  H13 MIQ B 502      -8.902  -1.881  16.711  1.00142.77     0.171 HD
HETATM   17  C21 MIQ B 502      -9.257  -2.599  18.692  1.00142.22     0.224 C 
HETATM   18  C22 MIQ B 502      -8.459  -2.629  19.980  1.00139.52     0.106 C 
HETATM   19  O24 MIQ B 502     -10.431  -2.737  18.683  1.00146.13    -0.273 OA
HETATM   20  C23 MIQ B 502      -7.423  -3.727  19.821  1.00139.15     0.045 C 
ENDBRANCH  10  12
BRANCH   5  21
HETATM   21  N6  MIQ B 502      -0.470   0.490  20.021  1.00140.95    -0.377 N 
HETATM   22  C7  MIQ B 502      -1.118   1.780  20.179  1.00142.12     0.149 C 
HETATM   23  C8  MIQ B 502      -0.189   2.932  19.817  1.00144.10     0.187 C 
HETATM   24  O9  MIQ B 502       1.070   2.820  20.410  1.00148.65    -0.388 OA
HETATM   25  C10 MIQ B 502       1.446   1.641  21.057  1.00147.44     0.187 C 
HETATM   26  C11 MIQ B 502       0.869   0.320  20.559  1.00144.08     0.149 C 
ENDBRANCH   5  21
TORSDOF 2
ENDMDL
MODEL 5
REMARK VINA RESULT:      -6.7     15.057     18.004
REMARK  2 active torsions:
REMARK  status: ('A' for Active; 'I' for Inactive)
REMARK    1  A    between atoms: C5_5  and  N6_21 
REMARK    2  A    between atoms: C18_14  and  N17_19 
ROOT
HETATM    1  O1  MIQ B 502       3.200  14.622  22.134  1.00142.91    -0.171 OA
HETATM    2  C2  MIQ B 502       3.385  13.788  21.029  1.00141.17     0.195 A 
HETATM    3  C3  MIQ B 502       2.939  14.086  19.563  1.00141.71     0.035 A 
HETATM    4  C4  MIQ B 502       2.248  15.230  18.920  1.00142.86     0.046 A 
HETATM    5  C5  MIQ B 502       1.973  15.212  17.530  1.00139.53     0.031 A 
HETATM    6  C12 MIQ B 502       2.373  14.064  16.729  1.00139.38     0.030 A 
HETATM    7  C13 MIQ B 502       3.037  12.968  17.344  1.00141.18     0.019 A 
HETATM    8  C14 MIQ B 502       3.324  12.993  18.804  1.00138.77     0.033 A 
HETATM    9  C15 MIQ B 502       4.015  12.011  19.805  1.00142.10     0.195 A 
HETATM   10  N17 MIQ B 502       3.967  12.601  20.988  1.00139.42    -0.288 N 
HETATM   11  O16 MIQ B 502       4.566  10.763  19.507  1.00148.93    -0.171 OA
ENDROOT
BRANCH  10  12
HETATM   12  C18 MIQ B 502       4.507  11.965  22.175  1.00139.82     0.187 C 
HETATM   13  C19 MIQ B 502       5.959  11.572  21.875  1.00140.06     0.247 C 
HETATM   14  O25 MIQ B 502       6.696  12.382  21.436  1.00143.95    -0.271 OA
HETATM   15  N20 MIQ B 502       6.455  10.234  22.122  1.00140.02    -0.296 N 
HETATM   16  H13 MIQ B 502       7.403   9.988  21.916  1.00142.77     0.171 HD
HETATM   17  C21 MIQ B 502       5.534   9.260  22.649  1.00142.22     0.224 C 
HETATM   18  C22 MIQ B 502       4.088   9.380  22.206  1.00139.52     0.106 C 
HETATM   19  O24 MIQ B 502       5.889   8.413  23.394  1.00146.13    -0.273 OA
HETATM   20  C23 MIQ B 502       3.636  10.779  22.585  1.00139.15     0.045 C 
ENDBRANCH  10  12
BRANCH   5  21
HETATM   21  N6  MIQ B 502       1.283  16.332  16.917  1.00140.95    -0.377 N 
HETATM   22  C7  MIQ B 502       1.240  16.412  15.467  1.00142.12     0.149 C 
HETATM   23  C8  MIQ B 502       1.095  17.848  14.981  1.00144.10     0.187 C 
HETATM   24  O9  MIQ B 502       0.088  18.549  15.647  1.00148.65    -0.388 OA
HETATM   25  C10 MIQ B 502      -0.519  18.007  16.783  1.00147.44     0.187 C 
HETATM   26  C11 MIQ B 502       0.303  17.086  17.679  1.00144.08     0.149 C 
ENDBRANCH   5  21
TORSDOF 2
ENDMDL
MODEL 6
REMARK VINA RESULT:      -6.7      2.798      3.243
REMARK  2 active torsions:
REMARK  status: ('A' for Active; 'I' for Inactive)
REMARK    1  A    between atoms: C5_5  and  N6_21 
REMARK    2  A    between atoms: C18_14  and  N17_19 
ROOT
HETATM    1  O1  MIQ B 502      -3.575  -3.622  19.170  1.00142.91    -0.171 OA
HETATM    2  C2  MIQ B 502      -2.202  -3.877  19.211  1.00141.17     0.195 A 
HETATM    3  C3  MIQ B 502      -1.075  -2.825  19.463  1.00141.71     0.035 A 
HETATM    4  C4  MIQ B 502      -1.083  -1.365  19.718  1.00142.86     0.046 A 
HETATM    5  C5  MIQ B 502       0.134  -0.666  19.915  1.00139.53     0.031 A 
HETATM    6  C12 MIQ B 502       1.398  -1.387  19.868  1.00139.38     0.030 A 
HETATM    7  C13 MIQ B 502       1.406  -2.787  19.625  1.00141.18     0.019 A 
HETATM    8  C14 MIQ B 502       0.124  -3.516  19.421  1.00138.77     0.033 A 
HETATM    9  C15 MIQ B 502      -0.260  -5.006  19.142  1.00142.10     0.195 A 
HETATM   10  N17 MIQ B 502      -1.579  -5.033  19.056  1.00139.42    -0.288 N 
HETATM   11  O16 MIQ B 502       0.617  -6.084  19.008  1.00148.93    -0.171 OA
ENDROOT
BRANCH  10  12
HETATM   12  C18 MIQ B 502      -2.296  -6.266  18.785  1.00139.82     0.187 C 
HETATM   13  C19 MIQ B 502      -3.246  -6.005  17.609  1.00140.06     0.247 C 
HETATM   14  O25 MIQ B 502      -2.822  -5.516  16.623  1.00143.95    -0.271 OA
HETATM   15  N20 MIQ B 502      -4.652  -6.349  17.673  1.00140.02    -0.296 N 
HETATM   16  H13 MIQ B 502      -5.263  -6.167  16.901  1.00142.77     0.171 HD
HETATM   17  C21 MIQ B 502      -5.148  -6.935  18.891  1.00142.22     0.224 C 
HETATM   18  C22 MIQ B 502      -4.500  -6.474  20.183  1.00139.52     0.106 C 
HETATM   19  O24 MIQ B 502      -6.014  -7.739  18.882  1.00146.13    -0.273 OA
HETATM   20  C23 MIQ B 502      -3.015  -6.751  20.043  1.00139.15     0.045 C 
ENDBRANCH  10  12
BRANCH   5  21
HETATM   21  N6  MIQ B 502       0.113   0.767  20.149  1.00140.95    -0.377 N 
HETATM   22  C7  MIQ B 502      -1.140   1.481  19.971  1.00142.12     0.149 C 
HETATM   23  C8  MIQ B 502      -0.914   2.944  19.611  1.00144.10     0.187 C 
HETATM   24  O9  MIQ B 502       0.017   3.570  20.441  1.00148.65    -0.388 OA
HETATM   25  C10 MIQ B 502       0.792   2.819  21.329  1.00147.44     0.187 C 
HETATM   26  C11 MIQ B 502       1.154   1.387  20.950  1.00144.08     0.149 C 
ENDBRANCH   5  21
TORSDOF 2
ENDMDL
MODEL 7
REMARK VINA RESULT:      -6.4      2.177      3.088
REMARK  2 active torsions:
REMARK  status: ('A' for Active; 'I' for Inactive)
REMARK    1  A    between atoms: C5_5  and  N6_21 
REMARK    2  A    between atoms: C18_14  and  N17_19 
ROOT
HETATM    1  O1  MIQ B 502      -6.185  -2.329  21.793  1.00142.91    -0.171 OA
HETATM    2  C2  MIQ B 502      -5.957  -2.386  20.416  1.00141.17     0.195 A 
HETATM    3  C3  MIQ B 502      -4.666  -1.913  19.675  1.00141.71     0.035 A 
HETATM    4  C4  MIQ B 502      -3.390  -1.315  20.133  1.00142.86     0.046 A 
HETATM    5  C5  MIQ B 502      -2.377  -0.984  19.197  1.00139.53     0.031 A 
HETATM    6  C12 MIQ B 502      -2.593  -1.236  17.779  1.00139.38     0.030 A 
HETATM    7  C13 MIQ B 502      -3.816  -1.811  17.340  1.00141.18     0.019 A 
HETATM    8  C14 MIQ B 502      -4.875  -2.157  18.327  1.00138.77     0.033 A 
HETATM    9  C15 MIQ B 502      -6.303  -2.786  18.232  1.00142.10     0.195 A 
HETATM   10  N17 MIQ B 502      -6.761  -2.845  19.472  1.00139.42    -0.288 N 
HETATM   11  O16 MIQ B 502      -6.959  -3.198  17.070  1.00148.93    -0.171 OA
ENDROOT
BRANCH  10  12
HETATM   12  C18 MIQ B 502      -8.082  -3.366  19.768  1.00139.82     0.187 C 
HETATM   13  C19 MIQ B 502      -8.178  -4.770  19.159  1.00140.06     0.247 C 
HETATM   14  O25 MIQ B 502      -7.332  -5.558  19.392  1.00143.95    -0.271 OA
HETATM   15  N20 MIQ B 502      -9.284  -5.160  18.309  1.00140.02    -0.296 N 
HETATM   16  H13 MIQ B 502      -9.332  -6.078  17.912  1.00142.77     0.171 HD
HETATM   17  C21 MIQ B 502     -10.300  -4.177  18.030  1.00142.22     0.224 C 
HETATM   18  C22 MIQ B 502      -9.844  -2.734  17.936  1.00139.52     0.106 C 
HETATM   19  O24 MIQ B 502     -11.433  -4.483  17.888  1.00146.13    -0.273 OA
HETATM   20  C23 MIQ B 502      -9.158  -2.412  19.252  1.00139.15     0.045 C 
ENDBRANCH  10  12
BRANCH   5  21
HETATM   21  N6  MIQ B 502      -1.138  -0.385  19.658  1.00140.95    -0.377 N 
HETATM   22  C7  MIQ B 502       0.119  -0.946  19.194  1.00142.12     0.149 C 
HETATM   23  C8  MIQ B 502       1.251  -0.698  20.183  1.00144.10     0.187 C 
HETATM   24  O9  MIQ B 502       1.313   0.627  20.617  1.00148.65    -0.388 OA
HETATM   25  C10 MIQ B 502       0.278   1.518  20.322  1.00147.44     0.187 C 
HETATM   26  C11 MIQ B 502      -1.138   0.970  20.182  1.00144.08     0.149 C 
ENDBRANCH   5  21
TORSDOF 2
ENDMDL
MODEL 8
REMARK VINA RESULT:      -6.3      3.480      5.095
REMARK  2 active torsions:
REMARK  status: ('A' for Active; 'I' for Inactive)
REMARK    1  A    between atoms: C5_5  and  N6_21 
REMARK    2  A    between atoms: C18_14  and  N17_19 
ROOT
HETATM    1  O1  MIQ B 502      -6.373  -2.404  21.767  1.00142.91    -0.171 OA
HETATM    2  C2  MIQ B 502      -6.264  -1.998  20.435  1.00141.17     0.195 A 
HETATM    3  C3  MIQ B 502      -4.983  -2.089  19.546  1.00141.71     0.035 A 
HETATM    4  C4  MIQ B 502      -3.608  -2.586  19.787  1.00142.86     0.046 A 
HETATM    5  C5  MIQ B 502      -2.637  -2.539  18.755  1.00139.53     0.031 A 
HETATM    6  C12 MIQ B 502      -2.995  -1.999  17.451  1.00139.38     0.030 A 
HETATM    7  C13 MIQ B 502      -4.314  -1.524  17.218  1.00141.18     0.019 A 
HETATM    8  C14 MIQ B 502      -5.329  -1.578  18.305  1.00138.77     0.033 A 
HETATM    9  C15 MIQ B 502      -6.833  -1.168  18.426  1.00142.10     0.195 A 
HETATM   10  N17 MIQ B 502      -7.196  -1.468  19.662  1.00139.42    -0.288 N 
HETATM   11  O16 MIQ B 502      -7.626  -0.598  17.428  1.00148.93    -0.171 OA
ENDROOT
BRANCH  10  12
HETATM   12  C18 MIQ B 502      -8.540  -1.206  20.141  1.00139.82     0.187 C 
HETATM   13  C19 MIQ B 502      -8.425  -0.401  21.441  1.00140.06     0.247 C 
HETATM   14  O25 MIQ B 502      -7.754   0.569  21.460  1.00143.95    -0.271 OA
HETATM   15  N20 MIQ B 502      -9.122  -0.795  22.648  1.00140.02    -0.296 N 
HETATM   16  H13 MIQ B 502      -9.033  -0.264  23.492  1.00142.77     0.171 HD
HETATM   17  C21 MIQ B 502      -9.926  -1.989  22.604  1.00142.22     0.224 C 
HETATM   18  C22 MIQ B 502      -9.436  -3.107  21.704  1.00139.52     0.106 C 
HETATM   19  O24 MIQ B 502     -10.921  -2.087  23.234  1.00146.13    -0.273 OA
HETATM   20  C23 MIQ B 502      -9.308  -2.516  20.312  1.00139.15     0.045 C 
ENDBRANCH  10  12
BRANCH   5  21
HETATM   21  N6  MIQ B 502      -1.290  -3.015  19.010  1.00140.95    -0.377 N 
HETATM   22  C7  MIQ B 502      -0.345  -2.116  19.651  1.00142.12     0.149 C 
HETATM   23  C8  MIQ B 502       1.095  -2.450  19.286  1.00144.10     0.187 C 
HETATM   24  O9  MIQ B 502       1.386  -3.810  19.410  1.00148.65    -0.388 OA
HETATM   25  C10 MIQ B 502       0.362  -4.737  19.622  1.00147.44     0.187 C 
HETATM   26  C11 MIQ B 502      -1.019  -4.441  19.045  1.00144.08     0.149 C 
ENDBRANCH   5  21
TORSDOF 2
ENDMDL
MODEL 9
REMARK VINA RESULT:      -6.3     20.239     23.880
REMARK  2 active torsions:
REMARK  status: ('A' for Active; 'I' for Inactive)
REMARK    1  A    between atoms: C5_5  and  N6_21 
REMARK    2  A    between atoms: C18_14  and  N17_19 
ROOT
HETATM    1  O1  MIQ B 502     -18.463  11.896  12.041  1.00142.91    -0.171 OA
HETATM    2  C2  MIQ B 502     -19.612  11.110  11.927  1.00141.17     0.195 A 
HETATM    3  C3  MIQ B 502     -20.785  11.331  10.919  1.00141.71     0.035 A 
HETATM    4  C4  MIQ B 502     -21.042  12.335   9.860  1.00142.86     0.046 A 
HETATM    5  C5  MIQ B 502     -22.229  12.273   9.087  1.00139.53     0.031 A 
HETATM    6  C12 MIQ B 502     -23.199  11.216   9.336  1.00139.38     0.030 A 
HETATM    7  C13 MIQ B 502     -22.952  10.252  10.351  1.00141.18     0.019 A 
HETATM    8  C14 MIQ B 502     -21.703  10.321  11.158  1.00138.77     0.033 A 
HETATM    9  C15 MIQ B 502     -21.097   9.469  12.320  1.00142.10     0.195 A 
HETATM   10  N17 MIQ B 502     -19.942  10.037  12.626  1.00139.42    -0.288 N 
HETATM   11  O16 MIQ B 502     -21.665   8.340  12.912  1.00148.93    -0.171 OA
ENDROOT
BRANCH  10  12
HETATM   12  C18 MIQ B 502     -19.099   9.517  13.686  1.00139.82     0.187 C 
HETATM   13  C19 MIQ B 502     -18.965  10.609  14.755  1.00140.06     0.247 C 
HETATM   14  O25 MIQ B 502     -19.938  11.123  15.178  1.00143.95    -0.271 OA
HETATM   15  N20 MIQ B 502     -17.674  11.024  15.265  1.00140.02    -0.296 N 
HETATM   16  H13 MIQ B 502     -17.599  11.742  15.958  1.00142.77     0.171 HD
HETATM   17  C21 MIQ B 502     -16.500  10.389  14.725  1.00142.22     0.224 C 
HETATM   18  C22 MIQ B 502     -16.556   9.980  13.265  1.00139.52     0.106 C 
HETATM   19  O24 MIQ B 502     -15.543  10.192  15.390  1.00146.13    -0.273 OA
HETATM   20  C23 MIQ B 502     -17.755   9.060  13.121  1.00139.15     0.045 C 
ENDBRANCH  10  12
BRANCH   5  21
HETATM   21  N6  MIQ B 502     -22.476  13.271   8.063  1.00140.95    -0.377 N 
HETATM   22  C7  MIQ B 502     -21.525  14.359   7.910  1.00142.12     0.149 C 
HETATM   23  C8  MIQ B 502     -22.175  15.604   7.322  1.00144.10     0.187 C 
HETATM   24  O9  MIQ B 502     -22.955  15.330   6.196  1.00148.65    -0.388 OA
HETATM   25  C10 MIQ B 502     -23.253  14.011   5.846  1.00147.44     0.187 C 
HETATM   26  C11 MIQ B 502     -23.364  12.969   6.954  1.00144.08     0.149 C 
ENDBRANCH   5  21
TORSDOF 2
ENDMDL
