MODEL 1
REMARK VINA RESULT:      -6.5      0.000      0.000
REMARK  2 active torsions:
REMARK  status: ('A' for Active; 'I' for Inactive)
REMARK    1  A    between atoms: C5_5  and  N6_21 
REMARK    2  A    between atoms: C18_14  and  N17_19 
ROOT
HETATM    1  O1  MIQ B 502       0.821  -9.946  11.415  1.00142.91    -0.171 OA
HETATM    2  C2  MIQ B 502       0.164 -11.113  11.018  1.00141.17     0.195 A 
HETATM    3  C3  MIQ B 502       0.079 -12.445  11.828  1.00141.71     0.035 A 
HETATM    4  C4  MIQ B 502       0.606 -12.871  13.146  1.00142.86     0.046 A 
HETATM    5  C5  MIQ B 502       0.357 -14.181  13.629  1.00139.53     0.031 A 
HETATM    6  C12 MIQ B 502      -0.423 -15.111  12.824  1.00139.38     0.030 A 
HETATM    7  C13 MIQ B 502      -0.929 -14.703  11.561  1.00141.18     0.019 A 
HETATM    8  C14 MIQ B 502      -0.666 -13.326  11.061  1.00138.77     0.033 A 
HETATM    9  C15 MIQ B 502      -1.046 -12.535   9.767  1.00142.10     0.195 A 
HETATM   10  N17 MIQ B 502      -0.514 -11.332   9.904  1.00139.42    -0.288 N 
HETATM   11  O16 MIQ B 502      -1.794 -13.009   8.687  1.00148.93    -0.171 OA
ENDROOT
BRANCH  10  12
HETATM   12  C18 MIQ B 502      -0.652 -10.321   8.872  1.00139.82     0.187 C 
HETATM   13  C19 MIQ B 502       0.749  -9.788   8.549  1.00140.06     0.247 C 
HETATM   14  O25 MIQ B 502       1.614 -10.552   8.304  1.00143.95    -0.271 OA
HETATM   15  N20 MIQ B 502       1.041  -8.369   8.532  1.00140.02    -0.296 N 
HETATM   16  H13 MIQ B 502       1.962  -8.034   8.326  1.00142.77     0.171 HD
HETATM   17  C21 MIQ B 502      -0.028  -7.456   8.845  1.00142.22     0.224 C 
HETATM   18  C22 MIQ B 502      -1.051  -7.929   9.860  1.00139.52     0.106 C 
HETATM   19  O24 MIQ B 502      -0.104  -6.395   8.332  1.00146.13    -0.273 OA
HETATM   20  C23 MIQ B 502      -1.621  -9.229   9.325  1.00139.15     0.045 C 
ENDBRANCH  10  12
BRANCH   5  21
HETATM   21  N6  MIQ B 502       0.892 -14.590  14.915  1.00140.95    -0.377 N 
HETATM   22  C7  MIQ B 502       0.148 -14.250  16.116  1.00142.12     0.149 C 
HETATM   23  C8  MIQ B 502       1.056 -14.138  17.334  1.00144.10     0.187 C 
HETATM   24  O9  MIQ B 502       1.932 -15.219  17.460  1.00148.65    -0.388 OA
HETATM   25  C10 MIQ B 502       2.070 -16.142  16.421  1.00147.44     0.187 C 
HETATM   26  C11 MIQ B 502       1.867 -15.663  14.987  1.00144.08     0.149 C 
ENDBRANCH   5  21
TORSDOF 2
ENDMDL
MODEL 2
REMARK VINA RESULT:      -6.3      4.675      7.460
REMARK  2 active torsions:
REMARK  status: ('A' for Active; 'I' for Inactive)
REMARK    1  A    between atoms: C5_5  and  N6_21 
REMARK    2  A    between atoms: C18_14  and  N17_19 
ROOT
HETATM    1  O1  MIQ B 502       0.782 -11.783   8.261  1.00142.91    -0.171 OA
HETATM    2  C2  MIQ B 502       0.128 -12.969   8.601  1.00141.17     0.195 A 
HETATM    3  C3  MIQ B 502       0.063 -14.267   7.736  1.00141.71     0.035 A 
HETATM    4  C4  MIQ B 502       0.615 -14.638   6.411  1.00142.86     0.046 A 
HETATM    5  C5  MIQ B 502       0.382 -15.928   5.873  1.00139.53     0.031 A 
HETATM    6  C12 MIQ B 502      -0.404 -16.895   6.627  1.00139.38     0.030 A 
HETATM    7  C13 MIQ B 502      -0.932 -16.541   7.897  1.00141.18     0.019 A 
HETATM    8  C14 MIQ B 502      -0.682 -15.185   8.459  1.00138.77     0.033 A 
HETATM    9  C15 MIQ B 502      -1.081 -14.452   9.781  1.00142.10     0.195 A 
HETATM   10  N17 MIQ B 502      -0.553 -13.241   9.701  1.00139.42    -0.288 N 
HETATM   11  O16 MIQ B 502      -1.843 -14.973  10.828  1.00148.93    -0.171 OA
ENDROOT
BRANCH  10  12
HETATM   12  C18 MIQ B 502      -0.735 -12.265  10.759  1.00139.82     0.187 C 
HETATM   13  C19 MIQ B 502      -1.157 -10.943  10.107  1.00140.06     0.247 C 
HETATM   14  O25 MIQ B 502      -2.057 -10.938   9.344  1.00143.95    -0.271 OA
HETATM   15  N20 MIQ B 502      -0.485  -9.695  10.406  1.00140.02    -0.296 N 
HETATM   16  H13 MIQ B 502      -0.767  -8.839   9.968  1.00142.77     0.171 HD
HETATM   17  C21 MIQ B 502       0.617  -9.727  11.332  1.00142.22     0.224 C 
HETATM   18  C22 MIQ B 502       1.475 -10.978  11.327  1.00139.52     0.106 C 
HETATM   19  O24 MIQ B 502       0.838  -8.824  12.062  1.00146.13    -0.273 OA
HETATM   20  C23 MIQ B 502       0.539 -12.143  11.594  1.00139.15     0.045 C 
ENDBRANCH  10  12
BRANCH   5  21
HETATM   21  N6  MIQ B 502       0.916 -16.272   4.567  1.00140.95    -0.377 N 
HETATM   22  C7  MIQ B 502       2.250 -16.843   4.491  1.00142.12     0.149 C 
HETATM   23  C8  MIQ B 502       2.914 -16.558   3.150  1.00144.10     0.187 C 
HETATM   24  O9  MIQ B 502       2.084 -16.834   2.062  1.00148.65    -0.388 OA
HETATM   25  C10 MIQ B 502       0.729 -17.112   2.259  1.00147.44     0.187 C 
HETATM   26  C11 MIQ B 502       0.016 -16.466   3.444  1.00144.08     0.149 C 
ENDBRANCH   5  21
TORSDOF 2
ENDMDL
MODEL 3
REMARK VINA RESULT:      -6.3      5.201      7.716
REMARK  2 active torsions:
REMARK  status: ('A' for Active; 'I' for Inactive)
REMARK    1  A    between atoms: C5_5  and  N6_21 
REMARK    2  A    between atoms: C18_14  and  N17_19 
ROOT
HETATM    1  O1  MIQ B 502      -1.050 -12.591   7.238  1.00142.91    -0.171 OA
HETATM    2  C2  MIQ B 502       0.180 -13.015   7.745  1.00141.17     0.195 A 
HETATM    3  C3  MIQ B 502       1.095 -14.126   7.137  1.00141.71     0.035 A 
HETATM    4  C4  MIQ B 502       0.979 -15.003   5.948  1.00142.86     0.046 A 
HETATM    5  C5  MIQ B 502       2.001 -15.939   5.646  1.00139.53     0.031 A 
HETATM    6  C12 MIQ B 502       3.170 -16.036   6.509  1.00139.38     0.030 A 
HETATM    7  C13 MIQ B 502       3.281 -15.194   7.648  1.00141.18     0.019 A 
HETATM    8  C14 MIQ B 502       2.207 -14.213   7.959  1.00138.77     0.033 A 
HETATM    9  C15 MIQ B 502       1.981 -13.149   9.083  1.00142.10     0.195 A 
HETATM   10  N17 MIQ B 502       0.819 -12.576   8.816  1.00139.42    -0.288 N 
HETATM   11  O16 MIQ B 502       2.835 -12.868  10.151  1.00148.93    -0.171 OA
ENDROOT
BRANCH  10  12
HETATM   12  C18 MIQ B 502       0.273 -11.537   9.669  1.00139.82     0.187 C 
HETATM   13  C19 MIQ B 502      -1.141 -11.966  10.081  1.00140.06     0.247 C 
HETATM   14  O25 MIQ B 502      -1.307 -13.041  10.536  1.00143.95    -0.271 OA
HETATM   15  N20 MIQ B 502      -2.280 -11.083   9.933  1.00140.02    -0.296 N 
HETATM   16  H13 MIQ B 502      -3.199 -11.377  10.200  1.00142.77     0.171 HD
HETATM   17  C21 MIQ B 502      -2.053  -9.779   9.366  1.00142.22     0.224 C 
HETATM   18  C22 MIQ B 502      -0.968  -9.673   8.312  1.00139.52     0.106 C 
HETATM   19  O24 MIQ B 502      -2.679  -8.838   9.711  1.00146.13    -0.273 OA
HETATM   20  C23 MIQ B 502       0.308 -10.188   8.953  1.00139.15     0.045 C 
ENDBRANCH  10  12
BRANCH   5  21
HETATM   21  N6  MIQ B 502       1.868 -16.802   4.487  1.00140.95    -0.377 N 
HETATM   22  C7  MIQ B 502       0.837 -17.826   4.498  1.00142.12     0.149 C 
HETATM   23  C8  MIQ B 502       1.198 -19.005   3.604  1.00144.10     0.187 C 
HETATM   24  O9  MIQ B 502       1.636 -18.614   2.338  1.00148.65    -0.388 OA
HETATM   25  C10 MIQ B 502       1.915 -17.271   2.069  1.00147.44     0.187 C 
HETATM   26  C11 MIQ B 502       2.417 -16.389   3.207  1.00144.08     0.149 C 
ENDBRANCH   5  21
TORSDOF 2
ENDMDL
MODEL 4
REMARK VINA RESULT:      -6.3      7.768     10.693
REMARK  2 active torsions:
REMARK  status: ('A' for Active; 'I' for Inactive)
REMARK    1  A    between atoms: C5_5  and  N6_21 
REMARK    2  A    between atoms: C18_14  and  N17_19 
ROOT
HETATM    1  O1  MIQ B 502       6.084  -8.215  18.479  1.00142.91    -0.171 OA
HETATM    2  C2  MIQ B 502       4.969  -8.273  19.317  1.00141.17     0.195 A 
HETATM    3  C3  MIQ B 502       3.663  -9.090  19.059  1.00141.71     0.035 A 
HETATM    4  C4  MIQ B 502       3.218  -9.981  17.961  1.00142.86     0.046 A 
HETATM    5  C5  MIQ B 502       1.942 -10.597  18.010  1.00139.53     0.031 A 
HETATM    6  C12 MIQ B 502       1.065 -10.353  19.147  1.00139.38     0.030 A 
HETATM    7  C13 MIQ B 502       1.492  -9.500  20.200  1.00141.18     0.019 A 
HETATM    8  C14 MIQ B 502       2.833  -8.857  20.144  1.00138.77     0.033 A 
HETATM    9  C15 MIQ B 502       3.629  -7.892  21.081  1.00142.10     0.195 A 
HETATM   10  N17 MIQ B 502       4.786  -7.671  20.480  1.00139.42    -0.288 N 
HETATM   11  O16 MIQ B 502       3.199  -7.370  22.303  1.00148.93    -0.171 OA
ENDROOT
BRANCH  10  12
HETATM   12  C18 MIQ B 502       5.787  -6.796  21.062  1.00139.82     0.187 C 
HETATM   13  C19 MIQ B 502       6.075  -5.678  20.052  1.00140.06     0.247 C 
HETATM   14  O25 MIQ B 502       5.174  -5.071  19.592  1.00143.95    -0.271 OA
HETATM   15  N20 MIQ B 502       7.425  -5.341  19.650  1.00140.02    -0.296 N 
HETATM   16  H13 MIQ B 502       7.599  -4.613  18.986  1.00142.77     0.171 HD
HETATM   17  C21 MIQ B 502       8.508  -6.102  20.218  1.00142.22     0.224 C 
HETATM   18  C22 MIQ B 502       8.231  -7.563  20.515  1.00139.52     0.106 C 
HETATM   19  O24 MIQ B 502       9.558  -5.609  20.444  1.00146.13    -0.273 OA
HETATM   20  C23 MIQ B 502       7.032  -7.594  21.446  1.00139.15     0.045 C 
ENDBRANCH  10  12
BRANCH   5  21
HETATM   21  N6  MIQ B 502       1.514 -11.456  16.921  1.00140.95    -0.377 N 
HETATM   22  C7  MIQ B 502       2.489 -11.839  15.914  1.00142.12     0.149 C 
HETATM   23  C8  MIQ B 502       1.832 -12.150  14.576  1.00144.10     0.187 C 
HETATM   24  O9  MIQ B 502       0.731 -13.001  14.695  1.00148.65    -0.388 OA
HETATM   25  C10 MIQ B 502       0.204 -13.303  15.954  1.00147.44     0.187 C 
HETATM   26  C11 MIQ B 502       0.312 -12.259  17.060  1.00144.08     0.149 C 
ENDBRANCH   5  21
TORSDOF 2
ENDMDL
MODEL 5
REMARK VINA RESULT:      -6.3     15.576     18.145
REMARK  2 active torsions:
REMARK  status: ('A' for Active; 'I' for Inactive)
REMARK    1  A    between atoms: C5_5  and  N6_21 
REMARK    2  A    between atoms: C18_14  and  N17_19 
ROOT
HETATM    1  O1  MIQ B 502      -4.471  -0.622  25.290  1.00142.91    -0.171 OA
HETATM    2  C2  MIQ B 502      -4.086  -1.203  24.080  1.00141.17     0.195 A 
HETATM    3  C3  MIQ B 502      -4.906  -1.196  22.751  1.00141.71     0.035 A 
HETATM    4  C4  MIQ B 502      -6.221  -0.629  22.369  1.00142.86     0.046 A 
HETATM    5  C5  MIQ B 502      -6.714  -0.789  21.048  1.00139.53     0.031 A 
HETATM    6  C12 MIQ B 502      -5.922  -1.512  20.064  1.00139.38     0.030 A 
HETATM    7  C13 MIQ B 502      -4.660  -2.054  20.430  1.00141.18     0.019 A 
HETATM    8  C14 MIQ B 502      -4.147  -1.882  21.817  1.00138.77     0.033 A 
HETATM    9  C15 MIQ B 502      -2.848  -2.317  22.570  1.00142.10     0.195 A 
HETATM   10  N17 MIQ B 502      -2.973  -1.862  23.806  1.00139.42    -0.288 N 
HETATM   11  O16 MIQ B 502      -1.779  -3.042  22.042  1.00148.93    -0.171 OA
ENDROOT
BRANCH  10  12
HETATM   12  C18 MIQ B 502      -1.948  -2.096  24.806  1.00139.82     0.187 C 
HETATM   13  C19 MIQ B 502      -2.620  -2.746  26.021  1.00140.06     0.247 C 
HETATM   14  O25 MIQ B 502      -3.304  -3.693  25.863  1.00143.95    -0.271 OA
HETATM   15  N20 MIQ B 502      -2.433  -2.232  27.363  1.00140.02    -0.296 N 
HETATM   16  H13 MIQ B 502      -2.883  -2.662  28.147  1.00142.77     0.171 HD
HETATM   17  C21 MIQ B 502      -1.601  -1.068  27.530  1.00142.22     0.224 C 
HETATM   18  C22 MIQ B 502      -1.622  -0.049  26.407  1.00139.52     0.106 C 
HETATM   19  O24 MIQ B 502      -0.933  -0.920  28.493  1.00146.13    -0.273 OA
HETATM   20  C23 MIQ B 502      -1.227  -0.791  25.144  1.00139.15     0.045 C 
ENDBRANCH  10  12
BRANCH   5  21
HETATM   21  N6  MIQ B 502      -8.010  -0.241  20.692  1.00140.95    -0.377 N 
HETATM   22  C7  MIQ B 502      -9.116  -0.417  21.617  1.00142.12     0.149 C 
HETATM   23  C8  MIQ B 502     -10.462  -0.403  20.903  1.00144.10     0.187 C 
HETATM   24  O9  MIQ B 502     -10.593   0.663  20.011  1.00148.65    -0.388 OA
HETATM   25  C10 MIQ B 502      -9.488   1.452  19.684  1.00147.44     0.187 C 
HETATM   26  C11 MIQ B 502      -8.104   0.810  19.694  1.00144.08     0.149 C 
ENDBRANCH   5  21
TORSDOF 2
ENDMDL
MODEL 6
REMARK VINA RESULT:      -6.2      5.555      7.571
REMARK  2 active torsions:
REMARK  status: ('A' for Active; 'I' for Inactive)
REMARK    1  A    between atoms: C5_5  and  N6_21 
REMARK    2  A    between atoms: C18_14  and  N17_19 
ROOT
HETATM    1  O1  MIQ B 502      -0.436 -17.296   6.060  1.00142.91    -0.171 OA
HETATM    2  C2  MIQ B 502      -0.403 -16.473   7.187  1.00141.17     0.195 A 
HETATM    3  C3  MIQ B 502      -1.290 -16.620   8.464  1.00141.71     0.035 A 
HETATM    4  C4  MIQ B 502      -2.346 -17.580   8.865  1.00142.86     0.046 A 
HETATM    5  C5  MIQ B 502      -2.988 -17.455  10.123  1.00139.53     0.031 A 
HETATM    6  C12 MIQ B 502      -2.605 -16.378  11.025  1.00139.38     0.030 A 
HETATM    7  C13 MIQ B 502      -1.592 -15.458  10.641  1.00141.18     0.019 A 
HETATM    8  C14 MIQ B 502      -0.920 -15.596   9.320  1.00138.77     0.033 A 
HETATM    9  C15 MIQ B 502       0.203 -14.808   8.571  1.00142.10     0.195 A 
HETATM   10  N17 MIQ B 502       0.370 -15.423   7.412  1.00139.42    -0.288 N 
HETATM   11  O16 MIQ B 502       0.887 -13.683   9.035  1.00148.93    -0.171 OA
ENDROOT
BRANCH  10  12
HETATM   12  C18 MIQ B 502       1.335 -14.952   6.436  1.00139.82     0.187 C 
HETATM   13  C19 MIQ B 502       0.576 -14.642   5.140  1.00140.06     0.247 C 
HETATM   14  O25 MIQ B 502      -0.380 -13.952   5.182  1.00143.95    -0.271 OA
HETATM   15  N20 MIQ B 502       1.003 -15.169   3.860  1.00140.02    -0.296 N 
HETATM   16  H13 MIQ B 502       0.496 -14.965   3.022  1.00142.77     0.171 HD
HETATM   17  C21 MIQ B 502       2.167 -16.018   3.834  1.00142.22     0.224 C 
HETATM   18  C22 MIQ B 502       2.391 -16.903   5.045  1.00139.52     0.106 C 
HETATM   19  O24 MIQ B 502       2.912 -16.018   2.917  1.00146.13    -0.273 OA
HETATM   20  C23 MIQ B 502       2.448 -15.981   6.249  1.00139.15     0.045 C 
ENDBRANCH  10  12
BRANCH   5  21
HETATM   21  N6  MIQ B 502      -4.031 -18.392  10.497  1.00140.95    -0.377 N 
HETATM   22  C7  MIQ B 502      -3.724 -19.416  11.481  1.00142.12     0.149 C 
HETATM   23  C8  MIQ B 502      -4.600 -20.651  11.309  1.00144.10     0.187 C 
HETATM   24  O9  MIQ B 502      -5.954 -20.341  11.172  1.00148.65    -0.388 OA
HETATM   25  C10 MIQ B 502      -6.363 -19.018  10.985  1.00147.44     0.187 C 
HETATM   26  C11 MIQ B 502      -5.424 -18.062  10.256  1.00144.08     0.149 C 
ENDBRANCH   5  21
TORSDOF 2
ENDMDL
MODEL 7
REMARK VINA RESULT:      -6.2     11.879     14.818
REMARK  2 active torsions:
REMARK  status: ('A' for Active; 'I' for Inactive)
REMARK    1  A    between atoms: C5_5  and  N6_21 
REMARK    2  A    between atoms: C18_14  and  N17_19 
ROOT
HETATM    1  O1  MIQ B 502      -6.731 -21.559   7.866  1.00142.91    -0.171 OA
HETATM    2  C2  MIQ B 502      -7.349 -20.686   6.968  1.00141.17     0.195 A 
HETATM    3  C3  MIQ B 502      -8.158 -21.092   5.695  1.00141.71     0.035 A 
HETATM    4  C4  MIQ B 502      -8.506 -22.396   5.082  1.00142.86     0.046 A 
HETATM    5  C5  MIQ B 502      -9.276 -22.446   3.893  1.00139.53     0.031 A 
HETATM    6  C12 MIQ B 502      -9.727 -21.209   3.272  1.00139.38     0.030 A 
HETATM    7  C13 MIQ B 502      -9.395 -19.959   3.859  1.00141.18     0.019 A 
HETATM    8  C14 MIQ B 502      -8.588 -19.913   5.109  1.00138.77     0.033 A 
HETATM    9  C15 MIQ B 502      -8.044 -18.767   6.024  1.00142.10     0.195 A 
HETATM   10  N17 MIQ B 502      -7.385 -19.365   7.004  1.00139.42    -0.288 N 
HETATM   11  O16 MIQ B 502      -8.217 -17.395   5.838  1.00148.93    -0.171 OA
ENDROOT
BRANCH  10  12
HETATM   12  C18 MIQ B 502      -6.724 -18.602   8.047  1.00139.82     0.187 C 
HETATM   13  C19 MIQ B 502      -5.256 -19.046   8.091  1.00140.06     0.247 C 
HETATM   14  O25 MIQ B 502      -4.629 -19.062   7.092  1.00143.95    -0.271 OA
HETATM   15  N20 MIQ B 502      -4.615 -19.441   9.328  1.00140.02    -0.296 N 
HETATM   16  H13 MIQ B 502      -3.658 -19.735   9.342  1.00142.77     0.171 HD
HETATM   17  C21 MIQ B 502      -5.404 -19.423  10.532  1.00142.22     0.224 C 
HETATM   18  C22 MIQ B 502      -6.874 -19.764  10.389  1.00139.52     0.106 C 
HETATM   19  O24 MIQ B 502      -4.927 -19.151  11.579  1.00146.13    -0.273 OA
HETATM   20  C23 MIQ B 502      -7.447 -18.785   9.380  1.00139.15     0.045 C 
ENDBRANCH  10  12
BRANCH   5  21
HETATM   21  N6  MIQ B 502      -9.597 -23.729   3.295  1.00140.95    -0.377 N 
HETATM   22  C7  MIQ B 502      -8.725 -24.859   3.566  1.00142.12     0.149 C 
HETATM   23  C8  MIQ B 502      -8.766 -25.891   2.446  1.00144.10     0.187 C 
HETATM   24  O9  MIQ B 502     -10.067 -26.221   2.059  1.00148.65    -0.388 OA
HETATM   25  C10 MIQ B 502     -11.154 -25.475   2.523  1.00147.44     0.187 C 
HETATM   26  C11 MIQ B 502     -10.946 -23.995   2.828  1.00144.08     0.149 C 
ENDBRANCH   5  21
TORSDOF 2
ENDMDL
MODEL 8
REMARK VINA RESULT:      -6.1     20.089     22.727
REMARK  2 active torsions:
REMARK  status: ('A' for Active; 'I' for Inactive)
REMARK    1  A    between atoms: C5_5  and  N6_21 
REMARK    2  A    between atoms: C18_14  and  N17_19 
ROOT
HETATM    1  O1  MIQ B 502     -20.997  -3.549   8.409  1.00142.91    -0.171 OA
HETATM    2  C2  MIQ B 502     -20.111  -4.592   8.129  1.00141.17     0.195 A 
HETATM    3  C3  MIQ B 502     -20.492  -6.000   7.570  1.00141.71     0.035 A 
HETATM    4  C4  MIQ B 502     -21.778  -6.631   7.188  1.00142.86     0.046 A 
HETATM    5  C5  MIQ B 502     -21.805  -7.961   6.697  1.00139.53     0.031 A 
HETATM    6  C12 MIQ B 502     -20.563  -8.709   6.567  1.00139.38     0.030 A 
HETATM    7  C13 MIQ B 502     -19.330  -8.104   6.932  1.00141.18     0.019 A 
HETATM    8  C14 MIQ B 502     -19.307  -6.707   7.445  1.00138.77     0.033 A 
HETATM    9  C15 MIQ B 502     -18.185  -5.732   7.928  1.00142.10     0.195 A 
HETATM   10  N17 MIQ B 502     -18.797  -4.609   8.267  1.00139.42    -0.288 N 
HETATM   11  O16 MIQ B 502     -16.816  -5.998   7.990  1.00148.93    -0.171 OA
ENDROOT
BRANCH  10  12
HETATM   12  C18 MIQ B 502     -18.060  -3.471   8.784  1.00139.82     0.187 C 
HETATM   13  C19 MIQ B 502     -18.741  -3.022  10.082  1.00140.06     0.247 C 
HETATM   14  O25 MIQ B 502     -18.963  -3.821  10.922  1.00143.95    -0.271 OA
HETATM   15  N20 MIQ B 502     -19.117  -1.642  10.311  1.00140.02    -0.296 N 
HETATM   16  H13 MIQ B 502     -19.567  -1.363  11.160  1.00142.77     0.171 HD
HETATM   17  C21 MIQ B 502     -18.845  -0.688   9.267  1.00142.22     0.224 C 
HETATM   18  C22 MIQ B 502     -18.942  -1.193   7.840  1.00139.52     0.106 C 
HETATM   19  O24 MIQ B 502     -18.557   0.432   9.513  1.00146.13    -0.273 OA
HETATM   20  C23 MIQ B 502     -17.984  -2.365   7.732  1.00139.15     0.045 C 
ENDBRANCH  10  12
BRANCH   5  21
HETATM   21  N6  MIQ B 502     -23.073  -8.572   6.341  1.00140.95    -0.377 N 
HETATM   22  C7  MIQ B 502     -24.186  -7.707   5.990  1.00142.12     0.149 C 
HETATM   23  C8  MIQ B 502     -25.530  -8.367   6.271  1.00144.10     0.187 C 
HETATM   24  O9  MIQ B 502     -25.608  -9.671   5.777  1.00148.65    -0.388 OA
HETATM   25  C10 MIQ B 502     -24.465 -10.318   5.301  1.00147.44     0.187 C 
HETATM   26  C11 MIQ B 502     -23.115  -9.960   5.915  1.00144.08     0.149 C 
ENDBRANCH   5  21
TORSDOF 2
ENDMDL
MODEL 9
REMARK VINA RESULT:      -6.0      5.465      7.551
REMARK  2 active torsions:
REMARK  status: ('A' for Active; 'I' for Inactive)
REMARK    1  A    between atoms: C5_5  and  N6_21 
REMARK    2  A    between atoms: C18_14  and  N17_19 
ROOT
HETATM    1  O1  MIQ B 502       2.537 -13.321   9.197  1.00142.91    -0.171 OA
HETATM    2  C2  MIQ B 502       1.497 -13.356   8.266  1.00141.17     0.195 A 
HETATM    3  C3  MIQ B 502       1.424 -14.264   6.997  1.00141.71     0.035 A 
HETATM    4  C4  MIQ B 502       2.333 -15.283   6.420  1.00142.86     0.046 A 
HETATM    5  C5  MIQ B 502       1.983 -15.960   5.224  1.00139.53     0.031 A 
HETATM    6  C12 MIQ B 502       0.724 -15.651   4.561  1.00139.38     0.030 A 
HETATM    7  C13 MIQ B 502      -0.147 -14.675   5.114  1.00141.18     0.019 A 
HETATM    8  C14 MIQ B 502       0.224 -13.969   6.371  1.00138.77     0.033 A 
HETATM    9  C15 MIQ B 502      -0.453 -12.873   7.257  1.00142.10     0.195 A 
HETATM   10  N17 MIQ B 502       0.379 -12.651   8.262  1.00139.42    -0.288 N 
HETATM   11  O16 MIQ B 502      -1.683 -12.255   7.027  1.00148.93    -0.171 OA
ENDROOT
BRANCH  10  12
HETATM   12  C18 MIQ B 502       0.081 -11.669   9.288  1.00139.82     0.187 C 
HETATM   13  C19 MIQ B 502      -1.351 -11.922   9.776  1.00140.06     0.247 C 
HETATM   14  O25 MIQ B 502      -1.664 -13.011  10.104  1.00143.95    -0.271 OA
HETATM   15  N20 MIQ B 502      -2.331 -10.858   9.851  1.00140.02    -0.296 N 
HETATM   16  H13 MIQ B 502      -3.264 -11.037  10.165  1.00142.77     0.171 HD
HETATM   17  C21 MIQ B 502      -1.928  -9.539   9.434  1.00142.22     0.224 C 
HETATM   18  C22 MIQ B 502      -0.922  -9.460   8.303  1.00139.52     0.106 C 
HETATM   19  O24 MIQ B 502      -2.359  -8.569   9.954  1.00146.13    -0.273 OA
HETATM   20  C23 MIQ B 502       0.292 -10.255   8.748  1.00139.15     0.045 C 
ENDBRANCH  10  12
BRANCH   5  21
HETATM   21  N6  MIQ B 502       2.889 -16.945   4.662  1.00140.95    -0.377 N 
HETATM   22  C7  MIQ B 502       2.886 -17.150   3.224  1.00142.12     0.149 C 
HETATM   23  C8  MIQ B 502       3.341 -18.555   2.850  1.00144.10     0.187 C 
HETATM   24  O9  MIQ B 502       4.513 -18.940   3.505  1.00148.65    -0.388 OA
HETATM   25  C10 MIQ B 502       5.024 -18.168   4.551  1.00147.44     0.187 C 
HETATM   26  C11 MIQ B 502       4.050 -17.379   5.420  1.00144.08     0.149 C 
ENDBRANCH   5  21
TORSDOF 2
ENDMDL
