MODEL 1
REMARK VINA RESULT:      -7.2      0.000      0.000
REMARK  2 active torsions:
REMARK  status: ('A' for Active; 'I' for Inactive)
REMARK    1  A    between atoms: C5_5  and  N6_21 
REMARK    2  A    between atoms: C18_14  and  N17_19 
ROOT
HETATM    1  O1  MIQ B 502       6.162 -25.554  -9.585  1.00142.91    -0.171 OA
HETATM    2  C2  MIQ B 502       6.168 -24.584 -10.590  1.00141.17     0.195 A 
HETATM    3  C3  MIQ B 502       4.962 -23.685 -11.011  1.00141.71     0.035 A 
HETATM    4  C4  MIQ B 502       3.563 -23.569 -10.537  1.00142.86     0.046 A 
HETATM    5  C5  MIQ B 502       2.679 -22.633 -11.131  1.00139.53     0.031 A 
HETATM    6  C12 MIQ B 502       3.151 -21.781 -12.214  1.00139.38     0.030 A 
HETATM    7  C13 MIQ B 502       4.493 -21.892 -12.668  1.00141.18     0.019 A 
HETATM    8  C14 MIQ B 502       5.416 -22.875 -12.039  1.00138.77     0.033 A 
HETATM    9  C15 MIQ B 502       6.913 -23.272 -12.256  1.00142.10     0.195 A 
HETATM   10  N17 MIQ B 502       7.169 -24.226 -11.375  1.00139.42    -0.288 N 
HETATM   11  O16 MIQ B 502       7.794 -22.729 -13.192  1.00148.93    -0.171 OA
ENDROOT
BRANCH  10  12
HETATM   12  C18 MIQ B 502       8.475 -24.853 -11.297  1.00139.82     0.187 C 
HETATM   13  C19 MIQ B 502       8.267 -26.372 -11.345  1.00140.06     0.247 C 
HETATM   14  O25 MIQ B 502       7.606 -26.836 -12.205  1.00143.95    -0.271 OA
HETATM   15  N20 MIQ B 502       8.865 -27.256 -10.366  1.00140.02    -0.296 N 
HETATM   16  H13 MIQ B 502       8.717 -28.245 -10.404  1.00142.77     0.171 HD
HETATM   17  C21 MIQ B 502       9.660 -26.665  -9.320  1.00142.22     0.224 C 
HETATM   18  C22 MIQ B 502       9.230 -25.296  -8.829  1.00139.52     0.106 C 
HETATM   19  O24 MIQ B 502      10.602 -27.219  -8.871  1.00146.13    -0.273 OA
HETATM   20  C23 MIQ B 502       9.215 -24.387 -10.045  1.00139.15     0.045 C 
ENDBRANCH  10  12
BRANCH   5  21
HETATM   21  N6  MIQ B 502       1.307 -22.541 -10.667  1.00140.95    -0.377 N 
HETATM   22  C7  MIQ B 502       0.375 -21.713 -11.413  1.00142.12     0.149 C 
HETATM   23  C8  MIQ B 502      -0.754 -21.193 -10.533  1.00144.10     0.187 C 
HETATM   24  O9  MIQ B 502      -1.337 -22.192  -9.751  1.00148.65    -0.388 OA
HETATM   25  C10 MIQ B 502      -0.746 -23.454  -9.659  1.00147.44     0.187 C 
HETATM   26  C11 MIQ B 502       0.770 -23.561  -9.783  1.00144.08     0.149 C 
ENDBRANCH   5  21
TORSDOF 2
ENDMDL
MODEL 2
REMARK VINA RESULT:      -7.1      1.408      2.625
REMARK  2 active torsions:
REMARK  status: ('A' for Active; 'I' for Inactive)
REMARK    1  A    between atoms: C5_5  and  N6_21 
REMARK    2  A    between atoms: C18_14  and  N17_19 
ROOT
HETATM    1  O1  MIQ B 502       7.832 -23.301 -12.611  1.00142.91    -0.171 OA
HETATM    2  C2  MIQ B 502       7.138 -24.050 -11.658  1.00141.17     0.195 A 
HETATM    3  C3  MIQ B 502       5.673 -23.801 -11.178  1.00141.71     0.035 A 
HETATM    4  C4  MIQ B 502       4.641 -22.799 -11.533  1.00142.86     0.046 A 
HETATM    5  C5  MIQ B 502       3.367 -22.830 -10.910  1.00139.53     0.031 A 
HETATM    6  C12 MIQ B 502       3.074 -23.853  -9.916  1.00139.38     0.030 A 
HETATM    7  C13 MIQ B 502       4.064 -24.814  -9.576  1.00141.18     0.019 A 
HETATM    8  C14 MIQ B 502       5.398 -24.778 -10.235  1.00138.77     0.033 A 
HETATM    9  C15 MIQ B 502       6.699 -25.639 -10.130  1.00142.10     0.195 A 
HETATM   10  N17 MIQ B 502       7.559 -25.106 -10.982  1.00139.42    -0.288 N 
HETATM   11  O16 MIQ B 502       6.906 -26.744  -9.303  1.00148.93    -0.171 OA
ENDROOT
BRANCH  10  12
HETATM   12  C18 MIQ B 502       8.897 -25.643 -11.143  1.00139.82     0.187 C 
HETATM   13  C19 MIQ B 502       8.767 -27.143 -11.435  1.00140.06     0.247 C 
HETATM   14  O25 MIQ B 502       8.042 -27.502 -12.294  1.00143.95    -0.271 OA
HETATM   15  N20 MIQ B 502       9.515 -28.134 -10.689  1.00140.02    -0.296 N 
HETATM   16  H13 MIQ B 502       9.416 -29.111 -10.884  1.00142.77     0.171 HD
HETATM   17  C21 MIQ B 502      10.385 -27.672  -9.638  1.00142.22     0.224 C 
HETATM   18  C22 MIQ B 502       9.939 -26.439  -8.876  1.00139.52     0.106 C 
HETATM   19  O24 MIQ B 502      11.400 -28.225  -9.389  1.00146.13    -0.273 OA
HETATM   20  C23 MIQ B 502       9.743 -25.342  -9.907  1.00139.15     0.045 C 
ENDBRANCH  10  12
BRANCH   5  21
HETATM   21  N6  MIQ B 502       2.371 -21.834 -11.257  1.00140.95    -0.377 N 
HETATM   22  C7  MIQ B 502       1.414 -21.426 -10.243  1.00142.12     0.149 C 
HETATM   23  C8  MIQ B 502       0.111 -20.929 -10.857  1.00144.10     0.187 C 
HETATM   24  O9  MIQ B 502       0.313 -20.012 -11.890  1.00148.65    -0.388 OA
HETATM   25  C10 MIQ B 502       1.593 -19.800 -12.408  1.00147.44     0.187 C 
HETATM   26  C11 MIQ B 502       2.586 -20.957 -12.395  1.00144.08     0.149 C 
ENDBRANCH   5  21
TORSDOF 2
ENDMDL
MODEL 3
REMARK VINA RESULT:      -7.1      1.926      7.898
REMARK  2 active torsions:
REMARK  status: ('A' for Active; 'I' for Inactive)
REMARK    1  A    between atoms: C5_5  and  N6_21 
REMARK    2  A    between atoms: C18_14  and  N17_19 
ROOT
HETATM    1  O1  MIQ B 502       2.475 -24.831  -9.978  1.00142.91    -0.171 OA
HETATM    2  C2  MIQ B 502       3.148 -23.805 -10.644  1.00141.17     0.195 A 
HETATM    3  C3  MIQ B 502       4.693 -23.696 -10.850  1.00141.71     0.035 A 
HETATM    4  C4  MIQ B 502       5.836 -24.552 -10.454  1.00142.86     0.046 A 
HETATM    5  C5  MIQ B 502       7.161 -24.181 -10.795  1.00139.53     0.031 A 
HETATM    6  C12 MIQ B 502       7.399 -22.952 -11.539  1.00139.38     0.030 A 
HETATM    7  C13 MIQ B 502       6.303 -22.132 -11.920  1.00141.18     0.019 A 
HETATM    8  C14 MIQ B 502       4.913 -22.528 -11.561  1.00138.77     0.033 A 
HETATM    9  C15 MIQ B 502       3.498 -21.908 -11.799  1.00142.10     0.195 A 
HETATM   10  N17 MIQ B 502       2.636 -22.737 -11.233  1.00139.42    -0.288 N 
HETATM   11  O16 MIQ B 502       3.208 -20.719 -12.470  1.00148.93    -0.171 OA
ENDROOT
BRANCH  10  12
HETATM   12  C18 MIQ B 502       1.210 -22.471 -11.243  1.00139.82     0.187 C 
HETATM   13  C19 MIQ B 502       0.725 -22.462  -9.788  1.00140.06     0.247 C 
HETATM   14  O25 MIQ B 502       1.292 -21.796  -8.996  1.00143.95    -0.271 OA
HETATM   15  N20 MIQ B 502      -0.415 -23.245  -9.358  1.00140.02    -0.296 N 
HETATM   16  H13 MIQ B 502      -0.717 -23.236  -8.404  1.00142.77     0.171 HD
HETATM   17  C21 MIQ B 502      -1.084 -24.058 -10.341  1.00142.22     0.224 C 
HETATM   18  C22 MIQ B 502      -0.218 -24.657 -11.433  1.00139.52     0.106 C 
HETATM   19  O24 MIQ B 502      -2.250 -24.244 -10.299  1.00146.13    -0.273 OA
HETATM   20  C23 MIQ B 502       0.484 -23.496 -12.112  1.00139.15     0.045 C 
ENDBRANCH  10  12
BRANCH   5  21
HETATM   21  N6  MIQ B 502       8.273 -25.021 -10.388  1.00140.95    -0.377 N 
HETATM   22  C7  MIQ B 502       9.624 -24.521 -10.571  1.00142.12     0.149 C 
HETATM   23  C8  MIQ B 502      10.633 -25.652 -10.728  1.00144.10     0.187 C 
HETATM   24  O9  MIQ B 502      10.490 -26.646  -9.758  1.00148.65    -0.388 OA
HETATM   25  C10 MIQ B 502       9.376 -26.657  -8.914  1.00147.44     0.187 C 
HETATM   26  C11 MIQ B 502       8.057 -26.100  -9.439  1.00144.08     0.149 C 
ENDBRANCH   5  21
TORSDOF 2
ENDMDL
MODEL 4
REMARK VINA RESULT:      -7.0      2.130      8.295
REMARK  2 active torsions:
REMARK  status: ('A' for Active; 'I' for Inactive)
REMARK    1  A    between atoms: C5_5  and  N6_21 
REMARK    2  A    between atoms: C18_14  and  N17_19 
ROOT
HETATM    1  O1  MIQ B 502       6.466 -21.655 -12.855  1.00142.91    -0.171 OA
HETATM    2  C2  MIQ B 502       5.776 -22.503 -11.986  1.00141.17     0.195 A 
HETATM    3  C3  MIQ B 502       6.375 -23.725 -11.220  1.00141.71     0.035 A 
HETATM    4  C4  MIQ B 502       7.729 -24.327 -11.161  1.00142.86     0.046 A 
HETATM    5  C5  MIQ B 502       7.973 -25.465 -10.351  1.00139.53     0.031 A 
HETATM    6  C12 MIQ B 502       6.887 -26.044  -9.573  1.00139.38     0.030 A 
HETATM    7  C13 MIQ B 502       5.590 -25.467  -9.628  1.00141.18     0.019 A 
HETATM    8  C14 MIQ B 502       5.340 -24.271 -10.479  1.00138.77     0.033 A 
HETATM    9  C15 MIQ B 502       4.091 -23.382 -10.786  1.00142.10     0.195 A 
HETATM   10  N17 MIQ B 502       4.503 -22.452 -11.632  1.00139.42    -0.288 N 
HETATM   11  O16 MIQ B 502       2.804 -23.543 -10.271  1.00148.93    -0.171 OA
ENDROOT
BRANCH  10  12
HETATM   12  C18 MIQ B 502       3.596 -21.447 -12.154  1.00139.82     0.187 C 
HETATM   13  C19 MIQ B 502       2.941 -20.743 -10.959  1.00140.06     0.247 C 
HETATM   14  O25 MIQ B 502       3.623 -20.315 -10.098  1.00143.95    -0.271 OA
HETATM   15  N20 MIQ B 502       1.504 -20.583 -10.861  1.00140.02    -0.296 N 
HETATM   16  H13 MIQ B 502       1.088 -20.127 -10.073  1.00142.77     0.171 HD
HETATM   17  C21 MIQ B 502       0.692 -21.123 -11.921  1.00142.22     0.224 C 
HETATM   18  C22 MIQ B 502       1.192 -22.392 -12.584  1.00139.52     0.106 C 
HETATM   19  O24 MIQ B 502      -0.312 -20.598 -12.258  1.00146.13    -0.273 OA
HETATM   20  C23 MIQ B 502       2.585 -22.086 -13.104  1.00139.15     0.045 C 
ENDBRANCH  10  12
BRANCH   5  21
HETATM   21  N6  MIQ B 502       9.299 -26.053 -10.315  1.00140.95    -0.377 N 
HETATM   22  C7  MIQ B 502      10.433 -25.232 -10.704  1.00142.12     0.149 C 
HETATM   23  C8  MIQ B 502      11.588 -26.073 -11.234  1.00144.10     0.187 C 
HETATM   24  O9  MIQ B 502      11.892 -27.159 -10.411  1.00148.65    -0.388 OA
HETATM   25  C10 MIQ B 502      11.039 -27.512  -9.361  1.00147.44     0.187 C 
HETATM   26  C11 MIQ B 502       9.547 -27.236  -9.509  1.00144.08     0.149 C 
ENDBRANCH   5  21
TORSDOF 2
ENDMDL
MODEL 5
REMARK VINA RESULT:      -6.9      1.609      2.424
REMARK  2 active torsions:
REMARK  status: ('A' for Active; 'I' for Inactive)
REMARK    1  A    between atoms: C5_5  and  N6_21 
REMARK    2  A    between atoms: C18_14  and  N17_19 
ROOT
HETATM    1  O1  MIQ B 502       7.005 -21.820 -13.112  1.00142.91    -0.171 OA
HETATM    2  C2  MIQ B 502       6.753 -22.890 -12.250  1.00141.17     0.195 A 
HETATM    3  C3  MIQ B 502       5.409 -23.179 -11.509  1.00141.71     0.035 A 
HETATM    4  C4  MIQ B 502       4.095 -22.493 -11.477  1.00142.86     0.046 A 
HETATM    5  C5  MIQ B 502       3.036 -23.010 -10.688  1.00139.53     0.031 A 
HETATM    6  C12 MIQ B 502       3.242 -24.221  -9.906  1.00139.38     0.030 A 
HETATM    7  C13 MIQ B 502       4.501 -24.879  -9.937  1.00141.18     0.019 A 
HETATM    8  C14 MIQ B 502       5.608 -24.333 -10.769  1.00138.77     0.033 A 
HETATM    9  C15 MIQ B 502       7.084 -24.763 -11.053  1.00142.10     0.195 A 
HETATM   10  N17 MIQ B 502       7.572 -23.863 -11.890  1.00139.42    -0.288 N 
HETATM   11  O16 MIQ B 502       7.748 -25.872 -10.525  1.00148.93    -0.171 OA
ENDROOT
BRANCH  10  12
HETATM   12  C18 MIQ B 502       8.941 -23.935 -12.367  1.00139.82     0.187 C 
HETATM   13  C19 MIQ B 502       9.155 -25.330 -12.966  1.00140.06     0.247 C 
HETATM   14  O25 MIQ B 502       8.389 -25.738 -13.765  1.00143.95    -0.271 OA
HETATM   15  N20 MIQ B 502      10.277 -26.162 -12.582  1.00140.02    -0.296 N 
HETATM   16  H13 MIQ B 502      10.402 -27.074 -12.975  1.00142.77     0.171 HD
HETATM   17  C21 MIQ B 502      11.193 -25.647 -11.597  1.00142.22     0.224 C 
HETATM   18  C22 MIQ B 502      10.604 -24.757 -10.519  1.00139.52     0.106 C 
HETATM   19  O24 MIQ B 502      12.346 -25.903 -11.632  1.00146.13    -0.273 OA
HETATM   20  C23 MIQ B 502       9.915 -23.610 -11.235  1.00139.15     0.045 C 
ENDBRANCH  10  12
BRANCH   5  21
HETATM   21  N6  MIQ B 502       1.759 -22.321 -10.654  1.00140.95    -0.377 N 
HETATM   22  C7  MIQ B 502       1.305 -21.640 -11.855  1.00142.12     0.149 C 
HETATM   23  C8  MIQ B 502       0.366 -20.485 -11.534  1.00144.10     0.187 C 
HETATM   24  O9  MIQ B 502      -0.639 -20.837 -10.631  1.00148.65    -0.388 OA
HETATM   25  C10 MIQ B 502      -0.589 -22.059  -9.957  1.00147.44     0.187 C 
HETATM   26  C11 MIQ B 502       0.776 -22.663  -9.641  1.00144.08     0.149 C 
ENDBRANCH   5  21
TORSDOF 2
ENDMDL
MODEL 6
REMARK VINA RESULT:      -6.8      2.114      3.411
REMARK  2 active torsions:
REMARK  status: ('A' for Active; 'I' for Inactive)
REMARK    1  A    between atoms: C5_5  and  N6_21 
REMARK    2  A    between atoms: C18_14  and  N17_19 
ROOT
HETATM    1  O1  MIQ B 502       7.912 -22.906 -12.573  1.00142.91    -0.171 OA
HETATM    2  C2  MIQ B 502       7.247 -23.754 -11.684  1.00141.17     0.195 A 
HETATM    3  C3  MIQ B 502       5.759 -23.627 -11.227  1.00141.71     0.035 A 
HETATM    4  C4  MIQ B 502       4.672 -22.672 -11.550  1.00142.86     0.046 A 
HETATM    5  C5  MIQ B 502       3.390 -22.821 -10.962  1.00139.53     0.031 A 
HETATM    6  C12 MIQ B 502       3.141 -23.917 -10.037  1.00139.38     0.030 A 
HETATM    7  C13 MIQ B 502       4.183 -24.833  -9.728  1.00141.18     0.019 A 
HETATM    8  C14 MIQ B 502       5.526 -24.674 -10.350  1.00138.77     0.033 A 
HETATM    9  C15 MIQ B 502       6.877 -25.455 -10.263  1.00142.10     0.195 A 
HETATM   10  N17 MIQ B 502       7.720 -24.819 -11.060  1.00139.42    -0.288 N 
HETATM   11  O16 MIQ B 502       7.137 -26.592  -9.495  1.00148.93    -0.171 OA
ENDROOT
BRANCH  10  12
HETATM   12  C18 MIQ B 502       9.093 -25.260 -11.218  1.00139.82     0.187 C 
HETATM   13  C19 MIQ B 502      10.007 -24.087 -10.842  1.00140.06     0.247 C 
HETATM   14  O25 MIQ B 502       9.839 -23.531  -9.816  1.00143.95    -0.271 OA
HETATM   15  N20 MIQ B 502      11.078 -23.645 -11.712  1.00140.02    -0.296 N 
HETATM   16  H13 MIQ B 502      11.664 -22.874 -11.459  1.00142.77     0.171 HD
HETATM   17  C21 MIQ B 502      11.257 -24.333 -12.965  1.00142.22     0.224 C 
HETATM   18  C22 MIQ B 502      10.004 -24.857 -13.639  1.00139.52     0.106 C 
HETATM   19  O24 MIQ B 502      12.329 -24.485 -13.439  1.00146.13    -0.273 OA
HETATM   20  C23 MIQ B 502       9.326 -25.774 -12.637  1.00139.15     0.045 C 
ENDBRANCH  10  12
BRANCH   5  21
HETATM   21  N6  MIQ B 502       2.339 -21.870 -11.276  1.00140.95    -0.377 N 
HETATM   22  C7  MIQ B 502       1.357 -21.557 -10.251  1.00142.12     0.149 C 
HETATM   23  C8  MIQ B 502       0.030 -21.111 -10.852  1.00144.10     0.187 C 
HETATM   24  O9  MIQ B 502       0.182 -20.145 -11.849  1.00148.65    -0.388 OA
HETATM   25  C10 MIQ B 502       1.449 -19.841 -12.353  1.00147.44     0.187 C 
HETATM   26  C11 MIQ B 502       2.507 -20.940 -12.378  1.00144.08     0.149 C 
ENDBRANCH   5  21
TORSDOF 2
ENDMDL
MODEL 7
REMARK VINA RESULT:      -6.7      5.092      7.508
REMARK  2 active torsions:
REMARK  status: ('A' for Active; 'I' for Inactive)
REMARK    1  A    between atoms: C5_5  and  N6_21 
REMARK    2  A    between atoms: C18_14  and  N17_19 
ROOT
HETATM    1  O1  MIQ B 502      -0.947 -22.551  -8.842  1.00142.91    -0.171 OA
HETATM    2  C2  MIQ B 502      -0.348 -23.065  -9.995  1.00141.17     0.195 A 
HETATM    3  C3  MIQ B 502      -0.749 -24.382 -10.733  1.00141.71     0.035 A 
HETATM    4  C4  MIQ B 502      -1.785 -25.413 -10.488  1.00142.86     0.046 A 
HETATM    5  C5  MIQ B 502      -1.909 -26.525 -11.358  1.00139.53     0.031 A 
HETATM    6  C12 MIQ B 502      -1.013 -26.654 -12.498  1.00139.38     0.030 A 
HETATM    7  C13 MIQ B 502      -0.020 -25.666 -12.734  1.00141.18     0.019 A 
HETATM    8  C14 MIQ B 502       0.104 -24.499 -11.818  1.00138.77     0.033 A 
HETATM    9  C15 MIQ B 502       1.039 -23.247 -11.754  1.00142.10     0.195 A 
HETATM   10  N17 MIQ B 502       0.655 -22.559 -10.691  1.00139.42    -0.288 N 
HETATM   11  O16 MIQ B 502       2.070 -22.927 -12.639  1.00148.93    -0.171 OA
ENDROOT
BRANCH  10  12
HETATM   12  C18 MIQ B 502       1.318 -21.327 -10.306  1.00139.82     0.187 C 
HETATM   13  C19 MIQ B 502       1.160 -20.330 -11.461  1.00140.06     0.247 C 
HETATM   14  O25 MIQ B 502       0.087 -20.131 -11.908  1.00143.95    -0.271 OA
HETATM   15  N20 MIQ B 502       2.294 -19.620 -12.017  1.00140.02    -0.296 N 
HETATM   16  H13 MIQ B 502       2.178 -18.977 -12.775  1.00142.77     0.171 HD
HETATM   17  C21 MIQ B 502       3.595 -19.887 -11.462  1.00142.22     0.224 C 
HETATM   18  C22 MIQ B 502       3.850 -21.300 -10.973  1.00139.52     0.106 C 
HETATM   19  O24 MIQ B 502       4.421 -19.045 -11.388  1.00146.13    -0.273 OA
HETATM   20  C23 MIQ B 502       2.777 -21.600  -9.943  1.00139.15     0.045 C 
ENDBRANCH  10  12
BRANCH   5  21
HETATM   21  N6  MIQ B 502      -2.920 -27.534 -11.099  1.00140.95    -0.377 N 
HETATM   22  C7  MIQ B 502      -3.977 -27.231 -10.149  1.00142.12     0.149 C 
HETATM   23  C8  MIQ B 502      -4.538 -28.490  -9.501  1.00144.10     0.187 C 
HETATM   24  O9  MIQ B 502      -4.837 -29.491 -10.428  1.00148.65    -0.388 OA
HETATM   25  C10 MIQ B 502      -4.422 -29.372 -11.757  1.00147.44     0.187 C 
HETATM   26  C11 MIQ B 502      -3.136 -28.607 -12.054  1.00144.08     0.149 C 
ENDBRANCH   5  21
TORSDOF 2
ENDMDL
MODEL 8
REMARK VINA RESULT:      -6.6      1.616      2.402
REMARK  2 active torsions:
REMARK  status: ('A' for Active; 'I' for Inactive)
REMARK    1  A    between atoms: C5_5  and  N6_21 
REMARK    2  A    between atoms: C18_14  and  N17_19 
ROOT
HETATM    1  O1  MIQ B 502       5.813 -25.953  -9.749  1.00142.91    -0.171 OA
HETATM    2  C2  MIQ B 502       5.870 -24.808 -10.547  1.00141.17     0.195 A 
HETATM    3  C3  MIQ B 502       4.673 -23.866 -10.895  1.00141.71     0.035 A 
HETATM    4  C4  MIQ B 502       3.236 -23.868 -10.533  1.00142.86     0.046 A 
HETATM    5  C5  MIQ B 502       2.374 -22.851 -11.016  1.00139.53     0.031 A 
HETATM    6  C12 MIQ B 502       2.906 -21.798 -11.870  1.00139.38     0.030 A 
HETATM    7  C13 MIQ B 502       4.284 -21.795 -12.216  1.00141.18     0.019 A 
HETATM    8  C14 MIQ B 502       5.184 -22.865 -11.705  1.00138.77     0.033 A 
HETATM    9  C15 MIQ B 502       6.707 -23.187 -11.859  1.00142.10     0.195 A 
HETATM   10  N17 MIQ B 502       6.920 -24.287 -11.157  1.00139.42    -0.288 N 
HETATM   11  O16 MIQ B 502       7.644 -22.458 -12.593  1.00148.93    -0.171 OA
ENDROOT
BRANCH  10  12
HETATM   12  C18 MIQ B 502       8.236 -24.895 -11.084  1.00139.82     0.187 C 
HETATM   13  C19 MIQ B 502       9.221 -23.822 -10.606  1.00140.06     0.247 C 
HETATM   14  O25 MIQ B 502       8.969 -23.200  -9.636  1.00143.95    -0.271 OA
HETATM   15  N20 MIQ B 502      10.459 -23.554 -11.310  1.00140.02    -0.296 N 
HETATM   16  H13 MIQ B 502      11.091 -22.846 -10.991  1.00142.77     0.171 HD
HETATM   17  C21 MIQ B 502      10.739 -24.319 -12.497  1.00142.22     0.224 C 
HETATM   18  C22 MIQ B 502       9.548 -24.724 -13.344  1.00139.52     0.106 C 
HETATM   19  O24 MIQ B 502      11.843 -24.620 -12.792  1.00146.13    -0.273 OA
HETATM   20  C23 MIQ B 502       8.616 -25.503 -12.433  1.00139.15     0.045 C 
ENDBRANCH  10  12
BRANCH   5  21
HETATM   21  N6  MIQ B 502       0.966 -22.873 -10.666  1.00140.95    -0.377 N 
HETATM   22  C7  MIQ B 502       0.485 -23.927  -9.789  1.00142.12     0.149 C 
HETATM   23  C8  MIQ B 502      -0.992 -24.227 -10.016  1.00144.10     0.187 C 
HETATM   24  O9  MIQ B 502      -1.780 -23.075 -10.053  1.00148.65    -0.388 OA
HETATM   25  C10 MIQ B 502      -1.186 -21.812 -10.107  1.00147.44     0.187 C 
HETATM   26  C11 MIQ B 502       0.164 -21.670 -10.803  1.00144.08     0.149 C 
ENDBRANCH   5  21
TORSDOF 2
ENDMDL
MODEL 9
REMARK VINA RESULT:      -6.6      2.425      8.036
REMARK  2 active torsions:
REMARK  status: ('A' for Active; 'I' for Inactive)
REMARK    1  A    between atoms: C5_5  and  N6_21 
REMARK    2  A    between atoms: C18_14  and  N17_19 
ROOT
HETATM    1  O1  MIQ B 502       4.571 -24.957  -9.691  1.00142.91    -0.171 OA
HETATM    2  C2  MIQ B 502       4.480 -23.995 -10.699  1.00141.17     0.195 A 
HETATM    3  C3  MIQ B 502       5.647 -23.505 -11.614  1.00141.71     0.035 A 
HETATM    4  C4  MIQ B 502       7.083 -23.859 -11.712  1.00142.86     0.046 A 
HETATM    5  C5  MIQ B 502       7.914 -23.226 -12.671  1.00139.53     0.031 A 
HETATM    6  C12 MIQ B 502       7.351 -22.223 -13.565  1.00139.38     0.030 A 
HETATM    7  C13 MIQ B 502       5.975 -21.884 -13.472  1.00141.18     0.019 A 
HETATM    8  C14 MIQ B 502       5.107 -22.553 -12.464  1.00138.77     0.033 A 
HETATM    9  C15 MIQ B 502       3.596 -22.453 -12.075  1.00142.10     0.195 A 
HETATM   10  N17 MIQ B 502       3.415 -23.315 -11.088  1.00139.42    -0.288 N 
HETATM   11  O16 MIQ B 502       2.637 -21.619 -12.654  1.00148.93    -0.171 OA
ENDROOT
BRANCH  10  12
HETATM   12  C18 MIQ B 502       2.119 -23.482 -10.457  1.00139.82     0.187 C 
HETATM   13  C19 MIQ B 502       1.084 -23.705 -11.566  1.00140.06     0.247 C 
HETATM   14  O25 MIQ B 502       1.285 -24.530 -12.384  1.00143.95    -0.271 OA
HETATM   15  N20 MIQ B 502      -0.140 -22.933 -11.635  1.00140.02    -0.296 N 
HETATM   16  H13 MIQ B 502      -0.804 -23.083 -12.368  1.00142.77     0.171 HD
HETATM   17  C21 MIQ B 502      -0.358 -21.924 -10.630  1.00142.22     0.224 C 
HETATM   18  C22 MIQ B 502       0.872 -21.207 -10.107  1.00139.52     0.106 C 
HETATM   19  O24 MIQ B 502      -1.442 -21.673 -10.232  1.00146.13    -0.273 OA
HETATM   20  C23 MIQ B 502       1.801 -22.280  -9.569  1.00139.15     0.045 C 
ENDBRANCH  10  12
BRANCH   5  21
HETATM   21  N6  MIQ B 502       9.321 -23.572 -12.746  1.00140.95    -0.377 N 
HETATM   22  C7  MIQ B 502       9.880 -24.436 -11.720  1.00142.12     0.149 C 
HETATM   23  C8  MIQ B 502      11.373 -24.201 -11.531  1.00144.10     0.187 C 
HETATM   24  O9  MIQ B 502      12.076 -24.175 -12.736  1.00148.65    -0.388 OA
HETATM   25  C10 MIQ B 502      11.392 -24.137 -13.954  1.00147.44     0.187 C 
HETATM   26  C11 MIQ B 502      10.033 -23.447 -14.006  1.00144.08     0.149 C 
ENDBRANCH   5  21
TORSDOF 2
ENDMDL
