MODEL 1
REMARK VINA RESULT:      -6.5      0.000      0.000
REMARK  2 active torsions:
REMARK  status: ('A' for Active; 'I' for Inactive)
REMARK    1  A    between atoms: C5_5  and  N6_21 
REMARK    2  A    between atoms: C18_14  and  N17_19 
ROOT
HETATM    1  O1  MIQ B 502      -3.988 -16.330   8.177  1.00142.91    -0.171 OA
HETATM    2  C2  MIQ B 502      -3.599 -15.235   7.402  1.00141.17     0.195 A 
HETATM    3  C3  MIQ B 502      -2.847 -13.964   7.912  1.00141.71     0.035 A 
HETATM    4  C4  MIQ B 502      -2.345 -13.542   9.241  1.00142.86     0.046 A 
HETATM    5  C5  MIQ B 502      -1.682 -12.299   9.395  1.00139.53     0.031 A 
HETATM    6  C12 MIQ B 502      -1.492 -11.433   8.240  1.00139.38     0.030 A 
HETATM    7  C13 MIQ B 502      -1.972 -11.838   6.965  1.00141.18     0.019 A 
HETATM    8  C14 MIQ B 502      -2.666 -13.146   6.809  1.00138.77     0.033 A 
HETATM    9  C15 MIQ B 502      -3.308 -13.912   5.608  1.00142.10     0.195 A 
HETATM   10  N17 MIQ B 502      -3.775 -15.046   6.105  1.00139.42    -0.288 N 
HETATM   11  O16 MIQ B 502      -3.376 -13.482   4.282  1.00148.93    -0.171 OA
ENDROOT
BRANCH  10  12
HETATM   12  C18 MIQ B 502      -4.460 -16.015   5.270  1.00139.82     0.187 C 
HETATM   13  C19 MIQ B 502      -5.856 -16.239   5.863  1.00140.06     0.247 C 
HETATM   14  O25 MIQ B 502      -6.536 -15.306   6.103  1.00143.95    -0.271 OA
HETATM   15  N20 MIQ B 502      -6.368 -17.567   6.131  1.00140.02    -0.296 N 
HETATM   16  H13 MIQ B 502      -7.278 -17.700   6.524  1.00142.77     0.171 HD
HETATM   17  C21 MIQ B 502      -5.514 -18.690   5.839  1.00142.22     0.224 C 
HETATM   18  C22 MIQ B 502      -4.025 -18.482   6.031  1.00139.52     0.106 C 
HETATM   19  O24 MIQ B 502      -5.956 -19.720   5.463  1.00146.13    -0.273 OA
HETATM   20  C23 MIQ B 502      -3.639 -17.299   5.163  1.00139.15     0.045 C 
ENDBRANCH  10  12
BRANCH   5  21
HETATM   21  N6  MIQ B 502      -1.209 -11.891  10.706  1.00140.95    -0.377 N 
HETATM   22  C7  MIQ B 502      -0.569 -12.883  11.553  1.00142.12     0.149 C 
HETATM   23  C8  MIQ B 502      -0.713 -12.547  13.031  1.00144.10     0.187 C 
HETATM   24  O9  MIQ B 502      -0.393 -11.219  13.320  1.00148.65    -0.388 OA
HETATM   25  C10 MIQ B 502      -0.199 -10.297  12.289  1.00147.44     0.187 C 
HETATM   26  C11 MIQ B 502      -0.971 -10.486  10.987  1.00144.08     0.149 C 
ENDBRANCH   5  21
TORSDOF 2
ENDMDL
MODEL 2
REMARK VINA RESULT:      -6.4      4.626      9.030
REMARK  2 active torsions:
REMARK  status: ('A' for Active; 'I' for Inactive)
REMARK    1  A    between atoms: C5_5  and  N6_21 
REMARK    2  A    between atoms: C18_14  and  N17_19 
ROOT
HETATM    1  O1  MIQ B 502      -4.476 -13.259   3.550  1.00142.91    -0.171 OA
HETATM    2  C2  MIQ B 502      -3.286 -13.949   3.792  1.00141.17     0.195 A 
HETATM    3  C3  MIQ B 502      -2.451 -14.746   2.740  1.00141.71     0.035 A 
HETATM    4  C4  MIQ B 502      -2.620 -15.006   1.290  1.00142.86     0.046 A 
HETATM    5  C5  MIQ B 502      -1.669 -15.787   0.586  1.00139.53     0.031 A 
HETATM    6  C12 MIQ B 502      -0.520 -16.335   1.292  1.00139.38     0.030 A 
HETATM    7  C13 MIQ B 502      -0.357 -16.085   2.682  1.00141.18     0.019 A 
HETATM    8  C14 MIQ B 502      -1.358 -15.263   3.415  1.00138.77     0.033 A 
HETATM    9  C15 MIQ B 502      -1.514 -14.783   4.895  1.00142.10     0.195 A 
HETATM   10  N17 MIQ B 502      -2.627 -14.069   4.932  1.00139.42    -0.288 N 
HETATM   11  O16 MIQ B 502      -0.653 -15.059   5.958  1.00148.93    -0.171 OA
ENDROOT
BRANCH  10  12
HETATM   12  C18 MIQ B 502      -3.102 -13.470   6.165  1.00139.82     0.187 C 
HETATM   13  C19 MIQ B 502      -1.925 -12.723   6.806  1.00140.06     0.247 C 
HETATM   14  O25 MIQ B 502      -1.306 -11.958   6.155  1.00143.95    -0.271 OA
HETATM   15  N20 MIQ B 502      -1.556 -12.925   8.192  1.00140.02    -0.296 N 
HETATM   16  H13 MIQ B 502      -0.782 -12.436   8.596  1.00142.77     0.171 HD
HETATM   17  C21 MIQ B 502      -2.321 -13.871   8.962  1.00142.22     0.224 C 
HETATM   18  C22 MIQ B 502      -2.862 -15.077   8.219  1.00139.52     0.106 C 
HETATM   19  O24 MIQ B 502      -2.520 -13.710  10.116  1.00146.13    -0.273 OA
HETATM   20  C23 MIQ B 502      -3.704 -14.537   7.077  1.00139.15     0.045 C 
ENDBRANCH  10  12
BRANCH   5  21
HETATM   21  N6  MIQ B 502      -1.855 -16.046  -0.830  1.00140.95    -0.377 N 
HETATM   22  C7  MIQ B 502      -0.870 -16.860  -1.522  1.00142.12     0.149 C 
HETATM   23  C8  MIQ B 502      -0.804 -16.531  -3.008  1.00144.10     0.187 C 
HETATM   24  O9  MIQ B 502      -2.063 -16.477  -3.609  1.00148.65    -0.388 OA
HETATM   25  C10 MIQ B 502      -3.222 -16.497  -2.828  1.00147.44     0.187 C 
HETATM   26  C11 MIQ B 502      -3.169 -15.893  -1.429  1.00144.08     0.149 C 
ENDBRANCH   5  21
TORSDOF 2
ENDMDL
MODEL 3
REMARK VINA RESULT:      -6.4      3.580      4.498
REMARK  2 active torsions:
REMARK  status: ('A' for Active; 'I' for Inactive)
REMARK    1  A    between atoms: C5_5  and  N6_21 
REMARK    2  A    between atoms: C18_14  and  N17_19 
ROOT
HETATM    1  O1  MIQ B 502      -3.979 -13.535   3.584  1.00142.91    -0.171 OA
HETATM    2  C2  MIQ B 502      -2.758 -14.033   4.046  1.00141.17     0.195 A 
HETATM    3  C3  MIQ B 502      -2.086 -13.701   5.416  1.00141.71     0.035 A 
HETATM    4  C4  MIQ B 502      -2.475 -12.844   6.561  1.00142.86     0.046 A 
HETATM    5  C5  MIQ B 502      -1.635 -12.742   7.699  1.00139.53     0.031 A 
HETATM    6  C12 MIQ B 502      -0.384 -13.485   7.741  1.00139.38     0.030 A 
HETATM    7  C13 MIQ B 502      -0.010 -14.307   6.644  1.00141.18     0.019 A 
HETATM    8  C14 MIQ B 502      -0.898 -14.412   5.453  1.00138.77     0.033 A 
HETATM    9  C15 MIQ B 502      -0.832 -15.190   4.099  1.00142.10     0.195 A 
HETATM   10  N17 MIQ B 502      -1.935 -14.872   3.441  1.00139.42    -0.288 N 
HETATM   11  O16 MIQ B 502       0.187 -16.044   3.674  1.00148.93    -0.171 OA
ENDROOT
BRANCH  10  12
HETATM   12  C18 MIQ B 502      -2.209 -15.405   2.120  1.00139.82     0.187 C 
HETATM   13  C19 MIQ B 502      -2.110 -16.933   2.201  1.00140.06     0.247 C 
HETATM   14  O25 MIQ B 502      -2.712 -17.505   3.039  1.00143.95    -0.271 OA
HETATM   15  N20 MIQ B 502      -1.302 -17.696   1.272  1.00140.02    -0.296 N 
HETATM   16  H13 MIQ B 502      -1.241 -18.693   1.340  1.00142.77     0.171 HD
HETATM   17  C21 MIQ B 502      -0.569 -16.974   0.264  1.00142.22     0.224 C 
HETATM   18  C22 MIQ B 502      -0.050 -15.603   0.651  1.00139.52     0.106 C 
HETATM   19  O24 MIQ B 502      -0.387 -17.429  -0.812  1.00146.13    -0.273 OA
HETATM   20  C23 MIQ B 502      -1.256 -14.794   1.093  1.00139.15     0.045 C 
ENDBRANCH  10  12
BRANCH   5  21
HETATM   21  N6  MIQ B 502      -2.022 -11.888   8.806  1.00140.95    -0.377 N 
HETATM   22  C7  MIQ B 502      -1.708 -12.319  10.158  1.00142.12     0.149 C 
HETATM   23  C8  MIQ B 502      -2.674 -11.732  11.180  1.00144.10     0.187 C 
HETATM   24  O9  MIQ B 502      -2.865 -10.358  11.021  1.00148.65    -0.388 OA
HETATM   25  C10 MIQ B 502      -2.381  -9.703   9.886  1.00147.44     0.187 C 
HETATM   26  C11 MIQ B 502      -2.295 -10.480   8.576  1.00144.08     0.149 C 
ENDBRANCH   5  21
TORSDOF 2
ENDMDL
MODEL 4
REMARK VINA RESULT:      -6.4      2.001      7.938
REMARK  2 active torsions:
REMARK  status: ('A' for Active; 'I' for Inactive)
REMARK    1  A    between atoms: C5_5  and  N6_21 
REMARK    2  A    between atoms: C18_14  and  N17_19 
ROOT
HETATM    1  O1  MIQ B 502      -1.058 -13.418  10.442  1.00142.91    -0.171 OA
HETATM    2  C2  MIQ B 502      -1.650 -12.774   9.353  1.00141.17     0.195 A 
HETATM    3  C3  MIQ B 502      -2.600 -13.427   8.300  1.00141.71     0.035 A 
HETATM    4  C4  MIQ B 502      -3.137 -14.797   8.123  1.00142.86     0.046 A 
HETATM    5  C5  MIQ B 502      -4.004 -15.093   7.041  1.00139.53     0.031 A 
HETATM    6  C12 MIQ B 502      -4.368 -14.044   6.099  1.00139.38     0.030 A 
HETATM    7  C13 MIQ B 502      -3.855 -12.730   6.270  1.00141.18     0.019 A 
HETATM    8  C14 MIQ B 502      -2.947 -12.424   7.409  1.00138.77     0.033 A 
HETATM    9  C15 MIQ B 502      -2.208 -11.142   7.912  1.00142.10     0.195 A 
HETATM   10  N17 MIQ B 502      -1.540 -11.506   8.994  1.00139.42    -0.288 N 
HETATM   11  O16 MIQ B 502      -2.247  -9.873   7.332  1.00148.93    -0.171 OA
ENDROOT
BRANCH  10  12
HETATM   12  C18 MIQ B 502      -0.715 -10.564   9.728  1.00139.82     0.187 C 
HETATM   13  C19 MIQ B 502       0.655 -11.215   9.949  1.00140.06     0.247 C 
HETATM   14  O25 MIQ B 502       1.229 -11.677   9.028  1.00143.95    -0.271 OA
HETATM   15  N20 MIQ B 502       1.270 -11.275  11.260  1.00140.02    -0.296 N 
HETATM   16  H13 MIQ B 502       2.162 -11.708  11.392  1.00142.77     0.171 HD
HETATM   17  C21 MIQ B 502       0.546 -10.713  12.371  1.00142.22     0.224 C 
HETATM   18  C22 MIQ B 502      -0.966 -10.820  12.322  1.00139.52     0.106 C 
HETATM   19  O24 MIQ B 502       1.104 -10.190  13.272  1.00146.13    -0.273 OA
HETATM   20  C23 MIQ B 502      -1.404 -10.156  11.029  1.00139.15     0.045 C 
ENDBRANCH  10  12
BRANCH   5  21
HETATM   21  N6  MIQ B 502      -4.510 -16.443   6.871  1.00140.95    -0.377 N 
HETATM   22  C7  MIQ B 502      -4.406 -17.369   7.985  1.00142.12     0.149 C 
HETATM   23  C8  MIQ B 502      -4.350 -18.817   7.518  1.00144.10     0.187 C 
HETATM   24  O9  MIQ B 502      -5.337 -19.123   6.578  1.00148.65    -0.388 OA
HETATM   25  C10 MIQ B 502      -6.102 -18.107   5.999  1.00147.44     0.187 C 
HETATM   26  C11 MIQ B 502      -5.472 -16.730   5.822  1.00144.08     0.149 C 
ENDBRANCH   5  21
TORSDOF 2
ENDMDL
MODEL 5
REMARK VINA RESULT:      -6.3      4.109      7.256
REMARK  2 active torsions:
REMARK  status: ('A' for Active; 'I' for Inactive)
REMARK    1  A    between atoms: C5_5  and  N6_21 
REMARK    2  A    between atoms: C18_14  and  N17_19 
ROOT
HETATM    1  O1  MIQ B 502      -2.155 -12.262  11.595  1.00142.91    -0.171 OA
HETATM    2  C2  MIQ B 502      -0.946 -11.614  11.860  1.00141.17     0.195 A 
HETATM    3  C3  MIQ B 502      -0.276 -11.449  13.261  1.00141.71     0.035 A 
HETATM    4  C4  MIQ B 502      -0.653 -11.880  14.628  1.00142.86     0.046 A 
HETATM    5  C5  MIQ B 502       0.184 -11.575  15.731  1.00139.53     0.031 A 
HETATM    6  C12 MIQ B 502       1.419 -10.836  15.519  1.00139.38     0.030 A 
HETATM    7  C13 MIQ B 502       1.782 -10.423  14.208  1.00141.18     0.019 A 
HETATM    8  C14 MIQ B 502       0.901 -10.748  13.053  1.00138.77     0.033 A 
HETATM    9  C15 MIQ B 502       0.962 -10.477  11.514  1.00142.10     0.195 A 
HETATM   10  N17 MIQ B 502      -0.130 -11.022  11.004  1.00139.42    -0.288 N 
HETATM   11  O16 MIQ B 502       1.966  -9.795  10.825  1.00148.93    -0.171 OA
ENDROOT
BRANCH  10  12
HETATM   12  C18 MIQ B 502      -0.420 -10.951   9.584  1.00139.82     0.187 C 
HETATM   13  C19 MIQ B 502      -1.863 -10.455   9.425  1.00140.06     0.247 C 
HETATM   14  O25 MIQ B 502      -2.202  -9.478   9.994  1.00143.95    -0.271 OA
HETATM   15  N20 MIQ B 502      -2.822 -11.150   8.591  1.00140.02    -0.296 N 
HETATM   16  H13 MIQ B 502      -3.762 -10.820   8.501  1.00142.77     0.171 HD
HETATM   17  C21 MIQ B 502      -2.387 -12.345   7.916  1.00142.22     0.224 C 
HETATM   18  C22 MIQ B 502      -1.365 -13.202   8.638  1.00139.52     0.106 C 
HETATM   19  O24 MIQ B 502      -2.803 -12.639   6.849  1.00146.13    -0.273 OA
HETATM   20  C23 MIQ B 502      -0.174 -12.306   8.922  1.00139.15     0.045 C 
ENDBRANCH  10  12
BRANCH   5  21
HETATM   21  N6  MIQ B 502      -0.205 -11.990  17.067  1.00140.95    -0.377 N 
HETATM   22  C7  MIQ B 502      -0.921 -11.046  17.907  1.00142.12     0.149 C 
HETATM   23  C8  MIQ B 502      -0.699 -11.321  19.389  1.00144.10     0.187 C 
HETATM   24  O9  MIQ B 502      -0.870 -12.665  19.723  1.00148.65    -0.388 OA
HETATM   25  C10 MIQ B 502      -0.995 -13.633  18.723  1.00147.44     0.187 C 
HETATM   26  C11 MIQ B 502      -0.286 -13.403  17.393  1.00144.08     0.149 C 
ENDBRANCH   5  21
TORSDOF 2
ENDMDL
MODEL 6
REMARK VINA RESULT:      -6.3     16.000     18.689
REMARK  2 active torsions:
REMARK  status: ('A' for Active; 'I' for Inactive)
REMARK    1  A    between atoms: C5_5  and  N6_21 
REMARK    2  A    between atoms: C18_14  and  N17_19 
ROOT
HETATM    1  O1  MIQ B 502     -12.069  -6.423  21.038  1.00142.91    -0.171 OA
HETATM    2  C2  MIQ B 502     -12.633  -6.362  19.762  1.00141.17     0.195 A 
HETATM    3  C3  MIQ B 502     -14.080  -6.804  19.372  1.00141.71     0.035 A 
HETATM    4  C4  MIQ B 502     -15.215  -7.370  20.139  1.00142.86     0.046 A 
HETATM    5  C5  MIQ B 502     -16.437  -7.676  19.490  1.00139.53     0.031 A 
HETATM    6  C12 MIQ B 502     -16.578  -7.432  18.062  1.00139.38     0.030 A 
HETATM    7  C13 MIQ B 502     -15.491  -6.888  17.326  1.00141.18     0.019 A 
HETATM    8  C14 MIQ B 502     -14.210  -6.567  18.013  1.00138.77     0.033 A 
HETATM    9  C15 MIQ B 502     -12.837  -5.974  17.557  1.00142.10     0.195 A 
HETATM   10  N17 MIQ B 502     -12.082  -5.925  18.643  1.00139.42    -0.288 N 
HETATM   11  O16 MIQ B 502     -12.484  -5.581  16.265  1.00148.93    -0.171 OA
ENDROOT
BRANCH  10  12
HETATM   12  C18 MIQ B 502     -10.717  -5.437  18.594  1.00139.82     0.187 C 
HETATM   13  C19 MIQ B 502      -9.788  -6.653  18.492  1.00140.06     0.247 C 
HETATM   14  O25 MIQ B 502      -9.994  -7.468  17.664  1.00143.95    -0.271 OA
HETATM   15  N20 MIQ B 502      -8.659  -6.829  19.383  1.00140.02    -0.296 N 
HETATM   16  H13 MIQ B 502      -8.064  -7.631  19.310  1.00142.77     0.171 HD
HETATM   17  C21 MIQ B 502      -8.434  -5.827  20.392  1.00142.22     0.224 C 
HETATM   18  C22 MIQ B 502      -9.665  -5.160  20.976  1.00139.52     0.106 C 
HETATM   19  O24 MIQ B 502      -7.343  -5.537  20.743  1.00146.13    -0.273 OA
HETATM   20  C23 MIQ B 502     -10.423  -4.557  19.808  1.00139.15     0.045 C 
ENDBRANCH  10  12
BRANCH   5  21
HETATM   21  N6  MIQ B 502     -17.535  -8.243  20.252  1.00140.95    -0.377 N 
HETATM   22  C7  MIQ B 502     -18.841  -8.337  19.622  1.00142.12     0.149 C 
HETATM   23  C8  MIQ B 502     -19.969  -8.318  20.647  1.00144.10     0.187 C 
HETATM   24  O9  MIQ B 502     -19.753  -9.199  21.709  1.00148.65    -0.388 OA
HETATM   25  C10 MIQ B 502     -18.513  -9.821  21.871  1.00147.44     0.187 C 
HETATM   26  C11 MIQ B 502     -17.261  -9.086  21.402  1.00144.08     0.149 C 
ENDBRANCH   5  21
TORSDOF 2
ENDMDL
MODEL 7
REMARK VINA RESULT:      -6.2      3.748      8.158
REMARK  2 active torsions:
REMARK  status: ('A' for Active; 'I' for Inactive)
REMARK    1  A    between atoms: C5_5  and  N6_21 
REMARK    2  A    between atoms: C18_14  and  N17_19 
ROOT
HETATM    1  O1  MIQ B 502       0.705 -15.157   7.033  1.00142.91    -0.171 OA
HETATM    2  C2  MIQ B 502      -0.457 -14.557   6.542  1.00141.17     0.195 A 
HETATM    3  C3  MIQ B 502      -1.009 -14.670   5.086  1.00141.71     0.035 A 
HETATM    4  C4  MIQ B 502      -0.539 -15.375   3.870  1.00142.86     0.046 A 
HETATM    5  C5  MIQ B 502      -1.275 -15.288   2.661  1.00139.53     0.031 A 
HETATM    6  C12 MIQ B 502      -2.499 -14.502   2.616  1.00139.38     0.030 A 
HETATM    7  C13 MIQ B 502      -2.951 -13.826   3.781  1.00141.18     0.019 A 
HETATM    8  C14 MIQ B 502      -2.175 -13.923   5.048  1.00138.77     0.033 A 
HETATM    9  C15 MIQ B 502      -2.349 -13.345   6.490  1.00142.10     0.195 A 
HETATM   10  N17 MIQ B 502      -1.319 -13.791   7.190  1.00139.42    -0.288 N 
HETATM   11  O16 MIQ B 502      -3.382 -12.521   6.942  1.00148.93    -0.171 OA
ENDROOT
BRANCH  10  12
HETATM   12  C18 MIQ B 502      -1.140 -13.438   8.585  1.00139.82     0.187 C 
HETATM   13  C19 MIQ B 502      -2.391 -13.894   9.347  1.00140.06     0.247 C 
HETATM   14  O25 MIQ B 502      -2.770 -15.003   9.219  1.00143.95    -0.271 OA
HETATM   15  N20 MIQ B 502      -3.118 -13.001  10.226  1.00140.02    -0.296 N 
HETATM   16  H13 MIQ B 502      -3.937 -13.309  10.712  1.00142.77     0.171 HD
HETATM   17  C21 MIQ B 502      -2.641 -11.648  10.358  1.00142.22     0.224 C 
HETATM   18  C22 MIQ B 502      -2.007 -11.027   9.128  1.00139.52     0.106 C 
HETATM   19  O24 MIQ B 502      -2.736 -11.056  11.376  1.00146.13    -0.273 OA
HETATM   20  C23 MIQ B 502      -0.865 -11.941   8.724  1.00139.15     0.045 C 
ENDBRANCH  10  12
BRANCH   5  21
HETATM   21  N6  MIQ B 502      -0.795 -15.972   1.474  1.00140.95    -0.377 N 
HETATM   22  C7  MIQ B 502       0.006 -17.173   1.640  1.00142.12     0.149 C 
HETATM   23  C8  MIQ B 502       0.940 -17.401   0.459  1.00144.10     0.187 C 
HETATM   24  O9  MIQ B 502       0.297 -17.278  -0.775  1.00148.65    -0.388 OA
HETATM   25  C10 MIQ B 502      -1.001 -16.767  -0.848  1.00147.44     0.187 C 
HETATM   26  C11 MIQ B 502      -1.443 -15.745   0.194  1.00144.08     0.149 C 
ENDBRANCH   5  21
TORSDOF 2
ENDMDL
MODEL 8
REMARK VINA RESULT:      -6.2     17.716     19.339
REMARK  2 active torsions:
REMARK  status: ('A' for Active; 'I' for Inactive)
REMARK    1  A    between atoms: C5_5  and  N6_21 
REMARK    2  A    between atoms: C18_14  and  N17_19 
ROOT
HETATM    1  O1  MIQ B 502     -15.914  -8.935  22.335  1.00142.91    -0.171 OA
HETATM    2  C2  MIQ B 502     -16.318  -8.443  21.092  1.00141.17     0.195 A 
HETATM    3  C3  MIQ B 502     -15.404  -7.739  20.038  1.00141.71     0.035 A 
HETATM    4  C4  MIQ B 502     -13.963  -7.397  20.006  1.00142.86     0.046 A 
HETATM    5  C5  MIQ B 502     -13.407  -6.741  18.879  1.00139.53     0.031 A 
HETATM    6  C12 MIQ B 502     -14.258  -6.403  17.747  1.00139.38     0.030 A 
HETATM    7  C13 MIQ B 502     -15.640  -6.731  17.777  1.00141.18     0.019 A 
HETATM    8  C14 MIQ B 502     -16.218  -7.422  18.963  1.00138.77     0.033 A 
HETATM    9  C15 MIQ B 502     -17.644  -7.933  19.350  1.00142.10     0.195 A 
HETATM   10  N17 MIQ B 502     -17.524  -8.472  20.552  1.00139.42    -0.288 N 
HETATM   11  O16 MIQ B 502     -18.804  -7.835  18.581  1.00148.93    -0.171 OA
ENDROOT
BRANCH  10  12
HETATM   12  C18 MIQ B 502     -18.666  -9.043  21.243  1.00139.82     0.187 C 
HETATM   13  C19 MIQ B 502     -18.757  -8.379  22.623  1.00140.06     0.247 C 
HETATM   14  O25 MIQ B 502     -18.740  -7.202  22.698  1.00143.95    -0.271 OA
HETATM   15  N20 MIQ B 502     -18.869  -9.158  23.839  1.00140.02    -0.296 N 
HETATM   16  H13 MIQ B 502     -18.921  -8.712  24.734  1.00142.77     0.171 HD
HETATM   17  C21 MIQ B 502     -18.877 -10.593  23.723  1.00142.22     0.224 C 
HETATM   18  C22 MIQ B 502     -18.043 -11.191  22.606  1.00139.52     0.106 C 
HETATM   19  O24 MIQ B 502     -19.507 -11.269  24.459  1.00146.13    -0.273 OA
HETATM   20  C23 MIQ B 502     -18.538 -10.564  21.315  1.00139.15     0.045 C 
ENDBRANCH  10  12
BRANCH   5  21
HETATM   21  N6  MIQ B 502     -11.996  -6.399  18.867  1.00140.95    -0.377 N 
HETATM   22  C7  MIQ B 502     -11.268  -6.497  17.614  1.00142.12     0.149 C 
HETATM   23  C8  MIQ B 502      -9.782  -6.749  17.837  1.00144.10     0.187 C 
HETATM   24  O9  MIQ B 502      -9.223  -5.892  18.787  1.00148.65    -0.388 OA
HETATM   25  C10 MIQ B 502     -10.041  -5.079  19.576  1.00147.44     0.187 C 
HETATM   26  C11 MIQ B 502     -11.441  -5.573  19.925  1.00144.08     0.149 C 
ENDBRANCH   5  21
TORSDOF 2
ENDMDL
MODEL 9
REMARK VINA RESULT:      -6.2     15.931     17.769
REMARK  2 active torsions:
REMARK  status: ('A' for Active; 'I' for Inactive)
REMARK    1  A    between atoms: C5_5  and  N6_21 
REMARK    2  A    between atoms: C18_14  and  N17_19 
ROOT
HETATM    1  O1  MIQ B 502     -13.698  -5.893  21.401  1.00142.91    -0.171 OA
HETATM    2  C2  MIQ B 502     -12.773  -5.903  20.354  1.00141.17     0.195 A 
HETATM    3  C3  MIQ B 502     -11.219  -5.845  20.496  1.00141.71     0.035 A 
HETATM    4  C4  MIQ B 502     -10.304  -5.772  21.660  1.00142.86     0.046 A 
HETATM    5  C5  MIQ B 502      -8.900  -5.733  21.466  1.00139.53     0.031 A 
HETATM    6  C12 MIQ B 502      -8.355  -5.766  20.117  1.00139.38     0.030 A 
HETATM    7  C13 MIQ B 502      -9.232  -5.837  19.001  1.00141.18     0.019 A 
HETATM    8  C14 MIQ B 502     -10.705  -5.879  19.210  1.00138.77     0.033 A 
HETATM    9  C15 MIQ B 502     -11.947  -5.960  18.264  1.00142.10     0.195 A 
HETATM   10  N17 MIQ B 502     -13.008  -5.966  19.054  1.00139.42    -0.288 N 
HETATM   11  O16 MIQ B 502     -11.934  -6.011  16.869  1.00148.93    -0.171 OA
ENDROOT
BRANCH  10  12
HETATM   12  C18 MIQ B 502     -14.354  -6.018  18.515  1.00139.82     0.187 C 
HETATM   13  C19 MIQ B 502     -15.195  -4.970  19.254  1.00140.06     0.247 C 
HETATM   14  O25 MIQ B 502     -14.795  -3.863  19.333  1.00143.95    -0.271 OA
HETATM   15  N20 MIQ B 502     -16.472  -5.299  19.853  1.00140.02    -0.296 N 
HETATM   16  H13 MIQ B 502     -17.008  -4.606  20.338  1.00142.77     0.171 HD
HETATM   17  C21 MIQ B 502     -16.934  -6.659  19.752  1.00142.22     0.224 C 
HETATM   18  C22 MIQ B 502     -15.873  -7.742  19.772  1.00139.52     0.106 C 
HETATM   19  O24 MIQ B 502     -18.083  -6.915  19.653  1.00146.13    -0.273 OA
HETATM   20  C23 MIQ B 502     -14.919  -7.433  18.632  1.00139.15     0.045 C 
ENDBRANCH  10  12
BRANCH   5  21
HETATM   21  N6  MIQ B 502      -8.016  -5.647  22.615  1.00140.95    -0.377 N 
HETATM   22  C7  MIQ B 502      -6.603  -5.401  22.386  1.00142.12     0.149 C 
HETATM   23  C8  MIQ B 502      -5.739  -5.957  23.511  1.00144.10     0.187 C 
HETATM   24  O9  MIQ B 502      -6.209  -5.610  24.780  1.00148.65    -0.388 OA
HETATM   25  C10 MIQ B 502      -7.465  -5.018  24.931  1.00147.44     0.187 C 
HETATM   26  C11 MIQ B 502      -8.562  -5.368  23.931  1.00144.08     0.149 C 
ENDBRANCH   5  21
TORSDOF 2
ENDMDL
