MODEL 1
REMARK VINA RESULT:      -7.1      0.000      0.000
REMARK  2 active torsions:
REMARK  status: ('A' for Active; 'I' for Inactive)
REMARK    1  A    between atoms: C5_5  and  N6_21 
REMARK    2  A    between atoms: C18_14  and  N17_19 
ROOT
HETATM    1  O1  MIQ B 502       0.413  10.140 -16.459  1.00142.91    -0.171 OA
HETATM    2  C2  MIQ B 502       0.753   8.924 -15.862  1.00141.17     0.195 A 
HETATM    3  C3  MIQ B 502       2.170   8.512 -15.351  1.00141.71     0.035 A 
HETATM    4  C4  MIQ B 502       3.484   9.197 -15.327  1.00142.86     0.046 A 
HETATM    5  C5  MIQ B 502       4.621   8.549 -14.781  1.00139.53     0.031 A 
HETATM    6  C12 MIQ B 502       4.495   7.203 -14.242  1.00139.38     0.030 A 
HETATM    7  C13 MIQ B 502       3.236   6.545 -14.264  1.00141.18     0.019 A 
HETATM    8  C14 MIQ B 502       2.045   7.232 -14.836  1.00138.77     0.033 A 
HETATM    9  C15 MIQ B 502       0.542   6.848 -15.027  1.00142.10     0.195 A 
HETATM   10  N17 MIQ B 502      -0.031   7.892 -15.605  1.00139.42    -0.288 N 
HETATM   11  O16 MIQ B 502      -0.067   5.645 -14.664  1.00148.93    -0.171 OA
ENDROOT
BRANCH  10  12
HETATM   12  C18 MIQ B 502      -1.440   7.886 -15.952  1.00139.82     0.187 C 
HETATM   13  C19 MIQ B 502      -2.214   7.313 -14.759  1.00140.06     0.247 C 
HETATM   14  O25 MIQ B 502      -2.027   7.760 -13.683  1.00143.95    -0.271 OA
HETATM   15  N20 MIQ B 502      -3.174   6.240 -14.915  1.00140.02    -0.296 N 
HETATM   16  H13 MIQ B 502      -3.668   5.870 -14.127  1.00142.77     0.171 HD
HETATM   17  C21 MIQ B 502      -3.377   5.704 -16.237  1.00142.22     0.224 C 
HETATM   18  C22 MIQ B 502      -2.169   5.677 -17.154  1.00139.52     0.106 C 
HETATM   19  O24 MIQ B 502      -4.434   5.310 -16.588  1.00146.13    -0.273 OA
HETATM   20  C23 MIQ B 502      -1.666   7.106 -17.246  1.00139.15     0.045 C 
ENDBRANCH  10  12
BRANCH   5  21
HETATM   21  N6  MIQ B 502       5.905   9.227 -14.778  1.00140.95    -0.377 N 
HETATM   22  C7  MIQ B 502       5.930  10.665 -14.577  1.00142.12     0.149 C 
HETATM   23  C8  MIQ B 502       7.157  11.307 -15.213  1.00144.10     0.187 C 
HETATM   24  O9  MIQ B 502       8.343  10.639 -14.901  1.00148.65    -0.388 OA
HETATM   25  C10 MIQ B 502       8.308   9.394 -14.267  1.00147.44     0.187 C 
HETATM   26  C11 MIQ B 502       7.122   8.473 -14.532  1.00144.08     0.149 C 
ENDBRANCH   5  21
TORSDOF 2
ENDMDL
MODEL 2
REMARK VINA RESULT:      -7.0      2.925      8.398
REMARK  2 active torsions:
REMARK  status: ('A' for Active; 'I' for Inactive)
REMARK    1  A    between atoms: C5_5  and  N6_21 
REMARK    2  A    between atoms: C18_14  and  N17_19 
ROOT
HETATM    1  O1  MIQ B 502       4.485  11.653 -14.705  1.00142.91    -0.171 OA
HETATM    2  C2  MIQ B 502       4.665  10.275 -14.842  1.00141.17     0.195 A 
HETATM    3  C3  MIQ B 502       3.626   9.168 -14.473  1.00141.71     0.035 A 
HETATM    4  C4  MIQ B 502       2.252   9.204 -13.920  1.00142.86     0.046 A 
HETATM    5  C5  MIQ B 502       1.540   8.000 -13.689  1.00139.53     0.031 A 
HETATM    6  C12 MIQ B 502       2.164   6.722 -13.998  1.00139.38     0.030 A 
HETATM    7  C13 MIQ B 502       3.482   6.687 -14.529  1.00141.18     0.019 A 
HETATM    8  C14 MIQ B 502       4.223   7.954 -14.772  1.00138.77     0.033 A 
HETATM    9  C15 MIQ B 502       5.640   8.309 -15.330  1.00142.10     0.195 A 
HETATM   10  N17 MIQ B 502       5.722   9.629 -15.304  1.00139.42    -0.288 N 
HETATM   11  O16 MIQ B 502       6.616   7.411 -15.764  1.00148.93    -0.171 OA
ENDROOT
BRANCH  10  12
HETATM   12  C18 MIQ B 502       6.920  10.322 -15.741  1.00139.82     0.187 C 
HETATM   13  C19 MIQ B 502       7.201   9.903 -17.189  1.00140.06     0.247 C 
HETATM   14  O25 MIQ B 502       6.335   9.974 -17.987  1.00143.95    -0.271 OA
HETATM   15  N20 MIQ B 502       8.503   9.427 -17.607  1.00140.02    -0.296 N 
HETATM   16  H13 MIQ B 502       8.672   9.150 -18.554  1.00142.77     0.171 HD
HETATM   17  C21 MIQ B 502       9.541   9.339 -16.612  1.00142.22     0.224 C 
HETATM   18  C22 MIQ B 502       9.106   8.984 -15.204  1.00139.52     0.106 C 
HETATM   19  O24 MIQ B 502      10.674   9.540 -16.882  1.00146.13    -0.273 OA
HETATM   20  C23 MIQ B 502       8.081  10.026 -14.793  1.00139.15     0.045 C 
ENDBRANCH  10  12
BRANCH   5  21
HETATM   21  N6  MIQ B 502       0.201   8.050 -13.132  1.00140.95    -0.377 N 
HETATM   22  C7  MIQ B 502      -0.648   9.182 -13.464  1.00142.12     0.149 C 
HETATM   23  C8  MIQ B 502      -1.686   9.450 -12.382  1.00144.10     0.187 C 
HETATM   24  O9  MIQ B 502      -2.362   8.296 -11.979  1.00148.65    -0.388 OA
HETATM   25  C10 MIQ B 502      -1.919   7.037 -12.391  1.00147.44     0.187 C 
HETATM   26  C11 MIQ B 502      -0.429   6.834 -12.646  1.00144.08     0.149 C 
ENDBRANCH   5  21
TORSDOF 2
ENDMDL
MODEL 3
REMARK VINA RESULT:      -6.7      3.222      9.214
REMARK  2 active torsions:
REMARK  status: ('A' for Active; 'I' for Inactive)
REMARK    1  A    between atoms: C5_5  and  N6_21 
REMARK    2  A    between atoms: C18_14  and  N17_19 
ROOT
HETATM    1  O1  MIQ B 502       5.255  10.755 -18.232  1.00142.91    -0.171 OA
HETATM    2  C2  MIQ B 502       6.057   9.964 -17.407  1.00141.17     0.195 A 
HETATM    3  C3  MIQ B 502       5.556   8.978 -16.304  1.00141.71     0.035 A 
HETATM    4  C4  MIQ B 502       4.210   8.592 -15.818  1.00142.86     0.046 A 
HETATM    5  C5  MIQ B 502       4.071   7.642 -14.774  1.00139.53     0.031 A 
HETATM    6  C12 MIQ B 502       5.257   7.044 -14.178  1.00139.38     0.030 A 
HETATM    7  C13 MIQ B 502       6.547   7.413 -14.644  1.00141.18     0.019 A 
HETATM    8  C14 MIQ B 502       6.688   8.409 -15.742  1.00138.77     0.033 A 
HETATM    9  C15 MIQ B 502       7.898   9.044 -16.501  1.00142.10     0.195 A 
HETATM   10  N17 MIQ B 502       7.376   9.877 -17.387  1.00139.42    -0.288 N 
HETATM   11  O16 MIQ B 502       9.252   8.784 -16.282  1.00148.93    -0.171 OA
ENDROOT
BRANCH  10  12
HETATM   12  C18 MIQ B 502       8.215  10.665 -18.271  1.00139.82     0.187 C 
HETATM   13  C19 MIQ B 502       9.089   9.695 -19.075  1.00140.06     0.247 C 
HETATM   14  O25 MIQ B 502       8.578   8.794 -19.640  1.00143.95    -0.271 OA
HETATM   15  N20 MIQ B 502      10.525   9.856 -19.167  1.00140.02    -0.296 N 
HETATM   16  H13 MIQ B 502      11.085   9.212 -19.690  1.00142.77     0.171 HD
HETATM   17  C21 MIQ B 502      11.126  10.958 -18.459  1.00142.22     0.224 C 
HETATM   18  C22 MIQ B 502      10.477  11.362 -17.150  1.00139.52     0.106 C 
HETATM   19  O24 MIQ B 502      12.075  11.520 -18.884  1.00146.13    -0.273 OA
HETATM   20  C23 MIQ B 502       9.027  11.680 -17.468  1.00139.15     0.045 C 
ENDBRANCH  10  12
BRANCH   5  21
HETATM   21  N6  MIQ B 502       2.747   7.284 -14.297  1.00140.95    -0.377 N 
HETATM   22  C7  MIQ B 502       1.680   8.264 -14.409  1.00142.12     0.149 C 
HETATM   23  C8  MIQ B 502       0.601   8.052 -13.356  1.00144.10     0.187 C 
HETATM   24  O9  MIQ B 502       0.183   6.723 -13.265  1.00148.65    -0.388 OA
HETATM   25  C10 MIQ B 502       0.887   5.713 -13.928  1.00147.44     0.187 C 
HETATM   26  C11 MIQ B 502       2.387   5.886 -14.137  1.00144.08     0.149 C 
ENDBRANCH   5  21
TORSDOF 2
ENDMDL
MODEL 4
REMARK VINA RESULT:      -6.6      2.782      3.775
REMARK  2 active torsions:
REMARK  status: ('A' for Active; 'I' for Inactive)
REMARK    1  A    between atoms: C5_5  and  N6_21 
REMARK    2  A    between atoms: C18_14  and  N17_19 
ROOT
HETATM    1  O1  MIQ B 502       0.078  11.010 -14.170  1.00142.91    -0.171 OA
HETATM    2  C2  MIQ B 502       0.065   9.624 -13.995  1.00141.17     0.195 A 
HETATM    3  C3  MIQ B 502       1.284   8.662 -14.164  1.00141.71     0.035 A 
HETATM    4  C4  MIQ B 502       2.706   8.872 -14.526  1.00142.86     0.046 A 
HETATM    5  C5  MIQ B 502       3.597   7.772 -14.600  1.00139.53     0.031 A 
HETATM    6  C12 MIQ B 502       3.111   6.429 -14.318  1.00139.38     0.030 A 
HETATM    7  C13 MIQ B 502       1.748   6.227 -13.971  1.00141.18     0.019 A 
HETATM    8  C14 MIQ B 502       0.818   7.386 -13.892  1.00138.77     0.033 A 
HETATM    9  C15 MIQ B 502      -0.699   7.557 -13.551  1.00142.10     0.195 A 
HETATM   10  N17 MIQ B 502      -0.951   8.852 -13.651  1.00139.42    -0.288 N 
HETATM   11  O16 MIQ B 502      -1.599   6.545 -13.213  1.00148.93    -0.171 OA
ENDROOT
BRANCH  10  12
HETATM   12  C18 MIQ B 502      -2.281   9.385 -13.416  1.00139.82     0.187 C 
HETATM   13  C19 MIQ B 502      -2.698  10.170 -14.665  1.00140.06     0.247 C 
HETATM   14  O25 MIQ B 502      -2.610   9.658 -15.724  1.00143.95    -0.271 OA
HETATM   15  N20 MIQ B 502      -3.203  11.525 -14.581  1.00140.02    -0.296 N 
HETATM   16  H13 MIQ B 502      -3.466  12.030 -15.405  1.00142.77     0.171 HD
HETATM   17  C21 MIQ B 502      -3.291  12.133 -13.279  1.00142.22     0.224 C 
HETATM   18  C22 MIQ B 502      -2.230  11.739 -12.270  1.00139.52     0.106 C 
HETATM   19  O24 MIQ B 502      -4.152  12.898 -13.011  1.00146.13    -0.273 OA
HETATM   20  C23 MIQ B 502      -2.298  10.228 -12.142  1.00139.15     0.045 C 
ENDBRANCH  10  12
BRANCH   5  21
HETATM   21  N6  MIQ B 502       4.983   7.991 -14.969  1.00140.95    -0.377 N 
HETATM   22  C7  MIQ B 502       6.013   7.227 -14.286  1.00142.12     0.149 C 
HETATM   23  C8  MIQ B 502       7.349   7.960 -14.271  1.00144.10     0.187 C 
HETATM   24  O9  MIQ B 502       7.708   8.459 -15.524  1.00148.65    -0.388 OA
HETATM   25  C10 MIQ B 502       6.790   8.458 -16.577  1.00147.44     0.187 C 
HETATM   26  C11 MIQ B 502       5.306   8.594 -16.251  1.00144.08     0.149 C 
ENDBRANCH   5  21
TORSDOF 2
ENDMDL
MODEL 5
REMARK VINA RESULT:      -6.6      2.055      8.340
REMARK  2 active torsions:
REMARK  status: ('A' for Active; 'I' for Inactive)
REMARK    1  A    between atoms: C5_5  and  N6_21 
REMARK    2  A    between atoms: C18_14  and  N17_19 
ROOT
HETATM    1  O1  MIQ B 502       5.052  10.545 -16.495  1.00142.91    -0.171 OA
HETATM    2  C2  MIQ B 502       4.863   9.393 -15.728  1.00141.17     0.195 A 
HETATM    3  C3  MIQ B 502       3.499   8.688 -15.443  1.00141.71     0.035 A 
HETATM    4  C4  MIQ B 502       2.102   8.971 -15.848  1.00142.86     0.046 A 
HETATM    5  C5  MIQ B 502       1.047   8.125 -15.421  1.00139.53     0.031 A 
HETATM    6  C12 MIQ B 502       1.339   6.973 -14.581  1.00139.38     0.030 A 
HETATM    7  C13 MIQ B 502       2.679   6.701 -14.193  1.00141.18     0.019 A 
HETATM    8  C14 MIQ B 502       3.783   7.591 -14.646  1.00138.77     0.033 A 
HETATM    9  C15 MIQ B 502       5.332   7.614 -14.436  1.00142.10     0.195 A 
HETATM   10  N17 MIQ B 502       5.774   8.669 -15.100  1.00139.42    -0.288 N 
HETATM   11  O16 MIQ B 502       6.088   6.705 -13.694  1.00148.93    -0.171 OA
ENDROOT
BRANCH  10  12
HETATM   12  C18 MIQ B 502       7.183   9.018 -15.116  1.00139.82     0.187 C 
HETATM   13  C19 MIQ B 502       7.299  10.510 -14.783  1.00140.06     0.247 C 
HETATM   14  O25 MIQ B 502       6.752  10.931 -13.827  1.00143.95    -0.271 OA
HETATM   15  N20 MIQ B 502       8.067  11.419 -15.608  1.00140.02    -0.296 N 
HETATM   16  H13 MIQ B 502       8.130  12.393 -15.384  1.00142.77     0.171 HD
HETATM   17  C21 MIQ B 502       8.718  10.884 -16.777  1.00142.22     0.224 C 
HETATM   18  C22 MIQ B 502       8.009   9.749 -17.491  1.00139.52     0.106 C 
HETATM   19  O24 MIQ B 502       9.755  11.306 -17.155  1.00146.13    -0.273 OA
HETATM   20  C23 MIQ B 502       7.806   8.652 -16.462  1.00139.15     0.045 C 
ENDBRANCH  10  12
BRANCH   5  21
HETATM   21  N6  MIQ B 502      -0.319   8.423 -15.813  1.00140.95    -0.377 N 
HETATM   22  C7  MIQ B 502      -1.238   7.317 -16.021  1.00142.12     0.149 C 
HETATM   23  C8  MIQ B 502      -2.348   7.677 -17.000  1.00144.10     0.187 C 
HETATM   24  O9  MIQ B 502      -2.947   8.905 -16.716  1.00148.65    -0.388 OA
HETATM   25  C10 MIQ B 502      -2.384   9.765 -15.769  1.00147.44     0.187 C 
HETATM   26  C11 MIQ B 502      -0.871   9.744 -15.574  1.00144.08     0.149 C 
ENDBRANCH   5  21
TORSDOF 2
ENDMDL
MODEL 6
REMARK VINA RESULT:      -6.5      2.467      3.074
REMARK  2 active torsions:
REMARK  status: ('A' for Active; 'I' for Inactive)
REMARK    1  A    between atoms: C5_5  and  N6_21 
REMARK    2  A    between atoms: C18_14  and  N17_19 
ROOT
HETATM    1  O1  MIQ B 502       1.771  10.019 -17.412  1.00142.91    -0.171 OA
HETATM    2  C2  MIQ B 502       2.297   9.193 -16.417  1.00141.17     0.195 A 
HETATM    3  C3  MIQ B 502       3.797   8.794 -16.247  1.00141.71     0.035 A 
HETATM    4  C4  MIQ B 502       5.031   9.124 -17.000  1.00142.86     0.046 A 
HETATM    5  C5  MIQ B 502       6.282   8.596 -16.592  1.00139.53     0.031 A 
HETATM    6  C12 MIQ B 502       6.354   7.727 -15.426  1.00139.38     0.030 A 
HETATM    7  C13 MIQ B 502       5.172   7.411 -14.704  1.00141.18     0.019 A 
HETATM    8  C14 MIQ B 502       3.862   7.970 -15.135  1.00138.77     0.033 A 
HETATM    9  C15 MIQ B 502       2.393   7.857 -14.612  1.00142.10     0.195 A 
HETATM   10  N17 MIQ B 502       1.656   8.592 -15.428  1.00139.42    -0.288 N 
HETATM   11  O16 MIQ B 502       1.953   7.125 -13.507  1.00148.93    -0.171 OA
ENDROOT
BRANCH  10  12
HETATM   12  C18 MIQ B 502       0.221   8.710 -15.255  1.00139.82     0.187 C 
HETATM   13  C19 MIQ B 502      -0.036   9.271 -13.850  1.00140.06     0.247 C 
HETATM   14  O25 MIQ B 502       0.531  10.247 -13.507  1.00143.95    -0.271 OA
HETATM   15  N20 MIQ B 502      -0.961   8.638 -12.933  1.00140.02    -0.296 N 
HETATM   16  H13 MIQ B 502      -1.115   9.010 -12.016  1.00142.77     0.171 HD
HETATM   17  C21 MIQ B 502      -1.633   7.441 -13.370  1.00142.22     0.224 C 
HETATM   18  C22 MIQ B 502      -0.857   6.525 -14.297  1.00139.52     0.106 C 
HETATM   19  O24 MIQ B 502      -2.736   7.192 -13.028  1.00146.13    -0.273 OA
HETATM   20  C23 MIQ B 502      -0.457   7.363 -15.497  1.00139.15     0.045 C 
ENDBRANCH  10  12
BRANCH   5  21
HETATM   21  N6  MIQ B 502       7.480   8.915 -17.347  1.00140.95    -0.377 N 
HETATM   22  C7  MIQ B 502       7.340   9.297 -18.742  1.00142.12     0.149 C 
HETATM   23  C8  MIQ B 502       8.593   8.977 -19.547  1.00144.10     0.187 C 
HETATM   24  O9  MIQ B 502       9.765   9.411 -18.924  1.00148.65    -0.388 OA
HETATM   25  C10 MIQ B 502       9.738   9.866 -17.603  1.00147.44     0.187 C 
HETATM   26  C11 MIQ B 502       8.702   9.278 -16.650  1.00144.08     0.149 C 
ENDBRANCH   5  21
TORSDOF 2
ENDMDL
MODEL 7
REMARK VINA RESULT:      -6.5      4.512      7.389
REMARK  2 active torsions:
REMARK  status: ('A' for Active; 'I' for Inactive)
REMARK    1  A    between atoms: C5_5  and  N6_21 
REMARK    2  A    between atoms: C18_14  and  N17_19 
ROOT
HETATM    1  O1  MIQ B 502       5.523   7.921 -17.193  1.00142.91    -0.171 OA
HETATM    2  C2  MIQ B 502       6.463   8.803 -16.655  1.00141.17     0.195 A 
HETATM    3  C3  MIQ B 502       7.685   9.420 -17.408  1.00141.71     0.035 A 
HETATM    4  C4  MIQ B 502       8.198   9.294 -18.793  1.00142.86     0.046 A 
HETATM    5  C5  MIQ B 502       9.361   9.999 -19.193  1.00139.53     0.031 A 
HETATM    6  C12 MIQ B 502      10.055  10.850 -18.237  1.00139.38     0.030 A 
HETATM    7  C13 MIQ B 502       9.562  10.972 -16.909  1.00141.18     0.019 A 
HETATM    8  C14 MIQ B 502       8.339  10.232 -16.496  1.00138.77     0.033 A 
HETATM    9  C15 MIQ B 502       7.519  10.119 -15.170  1.00142.10     0.195 A 
HETATM   10  N17 MIQ B 502       6.517   9.295 -15.429  1.00139.42    -0.288 N 
HETATM   11  O16 MIQ B 502       7.794  10.757 -13.959  1.00148.93    -0.171 OA
ENDROOT
BRANCH  10  12
HETATM   12  C18 MIQ B 502       5.546   8.939 -14.411  1.00139.82     0.187 C 
HETATM   13  C19 MIQ B 502       5.527   7.410 -14.297  1.00140.06     0.247 C 
HETATM   14  O25 MIQ B 502       6.545   6.831 -14.156  1.00143.95    -0.271 OA
HETATM   15  N20 MIQ B 502       4.292   6.655 -14.351  1.00140.02    -0.296 N 
HETATM   16  H13 MIQ B 502       4.294   5.656 -14.281  1.00142.77     0.171 HD
HETATM   17  C21 MIQ B 502       3.064   7.383 -14.534  1.00142.22     0.224 C 
HETATM   18  C22 MIQ B 502       3.134   8.635 -15.387  1.00139.52     0.106 C 
HETATM   19  O24 MIQ B 502       2.053   7.024 -14.038  1.00146.13    -0.273 OA
HETATM   20  C23 MIQ B 502       4.179   9.533 -14.750  1.00139.15     0.045 C 
ENDBRANCH  10  12
BRANCH   5  21
HETATM   21  N6  MIQ B 502       9.861   9.855 -20.548  1.00140.95    -0.377 N 
HETATM   22  C7  MIQ B 502       8.950  10.095 -21.653  1.00142.12     0.149 C 
HETATM   23  C8  MIQ B 502       9.355   9.323 -22.903  1.00144.10     0.187 C 
HETATM   24  O9  MIQ B 502      10.711   9.456 -23.207  1.00148.65    -0.388 OA
HETATM   25  C10 MIQ B 502      11.587  10.049 -22.294  1.00147.44     0.187 C 
HETATM   26  C11 MIQ B 502      11.289   9.914 -20.805  1.00144.08     0.149 C 
ENDBRANCH   5  21
TORSDOF 2
ENDMDL
MODEL 8
REMARK VINA RESULT:      -6.5      2.188      3.057
REMARK  2 active torsions:
REMARK  status: ('A' for Active; 'I' for Inactive)
REMARK    1  A    between atoms: C5_5  and  N6_21 
REMARK    2  A    between atoms: C18_14  and  N17_19 
ROOT
HETATM    1  O1  MIQ B 502       1.735   8.243 -13.301  1.00142.91    -0.171 OA
HETATM    2  C2  MIQ B 502       1.827   8.590 -14.651  1.00141.17     0.195 A 
HETATM    3  C3  MIQ B 502       3.142   8.873 -15.443  1.00141.71     0.035 A 
HETATM    4  C4  MIQ B 502       4.577   8.867 -15.072  1.00142.86     0.046 A 
HETATM    5  C5  MIQ B 502       5.569   9.173 -16.038  1.00139.53     0.031 A 
HETATM    6  C12 MIQ B 502       5.174   9.495 -17.402  1.00139.38     0.030 A 
HETATM    7  C13 MIQ B 502       3.799   9.499 -17.759  1.00141.18     0.019 A 
HETATM    8  C14 MIQ B 502       2.762   9.175 -16.741  1.00138.77     0.033 A 
HETATM    9  C15 MIQ B 502       1.202   9.077 -16.754  1.00142.10     0.195 A 
HETATM   10  N17 MIQ B 502       0.846   8.743 -15.525  1.00139.42    -0.288 N 
HETATM   11  O16 MIQ B 502       0.359   9.302 -17.845  1.00148.93    -0.171 OA
ENDROOT
BRANCH  10  12
HETATM   12  C18 MIQ B 502      -0.548   8.576 -15.158  1.00139.82     0.187 C 
HETATM   13  C19 MIQ B 502      -0.809   9.432 -13.912  1.00140.06     0.247 C 
HETATM   14  O25 MIQ B 502      -0.487  10.566 -13.915  1.00143.95    -0.271 OA
HETATM   15  N20 MIQ B 502      -1.447   8.886 -12.731  1.00140.02    -0.296 N 
HETATM   16  H13 MIQ B 502      -1.606   9.453 -11.922  1.00142.77     0.171 HD
HETATM   17  C21 MIQ B 502      -1.821   7.496 -12.749  1.00142.22     0.224 C 
HETATM   18  C22 MIQ B 502      -0.924   6.558 -13.533  1.00139.52     0.106 C 
HETATM   19  O24 MIQ B 502      -2.784   7.108 -12.183  1.00146.13    -0.273 OA
HETATM   20  C23 MIQ B 502      -0.870   7.097 -14.950  1.00139.15     0.045 C 
ENDBRANCH  10  12
BRANCH   5  21
HETATM   21  N6  MIQ B 502       6.969   9.178 -15.656  1.00140.95    -0.377 N 
HETATM   22  C7  MIQ B 502       7.374   8.413 -14.489  1.00142.12     0.149 C 
HETATM   23  C8  MIQ B 502       8.628   8.985 -13.841  1.00144.10     0.187 C 
HETATM   24  O9  MIQ B 502       9.644   9.250 -14.763  1.00148.65    -0.388 OA
HETATM   25  C10 MIQ B 502       9.385   9.197 -16.135  1.00147.44     0.187 C 
HETATM   26  C11 MIQ B 502       7.985   9.545 -16.628  1.00144.08     0.149 C 
ENDBRANCH   5  21
TORSDOF 2
ENDMDL
MODEL 9
REMARK VINA RESULT:      -6.5      1.577      2.563
REMARK  2 active torsions:
REMARK  status: ('A' for Active; 'I' for Inactive)
REMARK    1  A    between atoms: C5_5  and  N6_21 
REMARK    2  A    between atoms: C18_14  and  N17_19 
ROOT
HETATM    1  O1  MIQ B 502       0.555   7.036 -15.253  1.00142.91    -0.171 OA
HETATM    2  C2  MIQ B 502       0.472   8.379 -14.882  1.00141.17     0.195 A 
HETATM    3  C3  MIQ B 502       1.676   9.336 -14.609  1.00141.71     0.035 A 
HETATM    4  C4  MIQ B 502       3.148   9.161 -14.651  1.00142.86     0.046 A 
HETATM    5  C5  MIQ B 502       4.008  10.245 -14.346  1.00139.53     0.031 A 
HETATM    6  C12 MIQ B 502       3.442  11.538 -13.990  1.00139.38     0.030 A 
HETATM    7  C13 MIQ B 502       2.032  11.707 -13.950  1.00141.18     0.019 A 
HETATM    8  C14 MIQ B 502       1.133  10.566 -14.274  1.00138.77     0.033 A 
HETATM    9  C15 MIQ B 502      -0.417  10.371 -14.339  1.00142.10     0.195 A 
HETATM   10  N17 MIQ B 502      -0.612   9.111 -14.691  1.00139.42    -0.288 N 
HETATM   11  O16 MIQ B 502      -1.392  11.335 -14.076  1.00148.93    -0.171 OA
ENDROOT
BRANCH  10  12
HETATM   12  C18 MIQ B 502      -1.948   8.564 -14.837  1.00139.82     0.187 C 
HETATM   13  C19 MIQ B 502      -2.020   7.278 -14.004  1.00140.06     0.247 C 
HETATM   14  O25 MIQ B 502      -1.675   7.303 -12.876  1.00143.95    -0.271 OA
HETATM   15  N20 MIQ B 502      -2.507   6.033 -14.562  1.00140.02    -0.296 N 
HETATM   16  H13 MIQ B 502      -2.543   5.199 -14.009  1.00142.77     0.171 HD
HETATM   17  C21 MIQ B 502      -2.913   6.026 -15.943  1.00142.22     0.224 C 
HETATM   18  C22 MIQ B 502      -2.150   6.941 -16.882  1.00139.52     0.106 C 
HETATM   19  O24 MIQ B 502      -3.800   5.344 -16.323  1.00146.13    -0.273 OA
HETATM   20  C23 MIQ B 502      -2.274   8.343 -16.313  1.00139.15     0.045 C 
ENDBRANCH  10  12
BRANCH   5  21
HETATM   21  N6  MIQ B 502       5.447  10.055 -14.377  1.00140.95    -0.377 N 
HETATM   22  C7  MIQ B 502       5.975   8.851 -14.995  1.00142.12     0.149 C 
HETATM   23  C8  MIQ B 502       7.331   8.464 -14.419  1.00144.10     0.187 C 
HETATM   24  O9  MIQ B 502       8.219   9.539 -14.351  1.00148.65    -0.388 OA
HETATM   25  C10 MIQ B 502       7.772  10.842 -14.580  1.00147.44     0.187 C 
HETATM   26  C11 MIQ B 502       6.333  11.194 -14.216  1.00144.08     0.149 C 
ENDBRANCH   5  21
TORSDOF 2
ENDMDL
