MODEL 1
REMARK VINA RESULT:      -7.1      0.000      0.000
REMARK  2 active torsions:
REMARK  status: ('A' for Active; 'I' for Inactive)
REMARK    1  A    between atoms: C5_5  and  N6_21 
REMARK    2  A    between atoms: C18_14  and  N17_19 
ROOT
HETATM    1  O1  MIQ B 502     -12.729  -8.064  -9.308  1.00142.91    -0.171 OA
HETATM    2  C2  MIQ B 502     -13.114  -9.059 -10.211  1.00141.17     0.195 A 
HETATM    3  C3  MIQ B 502     -12.982  -8.993 -11.766  1.00141.71     0.035 A 
HETATM    4  C4  MIQ B 502     -12.460  -7.970 -12.702  1.00142.86     0.046 A 
HETATM    5  C5  MIQ B 502     -12.471  -8.205 -14.100  1.00139.53     0.031 A 
HETATM    6  C12 MIQ B 502     -12.999  -9.460 -14.617  1.00139.38     0.030 A 
HETATM    7  C13 MIQ B 502     -13.499 -10.441 -13.720  1.00141.18     0.019 A 
HETATM    8  C14 MIQ B 502     -13.482 -10.190 -12.253  1.00138.77     0.033 A 
HETATM    9  C15 MIQ B 502     -13.926 -11.003 -10.993  1.00142.10     0.195 A 
HETATM   10  N17 MIQ B 502     -13.652 -10.237  -9.950  1.00139.42    -0.288 N 
HETATM   11  O16 MIQ B 502     -14.498 -12.276 -10.979  1.00148.93    -0.171 OA
ENDROOT
BRANCH  10  12
HETATM   12  C18 MIQ B 502     -13.949 -10.668  -8.596  1.00139.82     0.187 C 
HETATM   13  C19 MIQ B 502     -14.641  -9.504  -7.876  1.00140.06     0.247 C 
HETATM   14  O25 MIQ B 502     -15.569  -8.982  -8.386  1.00143.95    -0.271 OA
HETATM   15  N20 MIQ B 502     -14.193  -9.030  -6.583  1.00140.02    -0.296 N 
HETATM   16  H13 MIQ B 502     -14.649  -8.265  -6.127  1.00142.77     0.171 HD
HETATM   17  C21 MIQ B 502     -13.052  -9.676  -5.987  1.00142.22     0.224 C 
HETATM   18  C22 MIQ B 502     -11.983 -10.183  -6.935  1.00139.52     0.106 C 
HETATM   19  O24 MIQ B 502     -12.960  -9.808  -4.816  1.00146.13    -0.273 OA
HETATM   20  C23 MIQ B 502     -12.674 -11.135  -7.895  1.00139.15     0.045 C 
ENDBRANCH  10  12
BRANCH   5  21
HETATM   21  N6  MIQ B 502     -11.970  -7.188 -15.007  1.00140.95    -0.377 N 
HETATM   22  C7  MIQ B 502     -11.577  -5.902 -14.458  1.00142.12     0.149 C 
HETATM   23  C8  MIQ B 502     -11.700  -4.784 -15.485  1.00144.10     0.187 C 
HETATM   24  O9  MIQ B 502     -11.124  -5.110 -16.715  1.00148.65    -0.388 OA
HETATM   25  C10 MIQ B 502     -10.710  -6.418 -16.978  1.00147.44     0.187 C 
HETATM   26  C11 MIQ B 502     -11.459  -7.568 -16.312  1.00144.08     0.149 C 
ENDBRANCH   5  21
TORSDOF 2
ENDMDL
MODEL 2
REMARK VINA RESULT:      -7.0      5.359     10.905
REMARK  2 active torsions:
REMARK  status: ('A' for Active; 'I' for Inactive)
REMARK    1  A    between atoms: C5_5  and  N6_21 
REMARK    2  A    between atoms: C18_14  and  N17_19 
ROOT
HETATM    1  O1  MIQ B 502     -12.723 -14.556  -7.826  1.00142.91    -0.171 OA
HETATM    2  C2  MIQ B 502     -12.580 -13.623  -6.797  1.00141.17     0.195 A 
HETATM    3  C3  MIQ B 502     -12.269 -13.941  -5.300  1.00141.71     0.035 A 
HETATM    4  C4  MIQ B 502     -12.045 -15.201  -4.551  1.00142.86     0.046 A 
HETATM    5  C5  MIQ B 502     -11.775 -15.169  -3.159  1.00139.53     0.031 A 
HETATM    6  C12 MIQ B 502     -11.719 -13.891  -2.463  1.00139.38     0.030 A 
HETATM    7  C13 MIQ B 502     -11.933 -12.684  -3.181  1.00141.18     0.019 A 
HETATM    8  C14 MIQ B 502     -12.213 -12.723  -4.642  1.00138.77     0.033 A 
HETATM    9  C15 MIQ B 502     -12.489 -11.642  -5.738  1.00142.10     0.195 A 
HETATM   10  N17 MIQ B 502     -12.668 -12.306  -6.869  1.00139.42    -0.288 N 
HETATM   11  O16 MIQ B 502     -12.539 -10.260  -5.554  1.00148.93    -0.171 OA
ENDROOT
BRANCH  10  12
HETATM   12  C18 MIQ B 502     -12.965 -11.618  -8.111  1.00139.82     0.187 C 
HETATM   13  C19 MIQ B 502     -11.878 -10.558  -8.331  1.00140.06     0.247 C 
HETATM   14  O25 MIQ B 502     -10.744 -10.874  -8.263  1.00143.95    -0.271 OA
HETATM   15  N20 MIQ B 502     -12.206  -9.178  -8.626  1.00140.02    -0.296 N 
HETATM   16  H13 MIQ B 502     -11.488  -8.495  -8.761  1.00142.77     0.171 HD
HETATM   17  C21 MIQ B 502     -13.598  -8.816  -8.694  1.00142.22     0.224 C 
HETATM   18  C22 MIQ B 502     -14.541  -9.556  -7.765  1.00139.52     0.106 C 
HETATM   19  O24 MIQ B 502     -13.985  -7.985  -9.441  1.00146.13    -0.273 OA
HETATM   20  C23 MIQ B 502     -14.376 -11.034  -8.071  1.00139.15     0.045 C 
ENDBRANCH  10  12
BRANCH   5  21
HETATM   21  N6  MIQ B 502     -11.572 -16.411  -2.436  1.00140.95    -0.377 N 
HETATM   22  C7  MIQ B 502     -12.025 -17.651  -3.043  1.00142.12     0.149 C 
HETATM   23  C8  MIQ B 502     -12.349 -18.711  -1.999  1.00144.10     0.187 C 
HETATM   24  O9  MIQ B 502     -11.347 -18.849  -1.036  1.00148.65    -0.388 OA
HETATM   25  C10 MIQ B 502     -10.303 -17.923  -0.963  1.00147.44     0.187 C 
HETATM   26  C11 MIQ B 502     -10.576 -16.482  -1.382  1.00144.08     0.149 C 
ENDBRANCH   5  21
TORSDOF 2
ENDMDL
MODEL 3
REMARK VINA RESULT:      -6.9      3.340      8.876
REMARK  2 active torsions:
REMARK  status: ('A' for Active; 'I' for Inactive)
REMARK    1  A    between atoms: C5_5  and  N6_21 
REMARK    2  A    between atoms: C18_14  and  N17_19 
ROOT
HETATM    1  O1  MIQ B 502     -11.361 -10.923  -9.808  1.00142.91    -0.171 OA
HETATM    2  C2  MIQ B 502     -12.266 -10.590  -8.798  1.00141.17     0.195 A 
HETATM    3  C3  MIQ B 502     -12.250 -11.126  -7.331  1.00141.71     0.035 A 
HETATM    4  C4  MIQ B 502     -11.364 -12.062  -6.598  1.00142.86     0.046 A 
HETATM    5  C5  MIQ B 502     -11.609 -12.360  -5.233  1.00139.53     0.031 A 
HETATM    6  C12 MIQ B 502     -12.736 -11.742  -4.550  1.00139.38     0.030 A 
HETATM    7  C13 MIQ B 502     -13.585 -10.844  -5.252  1.00141.18     0.019 A 
HETATM    8  C14 MIQ B 502     -13.321 -10.533  -6.684  1.00138.77     0.033 A 
HETATM    9  C15 MIQ B 502     -14.007  -9.624  -7.755  1.00142.10     0.195 A 
HETATM   10  N17 MIQ B 502     -13.299  -9.768  -8.863  1.00139.42    -0.288 N 
HETATM   11  O16 MIQ B 502     -15.137  -8.825  -7.574  1.00148.93    -0.171 OA
ENDROOT
BRANCH  10  12
HETATM   12  C18 MIQ B 502     -13.658  -9.075 -10.087  1.00139.82     0.187 C 
HETATM   13  C19 MIQ B 502     -13.950 -10.135 -11.156  1.00140.06     0.247 C 
HETATM   14  O25 MIQ B 502     -14.702 -11.010 -10.909  1.00143.95    -0.271 OA
HETATM   15  N20 MIQ B 502     -13.333 -10.089 -12.466  1.00140.02    -0.296 N 
HETATM   16  H13 MIQ B 502     -13.527 -10.790 -13.153  1.00142.77     0.171 HD
HETATM   17  C21 MIQ B 502     -12.412  -9.016 -12.740  1.00142.22     0.224 C 
HETATM   18  C22 MIQ B 502     -11.576  -8.522 -11.575  1.00139.52     0.106 C 
HETATM   19  O24 MIQ B 502     -12.318  -8.543 -13.818  1.00146.13    -0.273 OA
HETATM   20  C23 MIQ B 502     -12.552  -8.102 -10.491  1.00139.15     0.045 C 
ENDBRANCH  10  12
BRANCH   5  21
HETATM   21  N6  MIQ B 502     -10.743 -13.289  -4.532  1.00140.95    -0.377 N 
HETATM   22  C7  MIQ B 502      -9.606 -13.850  -5.242  1.00142.12     0.149 C 
HETATM   23  C8  MIQ B 502      -9.199 -15.207  -4.682  1.00144.10     0.187 C 
HETATM   24  O9  MIQ B 502      -9.095 -15.212  -3.290  1.00148.65    -0.388 OA
HETATM   25  C10 MIQ B 502      -9.556 -14.125  -2.542  1.00147.44     0.187 C 
HETATM   26  C11 MIQ B 502     -10.732 -13.316  -3.080  1.00144.08     0.149 C 
ENDBRANCH   5  21
TORSDOF 2
ENDMDL
MODEL 4
REMARK VINA RESULT:      -6.9      5.238      8.160
REMARK  2 active torsions:
REMARK  status: ('A' for Active; 'I' for Inactive)
REMARK    1  A    between atoms: C5_5  and  N6_21 
REMARK    2  A    between atoms: C18_14  and  N17_19 
ROOT
HETATM    1  O1  MIQ B 502     -10.767 -15.189  -6.565  1.00142.91    -0.171 OA
HETATM    2  C2  MIQ B 502     -11.168 -14.281  -5.583  1.00141.17     0.195 A 
HETATM    3  C3  MIQ B 502     -11.798 -12.873  -5.830  1.00141.71     0.035 A 
HETATM    4  C4  MIQ B 502     -12.147 -12.114  -7.055  1.00142.86     0.046 A 
HETATM    5  C5  MIQ B 502     -12.724 -10.823  -6.957  1.00139.53     0.031 A 
HETATM    6  C12 MIQ B 502     -12.976 -10.241  -5.646  1.00139.38     0.030 A 
HETATM    7  C13 MIQ B 502     -12.643 -10.969  -4.472  1.00141.18     0.019 A 
HETATM    8  C14 MIQ B 502     -12.039 -12.325  -4.581  1.00138.77     0.033 A 
HETATM    9  C15 MIQ B 502     -11.556 -13.399  -3.552  1.00142.10     0.195 A 
HETATM   10  N17 MIQ B 502     -11.107 -14.416  -4.269  1.00139.42    -0.288 N 
HETATM   11  O16 MIQ B 502     -11.592 -13.298  -2.160  1.00148.93    -0.171 OA
ENDROOT
BRANCH  10  12
HETATM   12  C18 MIQ B 502     -10.558 -15.602  -3.640  1.00139.82     0.187 C 
HETATM   13  C19 MIQ B 502     -11.542 -16.053  -2.553  1.00140.06     0.247 C 
HETATM   14  O25 MIQ B 502     -12.681 -16.187  -2.827  1.00143.95    -0.271 OA
HETATM   15  N20 MIQ B 502     -11.110 -16.325  -1.197  1.00140.02    -0.296 N 
HETATM   16  H13 MIQ B 502     -11.763 -16.612  -0.495  1.00142.77     0.171 HD
HETATM   17  C21 MIQ B 502      -9.716 -16.144  -0.884  1.00142.22     0.224 C 
HETATM   18  C22 MIQ B 502      -8.991 -15.034  -1.620  1.00139.52     0.106 C 
HETATM   19  O24 MIQ B 502      -9.165 -16.832  -0.096  1.00146.13    -0.273 OA
HETATM   20  C23 MIQ B 502      -9.156 -15.319  -3.102  1.00139.15     0.045 C 
ENDBRANCH  10  12
BRANCH   5  21
HETATM   21  N6  MIQ B 502     -13.047 -10.084  -8.164  1.00140.95    -0.377 N 
HETATM   22  C7  MIQ B 502     -14.098  -9.083  -8.106  1.00142.12     0.149 C 
HETATM   23  C8  MIQ B 502     -14.758  -8.872  -9.462  1.00144.10     0.187 C 
HETATM   24  O9  MIQ B 502     -13.835  -8.708 -10.496  1.00148.65    -0.388 OA
HETATM   25  C10 MIQ B 502     -12.477  -8.958 -10.279  1.00147.44     0.187 C 
HETATM   26  C11 MIQ B 502     -12.086 -10.014  -9.251  1.00144.08     0.149 C 
ENDBRANCH   5  21
TORSDOF 2
ENDMDL
MODEL 5
REMARK VINA RESULT:      -6.9      4.736      7.241
REMARK  2 active torsions:
REMARK  status: ('A' for Active; 'I' for Inactive)
REMARK    1  A    between atoms: C5_5  and  N6_21 
REMARK    2  A    between atoms: C18_14  and  N17_19 
ROOT
HETATM    1  O1  MIQ B 502     -12.812 -11.236  -3.825  1.00142.91    -0.171 OA
HETATM    2  C2  MIQ B 502     -11.961 -12.076  -4.548  1.00141.17     0.195 A 
HETATM    3  C3  MIQ B 502     -11.628 -11.963  -6.069  1.00141.71     0.035 A 
HETATM    4  C4  MIQ B 502     -12.052 -11.029  -7.139  1.00142.86     0.046 A 
HETATM    5  C5  MIQ B 502     -11.565 -11.184  -8.461  1.00139.53     0.031 A 
HETATM    6  C12 MIQ B 502     -10.643 -12.268  -8.769  1.00139.38     0.030 A 
HETATM    7  C13 MIQ B 502     -10.236 -13.164  -7.744  1.00141.18     0.019 A 
HETATM    8  C14 MIQ B 502     -10.748 -12.994  -6.357  1.00138.77     0.033 A 
HETATM    9  C15 MIQ B 502     -10.534 -13.750  -5.005  1.00142.10     0.195 A 
HETATM   10  N17 MIQ B 502     -11.271 -13.115  -4.110  1.00139.42    -0.288 N 
HETATM   11  O16 MIQ B 502      -9.728 -14.871  -4.793  1.00148.93    -0.171 OA
ENDROOT
BRANCH  10  12
HETATM   12  C18 MIQ B 502     -11.331 -13.554  -2.728  1.00139.82     0.187 C 
HETATM   13  C19 MIQ B 502      -9.892 -13.646  -2.204  1.00140.06     0.247 C 
HETATM   14  O25 MIQ B 502      -9.169 -12.725  -2.342  1.00143.95    -0.271 OA
HETATM   15  N20 MIQ B 502      -9.397 -14.833  -1.538  1.00140.02    -0.296 N 
HETATM   16  H13 MIQ B 502      -8.454 -14.883  -1.206  1.00142.77     0.171 HD
HETATM   17  C21 MIQ B 502     -10.295 -15.949  -1.390  1.00142.22     0.224 C 
HETATM   18  C22 MIQ B 502     -11.303 -16.163  -2.503  1.00139.52     0.106 C 
HETATM   19  O24 MIQ B 502     -10.251 -16.658  -0.446  1.00146.13    -0.273 OA
HETATM   20  C23 MIQ B 502     -12.095 -14.873  -2.622  1.00139.15     0.045 C 
ENDBRANCH  10  12
BRANCH   5  21
HETATM   21  N6  MIQ B 502     -12.001 -10.271  -9.502  1.00140.95    -0.377 N 
HETATM   22  C7  MIQ B 502     -13.061  -9.325  -9.197  1.00142.12     0.149 C 
HETATM   23  C8  MIQ B 502     -13.835  -8.918 -10.444  1.00144.10     0.187 C 
HETATM   24  O9  MIQ B 502     -13.004  -8.560 -11.508  1.00148.65    -0.388 OA
HETATM   25  C10 MIQ B 502     -11.629  -8.801 -11.443  1.00147.44     0.187 C 
HETATM   26  C11 MIQ B 502     -11.135  -9.996 -10.635  1.00144.08     0.149 C 
ENDBRANCH   5  21
TORSDOF 2
ENDMDL
MODEL 6
REMARK VINA RESULT:      -6.9      1.985      2.518
REMARK  2 active torsions:
REMARK  status: ('A' for Active; 'I' for Inactive)
REMARK    1  A    between atoms: C5_5  and  N6_21 
REMARK    2  A    between atoms: C18_14  and  N17_19 
ROOT
HETATM    1  O1  MIQ B 502     -14.957  -9.061  -9.356  1.00142.91    -0.171 OA
HETATM    2  C2  MIQ B 502     -13.661  -9.562  -9.491  1.00141.17     0.195 A 
HETATM    3  C3  MIQ B 502     -12.678  -9.272 -10.669  1.00141.71     0.035 A 
HETATM    4  C4  MIQ B 502     -12.778  -8.455 -11.902  1.00142.86     0.046 A 
HETATM    5  C5  MIQ B 502     -11.687  -8.384 -12.805  1.00139.53     0.031 A 
HETATM    6  C12 MIQ B 502     -10.462  -9.117 -12.518  1.00139.38     0.030 A 
HETATM    7  C13 MIQ B 502     -10.365  -9.899 -11.335  1.00141.18     0.019 A 
HETATM    8  C14 MIQ B 502     -11.513  -9.968 -10.390  1.00138.77     0.033 A 
HETATM    9  C15 MIQ B 502     -11.774 -10.695  -9.030  1.00142.10     0.195 A 
HETATM   10  N17 MIQ B 502     -13.003 -10.363  -8.670  1.00139.42    -0.288 N 
HETATM   11  O16 MIQ B 502     -10.888 -11.525  -8.343  1.00148.93    -0.171 OA
ENDROOT
BRANCH  10  12
HETATM   12  C18 MIQ B 502     -13.598 -10.873  -7.448  1.00139.82     0.187 C 
HETATM   13  C19 MIQ B 502     -12.745 -10.382  -6.272  1.00140.06     0.247 C 
HETATM   14  O25 MIQ B 502     -12.485  -9.234  -6.190  1.00143.95    -0.271 OA
HETATM   15  N20 MIQ B 502     -12.253 -11.287  -5.254  1.00140.02    -0.296 N 
HETATM   16  H13 MIQ B 502     -11.692 -10.955  -4.495  1.00142.77     0.171 HD
HETATM   17  C21 MIQ B 502     -12.575 -12.685  -5.383  1.00142.22     0.224 C 
HETATM   18  C22 MIQ B 502     -12.674 -13.235  -6.793  1.00139.52     0.106 C 
HETATM   19  O24 MIQ B 502     -12.757 -13.367  -4.435  1.00146.13    -0.273 OA
HETATM   20  C23 MIQ B 502     -13.716 -12.396  -7.510  1.00139.15     0.045 C 
ENDBRANCH  10  12
BRANCH   5  21
HETATM   21  N6  MIQ B 502     -11.804  -7.592 -14.016  1.00140.95    -0.377 N 
HETATM   22  C7  MIQ B 502     -12.755  -6.494 -14.039  1.00142.12     0.149 C 
HETATM   23  C8  MIQ B 502     -13.240  -6.191 -15.451  1.00144.10     0.187 C 
HETATM   24  O9  MIQ B 502     -12.198  -6.097 -16.374  1.00148.65    -0.388 OA
HETATM   25  C10 MIQ B 502     -10.902  -6.483 -16.021  1.00147.44     0.187 C 
HETATM   26  C11 MIQ B 502     -10.727  -7.593 -14.990  1.00144.08     0.149 C 
ENDBRANCH   5  21
TORSDOF 2
ENDMDL
MODEL 7
REMARK VINA RESULT:      -6.8      1.842      2.263
REMARK  2 active torsions:
REMARK  status: ('A' for Active; 'I' for Inactive)
REMARK    1  A    between atoms: C5_5  and  N6_21 
REMARK    2  A    between atoms: C18_14  and  N17_19 
ROOT
HETATM    1  O1  MIQ B 502     -13.479  -8.989  -9.307  1.00142.91    -0.171 OA
HETATM    2  C2  MIQ B 502     -12.455  -9.609 -10.026  1.00141.17     0.195 A 
HETATM    3  C3  MIQ B 502     -11.895  -9.154 -11.411  1.00141.71     0.035 A 
HETATM    4  C4  MIQ B 502     -12.223  -8.035 -12.326  1.00142.86     0.046 A 
HETATM    5  C5  MIQ B 502     -11.520  -7.877 -13.547  1.00139.53     0.031 A 
HETATM    6  C12 MIQ B 502     -10.469  -8.820 -13.903  1.00139.38     0.030 A 
HETATM    7  C13 MIQ B 502     -10.154  -9.893 -13.026  1.00141.18     0.019 A 
HETATM    8  C14 MIQ B 502     -10.894 -10.052 -11.744  1.00138.77     0.033 A 
HETATM    9  C15 MIQ B 502     -10.832 -11.069 -10.558  1.00142.10     0.195 A 
HETATM   10  N17 MIQ B 502     -11.755 -10.680  -9.695  1.00139.42    -0.288 N 
HETATM   11  O16 MIQ B 502      -9.975 -12.165 -10.441  1.00148.93    -0.171 OA
ENDROOT
BRANCH  10  12
HETATM   12  C18 MIQ B 502     -11.995 -11.409  -8.463  1.00139.82     0.187 C 
HETATM   13  C19 MIQ B 502     -13.498 -11.702  -8.379  1.00140.06     0.247 C 
HETATM   14  O25 MIQ B 502     -14.040 -12.202  -9.299  1.00143.95    -0.271 OA
HETATM   15  N20 MIQ B 502     -14.273 -11.386  -7.196  1.00140.02    -0.296 N 
HETATM   16  H13 MIQ B 502     -15.255 -11.576  -7.155  1.00142.77     0.171 HD
HETATM   17  C21 MIQ B 502     -13.591 -10.766  -6.089  1.00142.22     0.224 C 
HETATM   18  C22 MIQ B 502     -12.454  -9.822  -6.431  1.00139.52     0.106 C 
HETATM   19  O24 MIQ B 502     -13.900 -10.988  -4.970  1.00146.13    -0.273 OA
HETATM   20  C23 MIQ B 502     -11.469 -10.619  -7.266  1.00139.15     0.045 C 
ENDBRANCH  10  12
BRANCH   5  21
HETATM   21  N6  MIQ B 502     -11.862  -6.785 -14.440  1.00140.95    -0.377 N 
HETATM   22  C7  MIQ B 502     -11.118  -6.643 -15.680  1.00142.12     0.149 C 
HETATM   23  C8  MIQ B 502     -11.101  -5.201 -16.170  1.00144.10     0.187 C 
HETATM   24  O9  MIQ B 502     -12.365  -4.608 -16.161  1.00148.65    -0.388 OA
HETATM   25  C10 MIQ B 502     -13.440  -5.245 -15.537  1.00147.44     0.187 C 
HETATM   26  C11 MIQ B 502     -13.160  -6.142 -14.335  1.00144.08     0.149 C 
ENDBRANCH   5  21
TORSDOF 2
ENDMDL
MODEL 8
REMARK VINA RESULT:      -6.8      4.932      7.409
REMARK  2 active torsions:
REMARK  status: ('A' for Active; 'I' for Inactive)
REMARK    1  A    between atoms: C5_5  and  N6_21 
REMARK    2  A    between atoms: C18_14  and  N17_19 
ROOT
HETATM    1  O1  MIQ B 502      -9.900 -14.611  -5.068  1.00142.91    -0.171 OA
HETATM    2  C2  MIQ B 502     -10.706 -13.475  -5.169  1.00141.17     0.195 A 
HETATM    3  C3  MIQ B 502     -10.952 -12.630  -6.459  1.00141.71     0.035 A 
HETATM    4  C4  MIQ B 502     -10.469 -12.739  -7.856  1.00142.86     0.046 A 
HETATM    5  C5  MIQ B 502     -10.879 -11.796  -8.832  1.00139.53     0.031 A 
HETATM    6  C12 MIQ B 502     -11.781 -10.716  -8.459  1.00139.38     0.030 A 
HETATM    7  C13 MIQ B 502     -12.246 -10.612  -7.120  1.00141.18     0.019 A 
HETATM    8  C14 MIQ B 502     -11.813 -11.606  -6.100  1.00138.77     0.033 A 
HETATM    9  C15 MIQ B 502     -12.104 -11.817  -4.578  1.00142.10     0.195 A 
HETATM   10  N17 MIQ B 502     -11.419 -12.891  -4.221  1.00139.42    -0.288 N 
HETATM   11  O16 MIQ B 502     -12.919 -11.027  -3.766  1.00148.93    -0.171 OA
ENDROOT
BRANCH  10  12
HETATM   12  C18 MIQ B 502     -11.438 -13.381  -2.856  1.00139.82     0.187 C 
HETATM   13  C19 MIQ B 502      -9.986 -13.476  -2.373  1.00140.06     0.247 C 
HETATM   14  O25 MIQ B 502      -9.276 -12.542  -2.495  1.00143.95    -0.271 OA
HETATM   15  N20 MIQ B 502      -9.461 -14.681  -1.763  1.00140.02    -0.296 N 
HETATM   16  H13 MIQ B 502      -8.509 -14.732  -1.458  1.00142.77     0.171 HD
HETATM   17  C21 MIQ B 502     -10.343 -15.812  -1.635  1.00142.22     0.224 C 
HETATM   18  C22 MIQ B 502     -11.378 -15.996  -2.728  1.00139.52     0.106 C 
HETATM   19  O24 MIQ B 502     -10.267 -16.554  -0.719  1.00146.13    -0.273 OA
HETATM   20  C23 MIQ B 502     -12.185 -14.712  -2.779  1.00139.15     0.045 C 
ENDBRANCH  10  12
BRANCH   5  21
HETATM   21  N6  MIQ B 502     -10.386 -11.906 -10.193  1.00140.95    -0.377 N 
HETATM   22  C7  MIQ B 502     -10.052 -10.688 -10.911  1.00142.12     0.149 C 
HETATM   23  C8  MIQ B 502     -10.183 -10.864 -12.419  1.00144.10     0.187 C 
HETATM   24  O9  MIQ B 502      -9.560 -12.023 -12.887  1.00148.65    -0.388 OA
HETATM   25  C10 MIQ B 502      -9.095 -12.988 -11.990  1.00147.44     0.187 C 
HETATM   26  C11 MIQ B 502      -9.825 -13.161 -10.662  1.00144.08     0.149 C 
ENDBRANCH   5  21
TORSDOF 2
ENDMDL
MODEL 9
REMARK VINA RESULT:      -6.8      3.014      8.652
REMARK  2 active torsions:
REMARK  status: ('A' for Active; 'I' for Inactive)
REMARK    1  A    between atoms: C5_5  and  N6_21 
REMARK    2  A    between atoms: C18_14  and  N17_19 
ROOT
HETATM    1  O1  MIQ B 502     -10.083 -10.287 -10.067  1.00142.91    -0.171 OA
HETATM    2  C2  MIQ B 502     -11.395 -10.661  -9.771  1.00141.17     0.195 A 
HETATM    3  C3  MIQ B 502     -11.906 -11.234  -8.411  1.00141.71     0.035 A 
HETATM    4  C4  MIQ B 502     -11.244 -11.538  -7.120  1.00142.86     0.046 A 
HETATM    5  C5  MIQ B 502     -11.992 -12.064  -6.037  1.00139.53     0.031 A 
HETATM    6  C12 MIQ B 502     -13.419 -12.307  -6.195  1.00139.38     0.030 A 
HETATM    7  C13 MIQ B 502     -14.054 -12.016  -7.432  1.00141.18     0.019 A 
HETATM    8  C14 MIQ B 502     -13.264 -11.461  -8.565  1.00138.77     0.033 A 
HETATM    9  C15 MIQ B 502     -13.598 -11.025 -10.029  1.00142.10     0.195 A 
HETATM   10  N17 MIQ B 502     -12.459 -10.606 -10.554  1.00139.42    -0.288 N 
HETATM   11  O16 MIQ B 502     -14.847 -11.072 -10.650  1.00148.93    -0.171 OA
ENDROOT
BRANCH  10  12
HETATM   12  C18 MIQ B 502     -12.385 -10.135 -11.925  1.00139.82     0.187 C 
HETATM   13  C19 MIQ B 502     -11.194 -10.831 -12.595  1.00140.06     0.247 C 
HETATM   14  O25 MIQ B 502     -11.100 -12.005 -12.528  1.00143.95    -0.271 OA
HETATM   15  N20 MIQ B 502     -10.181 -10.086 -13.315  1.00140.02    -0.296 N 
HETATM   16  H13 MIQ B 502      -9.405 -10.552 -13.743  1.00142.77     0.171 HD
HETATM   17  C21 MIQ B 502     -10.312  -8.653 -13.375  1.00142.22     0.224 C 
HETATM   18  C22 MIQ B 502     -10.925  -7.974 -12.165  1.00139.52     0.106 C 
HETATM   19  O24 MIQ B 502      -9.963  -8.040 -14.323  1.00146.13    -0.273 OA
HETATM   20  C23 MIQ B 502     -12.287  -8.611 -11.958  1.00139.15     0.045 C 
ENDBRANCH  10  12
BRANCH   5  21
HETATM   21  N6  MIQ B 502     -11.328 -12.371  -4.783  1.00140.95    -0.377 N 
HETATM   22  C7  MIQ B 502     -12.081 -12.240  -3.548  1.00142.12     0.149 C 
HETATM   23  C8  MIQ B 502     -11.176 -11.953  -2.357  1.00144.10     0.187 C 
HETATM   24  O9  MIQ B 502     -10.072 -12.806  -2.296  1.00148.65    -0.388 OA
HETATM   25  C10 MIQ B 502      -9.767 -13.648  -3.368  1.00147.44     0.187 C 
HETATM   26  C11 MIQ B 502     -10.130 -13.193  -4.778  1.00144.08     0.149 C 
ENDBRANCH   5  21
TORSDOF 2
ENDMDL
