MODEL 1
REMARK VINA RESULT:      -6.7      0.000      0.000
REMARK  2 active torsions:
REMARK  status: ('A' for Active; 'I' for Inactive)
REMARK    1  A    between atoms: C5_5  and  N6_21 
REMARK    2  A    between atoms: C18_14  and  N17_19 
ROOT
HETATM    1  O1  MIQ B 502      -1.073  14.868  -9.982  1.00142.91    -0.171 OA
HETATM    2  C2  MIQ B 502      -2.290  14.188 -10.067  1.00141.17     0.195 A 
HETATM    3  C3  MIQ B 502      -2.523  12.791 -10.726  1.00141.71     0.035 A 
HETATM    4  C4  MIQ B 502      -1.629  11.823 -11.404  1.00142.86     0.046 A 
HETATM    5  C5  MIQ B 502      -2.146  10.604 -11.912  1.00139.53     0.031 A 
HETATM    6  C12 MIQ B 502      -3.562  10.303 -11.764  1.00139.38     0.030 A 
HETATM    7  C13 MIQ B 502      -4.419  11.231 -11.113  1.00141.18     0.019 A 
HETATM    8  C14 MIQ B 502      -3.871  12.508 -10.580  1.00138.77     0.033 A 
HETATM    9  C15 MIQ B 502      -4.478  13.735  -9.825  1.00142.10     0.195 A 
HETATM   10  N17 MIQ B 502      -3.473  14.569  -9.615  1.00139.42    -0.288 N 
HETATM   11  O16 MIQ B 502      -5.812  13.911  -9.454  1.00148.93    -0.171 OA
ENDROOT
BRANCH  10  12
HETATM   12  C18 MIQ B 502      -3.671  15.840  -8.944  1.00139.82     0.187 C 
HETATM   13  C19 MIQ B 502      -3.071  16.936  -9.833  1.00140.06     0.247 C 
HETATM   14  O25 MIQ B 502      -3.378  16.987 -10.971  1.00143.95    -0.271 OA
HETATM   15  N20 MIQ B 502      -2.142  17.918  -9.312  1.00140.02    -0.296 N 
HETATM   16  H13 MIQ B 502      -1.752  18.625  -9.904  1.00142.77     0.171 HD
HETATM   17  C21 MIQ B 502      -1.775  17.829  -7.922  1.00142.22     0.224 C 
HETATM   18  C22 MIQ B 502      -1.701  16.437  -7.325  1.00139.52     0.106 C 
HETATM   19  O24 MIQ B 502      -1.548  18.795  -7.280  1.00146.13    -0.273 OA
HETATM   20  C23 MIQ B 502      -3.062  15.802  -7.543  1.00139.15     0.045 C 
ENDBRANCH  10  12
BRANCH   5  21
HETATM   21  N6  MIQ B 502      -1.261   9.672 -12.587  1.00140.95    -0.377 N 
HETATM   22  C7  MIQ B 502      -1.819   8.802 -13.608  1.00142.12     0.149 C 
HETATM   23  C8  MIQ B 502      -1.020   7.513 -13.755  1.00144.10     0.187 C 
HETATM   24  O9  MIQ B 502       0.356   7.734 -13.845  1.00148.65    -0.388 OA
HETATM   25  C10 MIQ B 502       0.888   8.999 -13.583  1.00147.44     0.187 C 
HETATM   26  C11 MIQ B 502       0.173   9.898 -12.580  1.00144.08     0.149 C 
ENDBRANCH   5  21
TORSDOF 2
ENDMDL
MODEL 2
REMARK VINA RESULT:      -6.7      3.493      5.624
REMARK  2 active torsions:
REMARK  status: ('A' for Active; 'I' for Inactive)
REMARK    1  A    between atoms: C5_5  and  N6_21 
REMARK    2  A    between atoms: C18_14  and  N17_19 
ROOT
HETATM    1  O1  MIQ B 502      -6.493  11.803 -14.040  1.00142.91    -0.171 OA
HETATM    2  C2  MIQ B 502      -5.772  12.240 -12.927  1.00141.17     0.195 A 
HETATM    3  C3  MIQ B 502      -4.353  11.750 -12.497  1.00141.71     0.035 A 
HETATM    4  C4  MIQ B 502      -3.398  10.769 -13.065  1.00142.86     0.046 A 
HETATM    5  C5  MIQ B 502      -2.151  10.534 -12.434  1.00139.53     0.031 A 
HETATM    6  C12 MIQ B 502      -1.807  11.262 -11.221  1.00139.38     0.030 A 
HETATM    7  C13 MIQ B 502      -2.721  12.204 -10.676  1.00141.18     0.019 A 
HETATM    8  C14 MIQ B 502      -4.028  12.448 -11.345  1.00138.77     0.033 A 
HETATM    9  C15 MIQ B 502      -5.253  13.377 -11.058  1.00142.10     0.195 A 
HETATM   10  N17 MIQ B 502      -6.125  13.141 -12.025  1.00139.42    -0.288 N 
HETATM   11  O16 MIQ B 502      -5.394  14.269  -9.995  1.00148.93    -0.171 OA
ENDROOT
BRANCH  10  12
HETATM   12  C18 MIQ B 502      -7.405  13.822 -12.074  1.00139.82     0.187 C 
HETATM   13  C19 MIQ B 502      -8.501  12.753 -12.159  1.00140.06     0.247 C 
HETATM   14  O25 MIQ B 502      -8.503  11.868 -11.379  1.00143.95    -0.271 OA
HETATM   15  N20 MIQ B 502      -9.540  12.803 -13.167  1.00140.02    -0.296 N 
HETATM   16  H13 MIQ B 502     -10.246  12.095 -13.216  1.00142.77     0.171 HD
HETATM   17  C21 MIQ B 502      -9.510  13.888 -14.114  1.00142.22     0.224 C 
HETATM   18  C22 MIQ B 502      -8.141  14.400 -14.520  1.00139.52     0.106 C 
HETATM   19  O24 MIQ B 502     -10.504  14.358 -14.547  1.00146.13    -0.273 OA
HETATM   20  C23 MIQ B 502      -7.437  14.810 -13.239  1.00139.15     0.045 C 
ENDBRANCH  10  12
BRANCH   5  21
HETATM   21  N6  MIQ B 502      -1.232   9.559 -12.993  1.00140.95    -0.377 N 
HETATM   22  C7  MIQ B 502       0.159   9.596 -12.574  1.00142.12     0.149 C 
HETATM   23  C8  MIQ B 502       1.088   9.022 -13.636  1.00144.10     0.187 C 
HETATM   24  O9  MIQ B 502       0.648   7.796 -14.138  1.00148.65    -0.388 OA
HETATM   25  C10 MIQ B 502      -0.630   7.322 -13.830  1.00147.44     0.187 C 
HETATM   26  C11 MIQ B 502      -1.744   8.335 -13.583  1.00144.08     0.149 C 
ENDBRANCH   5  21
TORSDOF 2
ENDMDL
MODEL 3
REMARK VINA RESULT:      -6.4      1.260      1.477
REMARK  2 active torsions:
REMARK  status: ('A' for Active; 'I' for Inactive)
REMARK    1  A    between atoms: C5_5  and  N6_21 
REMARK    2  A    between atoms: C18_14  and  N17_19 
ROOT
HETATM    1  O1  MIQ B 502      -1.367  14.297 -10.607  1.00142.91    -0.171 OA
HETATM    2  C2  MIQ B 502      -2.404  13.391 -10.840  1.00141.17     0.195 A 
HETATM    3  C3  MIQ B 502      -2.270  11.991 -11.520  1.00141.71     0.035 A 
HETATM    4  C4  MIQ B 502      -1.125  11.236 -12.080  1.00142.86     0.046 A 
HETATM    5  C5  MIQ B 502      -1.321   9.950 -12.645  1.00139.53     0.031 A 
HETATM    6  C12 MIQ B 502      -2.656   9.370 -12.674  1.00139.38     0.030 A 
HETATM    7  C13 MIQ B 502      -3.755  10.094 -12.136  1.00141.18     0.019 A 
HETATM    8  C14 MIQ B 502      -3.542  11.442 -11.542  1.00138.77     0.033 A 
HETATM    9  C15 MIQ B 502      -4.470  12.506 -10.871  1.00142.10     0.195 A 
HETATM   10  N17 MIQ B 502      -3.685  13.518 -10.540  1.00139.42    -0.288 N 
HETATM   11  O16 MIQ B 502      -5.847  12.405 -10.668  1.00148.93    -0.171 OA
ENDROOT
BRANCH  10  12
HETATM   12  C18 MIQ B 502      -4.214  14.709  -9.901  1.00139.82     0.187 C 
HETATM   13  C19 MIQ B 502      -3.792  15.919 -10.745  1.00140.06     0.247 C 
HETATM   14  O25 MIQ B 502      -4.002  15.912 -11.906  1.00143.95    -0.271 OA
HETATM   15  N20 MIQ B 502      -3.149  17.074 -10.155  1.00140.02    -0.296 N 
HETATM   16  H13 MIQ B 502      -2.873  17.855 -10.718  1.00142.77     0.171 HD
HETATM   17  C21 MIQ B 502      -2.894  17.055  -8.738  1.00142.22     0.224 C 
HETATM   18  C22 MIQ B 502      -2.571  15.707  -8.122  1.00139.52     0.106 C 
HETATM   19  O24 MIQ B 502      -2.941  18.041  -8.088  1.00146.13    -0.273 OA
HETATM   20  C23 MIQ B 502      -3.736  14.792  -8.452  1.00139.15     0.045 C 
ENDBRANCH  10  12
BRANCH   5  21
HETATM   21  N6  MIQ B 502      -0.193   9.228 -13.204  1.00140.95    -0.377 N 
HETATM   22  C7  MIQ B 502      -0.428   8.327 -14.319  1.00142.12     0.149 C 
HETATM   23  C8  MIQ B 502       0.607   7.211 -14.377  1.00144.10     0.187 C 
HETATM   24  O9  MIQ B 502       1.917   7.678 -14.253  1.00148.65    -0.388 OA
HETATM   25  C10 MIQ B 502       2.164   9.002 -13.882  1.00147.44     0.187 C 
HETATM   26  C11 MIQ B 502       1.159   9.705 -12.975  1.00144.08     0.149 C 
ENDBRANCH   5  21
TORSDOF 2
ENDMDL
MODEL 4
REMARK VINA RESULT:      -6.3      6.042      8.964
REMARK  2 active torsions:
REMARK  status: ('A' for Active; 'I' for Inactive)
REMARK    1  A    between atoms: C5_5  and  N6_21 
REMARK    2  A    between atoms: C18_14  and  N17_19 
ROOT
HETATM    1  O1  MIQ B 502      -8.557  11.655 -11.066  1.00142.91    -0.171 OA
HETATM    2  C2  MIQ B 502      -7.903  12.693 -11.732  1.00141.17     0.195 A 
HETATM    3  C3  MIQ B 502      -8.569  13.758 -12.660  1.00141.71     0.035 A 
HETATM    4  C4  MIQ B 502      -9.965  14.000 -13.095  1.00142.86     0.046 A 
HETATM    5  C5  MIQ B 502     -10.268  15.078 -13.965  1.00139.53     0.031 A 
HETATM    6  C12 MIQ B 502      -9.201  15.951 -14.432  1.00139.38     0.030 A 
HETATM    7  C13 MIQ B 502      -7.863  15.721 -14.015  1.00141.18     0.019 A 
HETATM    8  C14 MIQ B 502      -7.551  14.589 -13.099  1.00138.77     0.033 A 
HETATM    9  C15 MIQ B 502      -6.245  14.037 -12.440  1.00142.10     0.195 A 
HETATM   10  N17 MIQ B 502      -6.615  12.993 -11.716  1.00139.42    -0.288 N 
HETATM   11  O16 MIQ B 502      -4.954  14.545 -12.590  1.00148.93    -0.171 OA
ENDROOT
BRANCH  10  12
HETATM   12  C18 MIQ B 502      -5.650  12.211 -10.965  1.00139.82     0.187 C 
HETATM   13  C19 MIQ B 502      -4.981  13.145  -9.949  1.00140.06     0.247 C 
HETATM   14  O25 MIQ B 502      -5.656  13.807  -9.243  1.00143.95    -0.271 OA
HETATM   15  N20 MIQ B 502      -3.541  13.234  -9.827  1.00140.02    -0.296 N 
HETATM   16  H13 MIQ B 502      -3.116  13.853  -9.164  1.00142.77     0.171 HD
HETATM   17  C21 MIQ B 502      -2.737  12.425 -10.706  1.00142.22     0.224 C 
HETATM   18  C22 MIQ B 502      -3.289  12.177 -12.097  1.00139.52     0.106 C 
HETATM   19  O24 MIQ B 502      -1.703  11.972 -10.357  1.00146.13    -0.273 OA
HETATM   20  C23 MIQ B 502      -4.655  11.543 -11.913  1.00139.15     0.045 C 
ENDBRANCH  10  12
BRANCH   5  21
HETATM   21  N6  MIQ B 502     -11.638  15.294 -14.395  1.00140.95    -0.377 N 
HETATM   22  C7  MIQ B 502     -12.582  15.860 -13.447  1.00142.12     0.149 C 
HETATM   23  C8  MIQ B 502     -14.015  15.447 -13.757  1.00144.10     0.187 C 
HETATM   24  O9  MIQ B 502     -14.349  15.612 -15.102  1.00148.65    -0.388 OA
HETATM   25  C10 MIQ B 502     -13.361  15.901 -16.047  1.00147.44     0.187 C 
HETATM   26  C11 MIQ B 502     -11.950  15.373 -15.811  1.00144.08     0.149 C 
ENDBRANCH   5  21
TORSDOF 2
ENDMDL
MODEL 5
REMARK VINA RESULT:      -6.2      1.736      2.196
REMARK  2 active torsions:
REMARK  status: ('A' for Active; 'I' for Inactive)
REMARK    1  A    between atoms: C5_5  and  N6_21 
REMARK    2  A    between atoms: C18_14  and  N17_19 
ROOT
HETATM    1  O1  MIQ B 502      -0.059  13.605 -11.402  1.00142.91    -0.171 OA
HETATM    2  C2  MIQ B 502      -1.246  12.870 -11.433  1.00141.17     0.195 A 
HETATM    3  C3  MIQ B 502      -1.419  11.421 -11.991  1.00141.71     0.035 A 
HETATM    4  C4  MIQ B 502      -0.486  10.447 -12.604  1.00142.86     0.046 A 
HETATM    5  C5  MIQ B 502      -0.950   9.174 -13.022  1.00139.53     0.031 A 
HETATM    6  C12 MIQ B 502      -2.352   8.824 -12.846  1.00139.38     0.030 A 
HETATM    7  C13 MIQ B 502      -3.247   9.757 -12.257  1.00141.18     0.019 A 
HETATM    8  C14 MIQ B 502      -2.754  11.091 -11.819  1.00138.77     0.033 A 
HETATM    9  C15 MIQ B 502      -3.412  12.341 -11.149  1.00142.10     0.195 A 
HETATM   10  N17 MIQ B 502      -2.444  13.230 -11.003  1.00139.42    -0.288 N 
HETATM   11  O16 MIQ B 502      -4.752  12.485 -10.784  1.00148.93    -0.171 OA
ENDROOT
BRANCH  10  12
HETATM   12  C18 MIQ B 502      -2.695  14.535 -10.422  1.00139.82     0.187 C 
HETATM   13  C19 MIQ B 502      -2.178  15.593 -11.405  1.00140.06     0.247 C 
HETATM   14  O25 MIQ B 502      -2.514  15.542 -12.535  1.00143.95    -0.271 OA
HETATM   15  N20 MIQ B 502      -1.292  16.658 -10.985  1.00140.02    -0.296 N 
HETATM   16  H13 MIQ B 502      -0.956  17.338 -11.638  1.00142.77     0.171 HD
HETATM   17  C21 MIQ B 502      -0.887  16.693  -9.603  1.00142.22     0.224 C 
HETATM   18  C22 MIQ B 502      -0.723  15.356  -8.907  1.00139.52     0.106 C 
HETATM   19  O24 MIQ B 502      -0.699  17.715  -9.040  1.00146.13    -0.273 OA
HETATM   20  C23 MIQ B 502      -2.052  14.635  -9.040  1.00139.15     0.045 C 
ENDBRANCH  10  12
BRANCH   5  21
HETATM   21  N6  MIQ B 502      -0.028   8.236 -13.634  1.00140.95    -0.377 N 
HETATM   22  C7  MIQ B 502      -0.571   7.095 -14.351  1.00142.12     0.149 C 
HETATM   23  C8  MIQ B 502       0.397   5.919 -14.367  1.00144.10     0.187 C 
HETATM   24  O9  MIQ B 502       1.694   6.289 -14.729  1.00148.65    -0.388 OA
HETATM   25  C10 MIQ B 502       2.046   7.638 -14.821  1.00147.44     0.187 C 
HETATM   26  C11 MIQ B 502       1.339   8.640 -13.914  1.00144.08     0.149 C 
ENDBRANCH   5  21
TORSDOF 2
ENDMDL
MODEL 6
REMARK VINA RESULT:      -6.1      2.113      7.978
REMARK  2 active torsions:
REMARK  status: ('A' for Active; 'I' for Inactive)
REMARK    1  A    between atoms: C5_5  and  N6_21 
REMARK    2  A    between atoms: C18_14  and  N17_19 
ROOT
HETATM    1  O1  MIQ B 502       0.870  13.277 -11.812  1.00142.91    -0.171 OA
HETATM    2  C2  MIQ B 502      -0.463  12.925 -11.588  1.00141.17     0.195 A 
HETATM    3  C3  MIQ B 502      -1.444  13.616 -10.589  1.00141.71     0.035 A 
HETATM    4  C4  MIQ B 502      -1.308  14.754  -9.649  1.00142.86     0.046 A 
HETATM    5  C5  MIQ B 502      -2.407  15.162  -8.853  1.00139.53     0.031 A 
HETATM    6  C12 MIQ B 502      -3.678  14.459  -8.961  1.00139.38     0.030 A 
HETATM    7  C13 MIQ B 502      -3.809  13.369  -9.863  1.00141.18     0.019 A 
HETATM    8  C14 MIQ B 502      -2.652  12.946 -10.698  1.00138.77     0.033 A 
HETATM    9  C15 MIQ B 502      -2.419  11.833 -11.771  1.00142.10     0.195 A 
HETATM   10  N17 MIQ B 502      -1.162  11.961 -12.163  1.00139.42    -0.288 N 
HETATM   11  O16 MIQ B 502      -3.351  10.895 -12.218  1.00148.93    -0.171 OA
ENDROOT
BRANCH  10  12
HETATM   12  C18 MIQ B 502      -0.583  11.073 -13.154  1.00139.82     0.187 C 
HETATM   13  C19 MIQ B 502      -1.542  11.019 -14.349  1.00140.06     0.247 C 
HETATM   14  O25 MIQ B 502      -1.922  12.027 -14.830  1.00143.95    -0.271 OA
HETATM   15  N20 MIQ B 502      -1.992   9.761 -14.911  1.00140.02    -0.296 N 
HETATM   16  H13 MIQ B 502      -2.623   9.739 -15.688  1.00142.77     0.171 HD
HETATM   17  C21 MIQ B 502      -1.523   8.544 -14.301  1.00142.22     0.224 C 
HETATM   18  C22 MIQ B 502      -1.294   8.577 -12.802  1.00139.52     0.106 C 
HETATM   19  O24 MIQ B 502      -1.323   7.570 -14.940  1.00146.13    -0.273 OA
HETATM   20  C23 MIQ B 502      -0.307   9.701 -12.542  1.00139.15     0.045 C 
ENDBRANCH  10  12
BRANCH   5  21
HETATM   21  N6  MIQ B 502      -2.255  16.268  -7.926  1.00140.95    -0.377 N 
HETATM   22  C7  MIQ B 502      -3.237  16.428  -6.867  1.00142.12     0.149 C 
HETATM   23  C8  MIQ B 502      -3.354  17.877  -6.413  1.00144.10     0.187 C 
HETATM   24  O9  MIQ B 502      -2.115  18.473  -6.172  1.00148.65    -0.388 OA
HETATM   25  C10 MIQ B 502      -0.934  17.829  -6.553  1.00147.44     0.187 C 
HETATM   26  C11 MIQ B 502      -0.963  16.914  -7.772  1.00144.08     0.149 C 
ENDBRANCH   5  21
TORSDOF 2
ENDMDL
MODEL 7
REMARK VINA RESULT:      -6.1      3.765      5.496
REMARK  2 active torsions:
REMARK  status: ('A' for Active; 'I' for Inactive)
REMARK    1  A    between atoms: C5_5  and  N6_21 
REMARK    2  A    between atoms: C18_14  and  N17_19 
ROOT
HETATM    1  O1  MIQ B 502      -4.431  10.260 -13.425  1.00142.91    -0.171 OA
HETATM    2  C2  MIQ B 502      -3.172  10.577 -12.909  1.00141.17     0.195 A 
HETATM    3  C3  MIQ B 502      -1.841   9.810 -13.190  1.00141.71     0.035 A 
HETATM    4  C4  MIQ B 502      -1.502   8.621 -14.009  1.00142.86     0.046 A 
HETATM    5  C5  MIQ B 502      -0.167   8.149 -14.069  1.00139.53     0.031 A 
HETATM    6  C12 MIQ B 502       0.877   8.836 -13.322  1.00139.38     0.030 A 
HETATM    7  C13 MIQ B 502       0.553   9.976 -12.537  1.00141.18     0.019 A 
HETATM    8  C14 MIQ B 502      -0.850  10.469 -12.480  1.00138.77     0.033 A 
HETATM    9  C15 MIQ B 502      -1.571  11.652 -11.756  1.00142.10     0.195 A 
HETATM   10  N17 MIQ B 502      -2.845  11.570 -12.100  1.00139.42    -0.288 N 
HETATM   11  O16 MIQ B 502      -0.983  12.599 -10.914  1.00148.93    -0.171 OA
ENDROOT
BRANCH  10  12
HETATM   12  C18 MIQ B 502      -3.828  12.510 -11.596  1.00139.82     0.187 C 
HETATM   13  C19 MIQ B 502      -4.946  11.703 -10.923  1.00140.06     0.247 C 
HETATM   14  O25 MIQ B 502      -4.663  10.888 -10.119  1.00143.95    -0.271 OA
HETATM   15  N20 MIQ B 502      -6.342  11.917 -11.243  1.00140.02    -0.296 N 
HETATM   16  H13 MIQ B 502      -7.061  11.379 -10.802  1.00142.77     0.171 HD
HETATM   17  C21 MIQ B 502      -6.661  12.911 -12.236  1.00142.22     0.224 C 
HETATM   18  C22 MIQ B 502      -5.668  13.087 -13.368  1.00139.52     0.106 C 
HETATM   19  O24 MIQ B 502      -7.647  13.559 -12.166  1.00146.13    -0.273 OA
HETATM   20  C23 MIQ B 502      -4.332  13.409 -12.724  1.00139.15     0.045 C 
ENDBRANCH  10  12
BRANCH   5  21
HETATM   21  N6  MIQ B 502       0.147   6.975 -14.863  1.00140.95    -0.377 N 
HETATM   22  C7  MIQ B 502       1.485   6.416 -14.776  1.00142.12     0.149 C 
HETATM   23  C8  MIQ B 502       1.873   5.670 -16.046  1.00144.10     0.187 C 
HETATM   24  O9  MIQ B 502       0.883   4.785 -16.480  1.00148.65    -0.388 OA
HETATM   25  C10 MIQ B 502      -0.388   4.807 -15.902  1.00147.44     0.187 C 
HETATM   26  C11 MIQ B 502      -0.923   6.131 -15.365  1.00144.08     0.149 C 
ENDBRANCH   5  21
TORSDOF 2
ENDMDL
MODEL 8
REMARK VINA RESULT:      -6.0      5.681      8.200
REMARK  2 active torsions:
REMARK  status: ('A' for Active; 'I' for Inactive)
REMARK    1  A    between atoms: C5_5  and  N6_21 
REMARK    2  A    between atoms: C18_14  and  N17_19 
ROOT
HETATM    1  O1  MIQ B 502      -5.427  15.921 -13.990  1.00142.91    -0.171 OA
HETATM    2  C2  MIQ B 502      -5.950  14.911 -13.180  1.00141.17     0.195 A 
HETATM    3  C3  MIQ B 502      -7.449  14.480 -13.094  1.00141.71     0.035 A 
HETATM    4  C4  MIQ B 502      -8.683  14.945 -13.772  1.00142.86     0.046 A 
HETATM    5  C5  MIQ B 502      -9.932  14.341 -13.479  1.00139.53     0.031 A 
HETATM    6  C12 MIQ B 502     -10.001  13.258 -12.508  1.00139.38     0.030 A 
HETATM    7  C13 MIQ B 502      -8.818  12.812 -11.859  1.00141.18     0.019 A 
HETATM    8  C14 MIQ B 502      -7.509  13.449 -12.172  1.00138.77     0.033 A 
HETATM    9  C15 MIQ B 502      -6.039  13.237 -11.683  1.00142.10     0.195 A 
HETATM   10  N17 MIQ B 502      -5.306  14.121 -12.338  1.00139.42    -0.288 N 
HETATM   11  O16 MIQ B 502      -5.598  12.305 -10.742  1.00148.93    -0.171 OA
ENDROOT
BRANCH  10  12
HETATM   12  C18 MIQ B 502      -3.874  14.226 -12.122  1.00139.82     0.187 C 
HETATM   13  C19 MIQ B 502      -3.280  12.817 -12.230  1.00140.06     0.247 C 
HETATM   14  O25 MIQ B 502      -3.536  12.155 -13.172  1.00143.95    -0.271 OA
HETATM   15  N20 MIQ B 502      -2.407  12.275 -11.209  1.00140.02    -0.296 N 
HETATM   16  H13 MIQ B 502      -2.031  11.351 -11.288  1.00142.77     0.171 HD
HETATM   17  C21 MIQ B 502      -2.118  13.099 -10.063  1.00142.22     0.224 C 
HETATM   18  C22 MIQ B 502      -3.223  14.025  -9.594  1.00139.52     0.106 C 
HETATM   19  O24 MIQ B 502      -1.069  13.057  -9.521  1.00146.13    -0.273 OA
HETATM   20  C23 MIQ B 502      -3.587  14.899 -10.781  1.00139.15     0.045 C 
ENDBRANCH  10  12
BRANCH   5  21
HETATM   21  N6  MIQ B 502     -11.134  14.815 -14.139  1.00140.95    -0.377 N 
HETATM   22  C7  MIQ B 502     -12.089  15.593 -13.368  1.00142.12     0.149 C 
HETATM   23  C8  MIQ B 502     -13.502  15.469 -13.922  1.00144.10     0.187 C 
HETATM   24  O9  MIQ B 502     -13.562  15.652 -15.305  1.00148.65    -0.388 OA
HETATM   25  C10 MIQ B 502     -12.390  15.702 -16.064  1.00147.44     0.187 C 
HETATM   26  C11 MIQ B 502     -11.178  14.907 -15.588  1.00144.08     0.149 C 
ENDBRANCH   5  21
TORSDOF 2
ENDMDL
MODEL 9
REMARK VINA RESULT:      -6.0      2.550      4.346
REMARK  2 active torsions:
REMARK  status: ('A' for Active; 'I' for Inactive)
REMARK    1  A    between atoms: C5_5  and  N6_21 
REMARK    2  A    between atoms: C18_14  and  N17_19 
ROOT
HETATM    1  O1  MIQ B 502       0.849  12.817 -13.004  1.00142.91    -0.171 OA
HETATM    2  C2  MIQ B 502      -0.192  11.929 -12.722  1.00141.17     0.195 A 
HETATM    3  C3  MIQ B 502      -0.251  10.420 -13.121  1.00141.71     0.035 A 
HETATM    4  C4  MIQ B 502       0.676   9.522 -13.850  1.00142.86     0.046 A 
HETATM    5  C5  MIQ B 502       0.338   8.162 -14.062  1.00139.53     0.031 A 
HETATM    6  C12 MIQ B 502      -0.928   7.646 -13.561  1.00139.38     0.030 A 
HETATM    7  C13 MIQ B 502      -1.816   8.506 -12.861  1.00141.18     0.019 A 
HETATM    8  C14 MIQ B 502      -1.454   9.933 -12.639  1.00138.77     0.033 A 
HETATM    9  C15 MIQ B 502      -2.146  11.146 -11.936  1.00142.10     0.195 A 
HETATM   10  N17 MIQ B 502      -1.317  12.168 -12.070  1.00139.42    -0.288 N 
HETATM   11  O16 MIQ B 502      -3.389  11.146 -11.300  1.00148.93    -0.171 OA
ENDROOT
BRANCH  10  12
HETATM   12  C18 MIQ B 502      -1.642  13.481 -11.545  1.00139.82     0.187 C 
HETATM   13  C19 MIQ B 502      -1.959  13.323 -10.053  1.00140.06     0.247 C 
HETATM   14  O25 MIQ B 502      -1.197  12.748  -9.360  1.00143.95    -0.271 OA
HETATM   15  N20 MIQ B 502      -3.167  13.866  -9.467  1.00140.02    -0.296 N 
HETATM   16  H13 MIQ B 502      -3.366  13.750  -8.493  1.00142.77     0.171 HD
HETATM   17  C21 MIQ B 502      -4.087  14.554 -10.335  1.00142.22     0.224 C 
HETATM   18  C22 MIQ B 502      -4.190  14.045 -11.760  1.00139.52     0.106 C 
HETATM   19  O24 MIQ B 502      -4.725  15.474  -9.955  1.00146.13    -0.273 OA
HETATM   20  C23 MIQ B 502      -2.788  14.103 -12.340  1.00139.15     0.045 C 
ENDBRANCH  10  12
BRANCH   5  21
HETATM   21  N6  MIQ B 502       1.248   7.298 -14.790  1.00140.95    -0.377 N 
HETATM   22  C7  MIQ B 502       0.980   5.870 -14.816  1.00142.12     0.149 C 
HETATM   23  C8  MIQ B 502       2.252   5.056 -15.014  1.00144.10     0.187 C 
HETATM   24  O9  MIQ B 502       3.045   5.532 -16.059  1.00148.65    -0.388 OA
HETATM   25  C10 MIQ B 502       2.762   6.762 -16.659  1.00147.44     0.187 C 
HETATM   26  C11 MIQ B 502       2.117   7.855 -15.812  1.00144.08     0.149 C 
ENDBRANCH   5  21
TORSDOF 2
ENDMDL
