MODEL 1
REMARK VINA RESULT:      -6.6      0.000      0.000
REMARK  2 active torsions:
REMARK  status: ('A' for Active; 'I' for Inactive)
REMARK    1  A    between atoms: C5_5  and  N6_21 
REMARK    2  A    between atoms: C18_14  and  N17_19 
ROOT
HETATM    1  O1  MIQ B 502       5.297  -5.537  10.580  1.00142.91    -0.171 OA
HETATM    2  C2  MIQ B 502       5.391  -6.676  11.383  1.00141.17     0.195 A 
HETATM    3  C3  MIQ B 502       6.233  -6.815  12.691  1.00141.71     0.035 A 
HETATM    4  C4  MIQ B 502       7.115  -5.888  13.438  1.00142.86     0.046 A 
HETATM    5  C5  MIQ B 502       7.759  -6.313  14.628  1.00139.53     0.031 A 
HETATM    6  C12 MIQ B 502       7.552  -7.669  15.116  1.00139.38     0.030 A 
HETATM    7  C13 MIQ B 502       6.706  -8.558  14.400  1.00141.18     0.019 A 
HETATM    8  C14 MIQ B 502       6.030  -8.105  13.153  1.00138.77     0.033 A 
HETATM    9  C15 MIQ B 502       5.057  -8.771  12.127  1.00142.10     0.195 A 
HETATM   10  N17 MIQ B 502       4.800  -7.847  11.215  1.00139.42    -0.288 N 
HETATM   11  O16 MIQ B 502       4.564 -10.076  12.168  1.00148.93    -0.171 OA
ENDROOT
BRANCH  10  12
HETATM   12  C18 MIQ B 502       3.932  -8.119  10.085  1.00139.82     0.187 C 
HETATM   13  C19 MIQ B 502       4.727  -7.832   8.805  1.00140.06     0.247 C 
HETATM   14  O25 MIQ B 502       5.794  -8.317   8.669  1.00143.95    -0.271 OA
HETATM   15  N20 MIQ B 502       4.203  -6.984   7.754  1.00140.02    -0.296 N 
HETATM   16  H13 MIQ B 502       4.735  -6.799   6.926  1.00142.77     0.171 HD
HETATM   17  C21 MIQ B 502       2.903  -6.395   7.948  1.00142.22     0.224 C 
HETATM   18  C22 MIQ B 502       2.527  -6.028   9.371  1.00139.52     0.106 C 
HETATM   19  O24 MIQ B 502       2.166  -6.213   7.043  1.00146.13    -0.273 OA
HETATM   20  C23 MIQ B 502       2.647  -7.299  10.191  1.00139.15     0.045 C 
ENDBRANCH  10  12
BRANCH   5  21
HETATM   21  N6  MIQ B 502       8.631  -5.399  15.342  1.00140.95    -0.377 N 
HETATM   22  C7  MIQ B 502       8.692  -4.014  14.907  1.00142.12     0.149 C 
HETATM   23  C8  MIQ B 502      10.024  -3.365  15.258  1.00144.10     0.187 C 
HETATM   24  O9  MIQ B 502      10.407  -3.592  16.581  1.00148.65    -0.388 OA
HETATM   25  C10 MIQ B 502       9.717  -4.517  17.369  1.00147.44     0.187 C 
HETATM   26  C11 MIQ B 502       9.074  -5.720  16.687  1.00144.08     0.149 C 
ENDBRANCH   5  21
TORSDOF 2
ENDMDL
MODEL 2
REMARK VINA RESULT:      -6.6      5.207     10.283
REMARK  2 active torsions:
REMARK  status: ('A' for Active; 'I' for Inactive)
REMARK    1  A    between atoms: C5_5  and  N6_21 
REMARK    2  A    between atoms: C18_14  and  N17_19 
ROOT
HETATM    1  O1  MIQ B 502      13.894  -2.565  12.328  1.00142.91    -0.171 OA
HETATM    2  C2  MIQ B 502      13.627  -3.017  13.622  1.00141.17     0.195 A 
HETATM    3  C3  MIQ B 502      12.216  -3.160  14.276  1.00141.71     0.035 A 
HETATM    4  C4  MIQ B 502      10.838  -2.897  13.796  1.00142.86     0.046 A 
HETATM    5  C5  MIQ B 502       9.727  -3.131  14.644  1.00139.53     0.031 A 
HETATM    6  C12 MIQ B 502       9.941  -3.634  15.994  1.00139.38     0.030 A 
HETATM    7  C13 MIQ B 502      11.261  -3.888  16.454  1.00141.18     0.019 A 
HETATM    8  C14 MIQ B 502      12.424  -3.642  15.558  1.00138.77     0.033 A 
HETATM    9  C15 MIQ B 502      13.973  -3.800  15.700  1.00142.10     0.195 A 
HETATM   10  N17 MIQ B 502      14.487  -3.415  14.544  1.00139.42    -0.288 N 
HETATM   11  O16 MIQ B 502      14.668  -4.252  16.824  1.00148.93    -0.171 OA
ENDROOT
BRANCH  10  12
HETATM   12  C18 MIQ B 502      15.920  -3.413  14.314  1.00139.82     0.187 C 
HETATM   13  C19 MIQ B 502      16.315  -2.011  13.836  1.00140.06     0.247 C 
HETATM   14  O25 MIQ B 502      15.968  -1.071  14.459  1.00143.95    -0.271 OA
HETATM   15  N20 MIQ B 502      17.110  -1.807  12.643  1.00140.02    -0.296 N 
HETATM   16  H13 MIQ B 502      17.356  -0.886  12.338  1.00142.77     0.171 HD
HETATM   17  C21 MIQ B 502      17.514  -2.969  11.894  1.00142.22     0.224 C 
HETATM   18  C22 MIQ B 502      16.547  -4.138  11.878  1.00139.52     0.106 C 
HETATM   19  O24 MIQ B 502      18.549  -3.010  11.326  1.00146.13    -0.273 OA
HETATM   20  C23 MIQ B 502      16.302  -4.515  13.327  1.00139.15     0.045 C 
ENDBRANCH  10  12
BRANCH   5  21
HETATM   21  N6  MIQ B 502       8.384  -2.854  14.166  1.00140.95    -0.377 N 
HETATM   22  C7  MIQ B 502       7.682  -3.891  13.430  1.00142.12     0.149 C 
HETATM   23  C8  MIQ B 502       6.647  -3.310  12.476  1.00144.10     0.187 C 
HETATM   24  O9  MIQ B 502       5.832  -2.349  13.079  1.00148.65    -0.388 OA
HETATM   25  C10 MIQ B 502       6.141  -1.854  14.348  1.00147.44     0.187 C 
HETATM   26  C11 MIQ B 502       7.606  -1.786  14.768  1.00144.08     0.149 C 
ENDBRANCH   5  21
TORSDOF 2
ENDMDL
MODEL 3
REMARK VINA RESULT:      -6.6      4.647      8.395
REMARK  2 active torsions:
REMARK  status: ('A' for Active; 'I' for Inactive)
REMARK    1  A    between atoms: C5_5  and  N6_21 
REMARK    2  A    between atoms: C18_14  and  N17_19 
ROOT
HETATM    1  O1  MIQ B 502       5.846 -11.556  14.187  1.00142.91    -0.171 OA
HETATM    2  C2  MIQ B 502       6.657 -11.458  13.054  1.00141.17     0.195 A 
HETATM    3  C3  MIQ B 502       6.369 -10.595  11.785  1.00141.71     0.035 A 
HETATM    4  C4  MIQ B 502       5.263  -9.687  11.400  1.00142.86     0.046 A 
HETATM    5  C5  MIQ B 502       5.283  -9.024  10.147  1.00139.53     0.031 A 
HETATM    6  C12 MIQ B 502       6.397  -9.237   9.234  1.00139.38     0.030 A 
HETATM    7  C13 MIQ B 502       7.458 -10.107   9.603  1.00141.18     0.019 A 
HETATM    8  C14 MIQ B 502       7.433 -10.798  10.922  1.00138.77     0.033 A 
HETATM    9  C15 MIQ B 502       8.388 -11.793  11.659  1.00142.10     0.195 A 
HETATM   10  N17 MIQ B 502       7.814 -12.055  12.822  1.00139.42    -0.288 N 
HETATM   11  O16 MIQ B 502       9.597 -12.301  11.181  1.00148.93    -0.171 OA
ENDROOT
BRANCH  10  12
HETATM   12  C18 MIQ B 502       8.418 -12.967  13.776  1.00139.82     0.187 C 
HETATM   13  C19 MIQ B 502       7.363 -14.014  14.155  1.00140.06     0.247 C 
HETATM   14  O25 MIQ B 502       6.789 -14.588  13.299  1.00143.95    -0.271 OA
HETATM   15  N20 MIQ B 502       7.055 -14.322  15.536  1.00140.02    -0.296 N 
HETATM   16  H13 MIQ B 502       6.360 -15.003  15.770  1.00142.77     0.171 HD
HETATM   17  C21 MIQ B 502       7.762 -13.600  16.562  1.00142.22     0.224 C 
HETATM   18  C22 MIQ B 502       8.132 -12.163  16.251  1.00139.52     0.106 C 
HETATM   19  O24 MIQ B 502       8.043 -14.106  17.592  1.00146.13    -0.273 OA
HETATM   20  C23 MIQ B 502       8.959 -12.196  14.979  1.00139.15     0.045 C 
ENDBRANCH  10  12
BRANCH   5  21
HETATM   21  N6  MIQ B 502       4.185  -8.149   9.777  1.00140.95    -0.377 N 
HETATM   22  C7  MIQ B 502       3.380  -7.560  10.833  1.00142.12     0.149 C 
HETATM   23  C8  MIQ B 502       1.969  -7.237  10.359  1.00144.10     0.187 C 
HETATM   24  O9  MIQ B 502       1.947  -6.555   9.141  1.00148.65    -0.388 OA
HETATM   25  C10 MIQ B 502       3.112  -6.426   8.381  1.00147.44     0.187 C 
HETATM   26  C11 MIQ B 502       4.163  -7.529   8.464  1.00144.08     0.149 C 
ENDBRANCH   5  21
TORSDOF 2
ENDMDL
MODEL 4
REMARK VINA RESULT:      -6.3      3.229      5.340
REMARK  2 active torsions:
REMARK  status: ('A' for Active; 'I' for Inactive)
REMARK    1  A    between atoms: C5_5  and  N6_21 
REMARK    2  A    between atoms: C18_14  and  N17_19 
ROOT
HETATM    1  O1  MIQ B 502       4.501  -9.182  10.095  1.00142.91    -0.171 OA
HETATM    2  C2  MIQ B 502       5.060  -8.551  11.209  1.00141.17     0.195 A 
HETATM    3  C3  MIQ B 502       5.995  -9.213  12.271  1.00141.71     0.035 A 
HETATM    4  C4  MIQ B 502       6.544 -10.580  12.435  1.00142.86     0.046 A 
HETATM    5  C5  MIQ B 502       7.389 -10.887  13.531  1.00139.53     0.031 A 
HETATM    6  C12 MIQ B 502       7.719  -9.852  14.500  1.00139.38     0.030 A 
HETATM    7  C13 MIQ B 502       7.194  -8.541  14.343  1.00141.18     0.019 A 
HETATM    8  C14 MIQ B 502       6.309  -8.224  13.189  1.00138.77     0.033 A 
HETATM    9  C15 MIQ B 502       5.566  -6.941  12.693  1.00142.10     0.195 A 
HETATM   10  N17 MIQ B 502       4.927  -7.292  11.590  1.00139.42    -0.288 N 
HETATM   11  O16 MIQ B 502       5.577  -5.683  13.298  1.00148.93    -0.171 OA
ENDROOT
BRANCH  10  12
HETATM   12  C18 MIQ B 502       4.108  -6.346  10.855  1.00139.82     0.187 C 
HETATM   13  C19 MIQ B 502       2.699  -6.939  10.737  1.00140.06     0.247 C 
HETATM   14  O25 MIQ B 502       2.156  -7.330  11.708  1.00143.95    -0.271 OA
HETATM   15  N20 MIQ B 502       2.012  -7.029   9.465  1.00140.02    -0.296 N 
HETATM   16  H13 MIQ B 502       1.095  -7.424   9.400  1.00142.77     0.171 HD
HETATM   17  C21 MIQ B 502       2.700  -6.554   8.292  1.00142.22     0.224 C 
HETATM   18  C22 MIQ B 502       4.206  -6.733   8.267  1.00139.52     0.106 C 
HETATM   19  O24 MIQ B 502       2.118  -6.047   7.397  1.00146.13    -0.273 OA
HETATM   20  C23 MIQ B 502       4.744  -6.032   9.501  1.00139.15     0.045 C 
ENDBRANCH  10  12
BRANCH   5  21
HETATM   21  N6  MIQ B 502       7.908 -12.234  13.687  1.00140.95    -0.377 N 
HETATM   22  C7  MIQ B 502       8.095 -13.047  12.498  1.00142.12     0.149 C 
HETATM   23  C8  MIQ B 502       8.006 -14.536  12.808  1.00144.10     0.187 C 
HETATM   24  O9  MIQ B 502       8.773 -14.908  13.913  1.00148.65    -0.388 OA
HETATM   25  C10 MIQ B 502       9.344 -13.936  14.738  1.00147.44     0.187 C 
HETATM   26  C11 MIQ B 502       8.627 -12.599  14.895  1.00144.08     0.149 C 
ENDBRANCH   5  21
TORSDOF 2
ENDMDL
MODEL 5
REMARK VINA RESULT:      -6.2      3.711      6.079
REMARK  2 active torsions:
REMARK  status: ('A' for Active; 'I' for Inactive)
REMARK    1  A    between atoms: C5_5  and  N6_21 
REMARK    2  A    between atoms: C18_14  and  N17_19 
ROOT
HETATM    1  O1  MIQ B 502       5.512  -7.113  13.949  1.00142.91    -0.171 OA
HETATM    2  C2  MIQ B 502       5.575  -7.579  12.634  1.00141.17     0.195 A 
HETATM    3  C3  MIQ B 502       6.174  -8.943  12.167  1.00141.71     0.035 A 
HETATM    4  C4  MIQ B 502       6.805 -10.078  12.883  1.00142.86     0.046 A 
HETATM    5  C5  MIQ B 502       7.262 -11.212  12.166  1.00139.53     0.031 A 
HETATM    6  C12 MIQ B 502       7.110 -11.263  10.719  1.00139.38     0.030 A 
HETATM    7  C13 MIQ B 502       6.504 -10.176  10.033  1.00141.18     0.019 A 
HETATM    8  C14 MIQ B 502       6.024  -8.988  10.791  1.00138.77     0.033 A 
HETATM    9  C15 MIQ B 502       5.327  -7.644  10.401  1.00142.10     0.195 A 
HETATM   10  N17 MIQ B 502       5.147  -6.984  11.534  1.00139.42    -0.288 N 
HETATM   11  O16 MIQ B 502       4.971  -7.228   9.117  1.00148.93    -0.171 OA
ENDROOT
BRANCH  10  12
HETATM   12  C18 MIQ B 502       4.533  -5.670  11.555  1.00139.82     0.187 C 
HETATM   13  C19 MIQ B 502       5.452  -4.737  12.354  1.00140.06     0.247 C 
HETATM   14  O25 MIQ B 502       6.597  -4.683  12.078  1.00143.95    -0.271 OA
HETATM   15  N20 MIQ B 502       4.951  -3.914  13.435  1.00140.02    -0.296 N 
HETATM   16  H13 MIQ B 502       5.562  -3.314  13.953  1.00142.77     0.171 HD
HETATM   17  C21 MIQ B 502       3.550  -4.005  13.760  1.00142.22     0.224 C 
HETATM   18  C22 MIQ B 502       2.895  -5.360  13.575  1.00139.52     0.106 C 
HETATM   19  O24 MIQ B 502       2.943  -3.067  14.145  1.00146.13    -0.273 OA
HETATM   20  C23 MIQ B 502       3.118  -5.754  12.126  1.00139.15     0.045 C 
ENDBRANCH  10  12
BRANCH   5  21
HETATM   21  N6  MIQ B 502       7.891 -12.310  12.878  1.00140.95    -0.377 N 
HETATM   22  C7  MIQ B 502       8.420 -13.424  12.111  1.00142.12     0.149 C 
HETATM   23  C8  MIQ B 502       8.443 -14.713  12.921  1.00144.10     0.187 C 
HETATM   24  O9  MIQ B 502       8.998 -14.547  14.191  1.00148.65    -0.388 OA
HETATM   25  C10 MIQ B 502       9.264 -13.267  14.685  1.00147.44     0.187 C 
HETATM   26  C11 MIQ B 502       8.377 -12.112  14.233  1.00144.08     0.149 C 
ENDBRANCH   5  21
TORSDOF 2
ENDMDL
MODEL 6
REMARK VINA RESULT:      -6.1      3.542      6.073
REMARK  2 active torsions:
REMARK  status: ('A' for Active; 'I' for Inactive)
REMARK    1  A    between atoms: C5_5  and  N6_21 
REMARK    2  A    between atoms: C18_14  and  N17_19 
ROOT
HETATM    1  O1  MIQ B 502       7.352  -9.430  14.419  1.00142.91    -0.171 OA
HETATM    2  C2  MIQ B 502       6.777  -9.201  13.167  1.00141.17     0.195 A 
HETATM    3  C3  MIQ B 502       6.188  -7.848  12.656  1.00141.71     0.035 A 
HETATM    4  C4  MIQ B 502       6.058  -6.500  13.259  1.00142.86     0.046 A 
HETATM    5  C5  MIQ B 502       5.463  -5.441  12.527  1.00139.53     0.031 A 
HETATM    6  C12 MIQ B 502       4.978  -5.681  11.176  1.00139.38     0.030 A 
HETATM    7  C13 MIQ B 502       5.103  -6.972  10.597  1.00141.18     0.019 A 
HETATM    8  C14 MIQ B 502       5.730  -8.079  11.369  1.00138.77     0.033 A 
HETATM    9  C15 MIQ B 502       6.038  -9.585  11.079  1.00142.10     0.195 A 
HETATM   10  N17 MIQ B 502       6.617 -10.056  12.171  1.00139.42    -0.288 N 
HETATM   11  O16 MIQ B 502       5.754 -10.285   9.906  1.00148.93    -0.171 OA
ENDROOT
BRANCH  10  12
HETATM   12  C18 MIQ B 502       7.032 -11.443  12.271  1.00139.82     0.187 C 
HETATM   13  C19 MIQ B 502       6.479 -12.003  13.586  1.00140.06     0.247 C 
HETATM   14  O25 MIQ B 502       5.333 -11.868  13.834  1.00143.95    -0.271 OA
HETATM   15  N20 MIQ B 502       7.323 -12.702  14.534  1.00140.02    -0.296 N 
HETATM   16  H13 MIQ B 502       6.951 -13.057  15.392  1.00142.77     0.171 HD
HETATM   17  C21 MIQ B 502       8.720 -12.846  14.214  1.00142.22     0.224 C 
HETATM   18  C22 MIQ B 502       9.361 -11.713  13.436  1.00139.52     0.106 C 
HETATM   19  O24 MIQ B 502       9.333 -13.803  14.538  1.00146.13    -0.273 OA
HETATM   20  C23 MIQ B 502       8.552 -11.552  12.162  1.00139.15     0.045 C 
ENDBRANCH  10  12
BRANCH   5  21
HETATM   21  N6  MIQ B 502       5.330  -4.130  13.136  1.00140.95    -0.377 N 
HETATM   22  C7  MIQ B 502       6.274  -3.092  12.763  1.00142.12     0.149 C 
HETATM   23  C8  MIQ B 502       6.446  -2.056  13.866  1.00144.10     0.187 C 
HETATM   24  O9  MIQ B 502       5.229  -1.600  14.378  1.00148.65    -0.388 OA
HETATM   25  C10 MIQ B 502       4.035  -2.239  14.037  1.00147.44     0.187 C 
HETATM   26  C11 MIQ B 502       4.067  -3.733  13.733  1.00144.08     0.149 C 
ENDBRANCH   5  21
TORSDOF 2
ENDMDL
MODEL 7
REMARK VINA RESULT:      -6.1      5.658      8.388
REMARK  2 active torsions:
REMARK  status: ('A' for Active; 'I' for Inactive)
REMARK    1  A    between atoms: C5_5  and  N6_21 
REMARK    2  A    between atoms: C18_14  and  N17_19 
ROOT
HETATM    1  O1  MIQ B 502       9.645  -2.939  13.792  1.00142.91    -0.171 OA
HETATM    2  C2  MIQ B 502      10.480  -3.288  14.856  1.00141.17     0.195 A 
HETATM    3  C3  MIQ B 502      12.040  -3.353  14.822  1.00141.71     0.035 A 
HETATM    4  C4  MIQ B 502      13.048  -3.091  13.767  1.00142.86     0.046 A 
HETATM    5  C5  MIQ B 502      14.430  -3.237  14.045  1.00139.53     0.031 A 
HETATM    6  C12 MIQ B 502      14.861  -3.645  15.375  1.00139.38     0.030 A 
HETATM    7  C13 MIQ B 502      13.895  -3.895  16.387  1.00141.18     0.019 A 
HETATM    8  C14 MIQ B 502      12.445  -3.738  16.090  1.00138.77     0.033 A 
HETATM    9  C15 MIQ B 502      11.129  -3.913  16.916  1.00142.10     0.195 A 
HETATM   10  N17 MIQ B 502      10.138  -3.624  16.088  1.00139.42    -0.288 N 
HETATM   11  O16 MIQ B 502      11.027  -4.298  18.253  1.00148.93    -0.171 OA
ENDROOT
BRANCH  10  12
HETATM   12  C18 MIQ B 502       8.752  -3.695  16.513  1.00139.82     0.187 C 
HETATM   13  C19 MIQ B 502       7.991  -4.542  15.485  1.00140.06     0.247 C 
HETATM   14  O25 MIQ B 502       8.415  -5.602  15.185  1.00143.95    -0.271 OA
HETATM   15  N20 MIQ B 502       6.761  -4.081  14.875  1.00140.02    -0.296 N 
HETATM   16  H13 MIQ B 502       6.278  -4.640  14.201  1.00142.77     0.171 HD
HETATM   17  C21 MIQ B 502       6.269  -2.780  15.250  1.00142.22     0.224 C 
HETATM   18  C22 MIQ B 502       7.310  -1.724  15.569  1.00139.52     0.106 C 
HETATM   19  O24 MIQ B 502       5.111  -2.551  15.311  1.00146.13    -0.273 OA
HETATM   20  C23 MIQ B 502       8.174  -2.291  16.680  1.00139.15     0.045 C 
ENDBRANCH  10  12
BRANCH   5  21
HETATM   21  N6  MIQ B 502      15.406  -2.992  12.998  1.00140.95    -0.377 N 
HETATM   22  C7  MIQ B 502      15.363  -3.817  11.803  1.00142.12     0.149 C 
HETATM   23  C8  MIQ B 502      16.728  -3.919  11.134  1.00144.10     0.187 C 
HETATM   24  O9  MIQ B 502      17.353  -2.679  10.982  1.00148.65    -0.388 OA
HETATM   25  C10 MIQ B 502      16.834  -1.544  11.610  1.00147.44     0.187 C 
HETATM   26  C11 MIQ B 502      16.094  -1.715  12.933  1.00144.08     0.149 C 
ENDBRANCH   5  21
TORSDOF 2
ENDMDL
MODEL 8
REMARK VINA RESULT:      -6.1     20.527     22.229
REMARK  2 active torsions:
REMARK  status: ('A' for Active; 'I' for Inactive)
REMARK    1  A    between atoms: C5_5  and  N6_21 
REMARK    2  A    between atoms: C18_14  and  N17_19 
ROOT
HETATM    1  O1  MIQ B 502      21.809  -9.179  -1.401  1.00142.91    -0.171 OA
HETATM    2  C2  MIQ B 502      22.413  -9.787  -0.298  1.00141.17     0.195 A 
HETATM    3  C3  MIQ B 502      22.771 -11.301  -0.162  1.00141.71     0.035 A 
HETATM    4  C4  MIQ B 502      22.612 -12.471  -1.059  1.00142.86     0.046 A 
HETATM    5  C5  MIQ B 502      23.047 -13.755  -0.645  1.00139.53     0.031 A 
HETATM    6  C12 MIQ B 502      23.655 -13.924   0.667  1.00139.38     0.030 A 
HETATM    7  C13 MIQ B 502      23.809 -12.803   1.526  1.00141.18     0.019 A 
HETATM    8  C14 MIQ B 502      23.352 -11.457   1.086  1.00138.77     0.033 A 
HETATM    9  C15 MIQ B 502      23.354 -10.031   1.728  1.00142.10     0.195 A 
HETATM   10  N17 MIQ B 502      22.804  -9.227   0.833  1.00139.42    -0.288 N 
HETATM   11  O16 MIQ B 502      23.838  -9.684   2.991  1.00148.93    -0.171 OA
ENDROOT
BRANCH  10  12
HETATM   12  C18 MIQ B 502      22.625  -7.811   1.096  1.00139.82     0.187 C 
HETATM   13  C19 MIQ B 502      21.155  -7.468   0.829  1.00140.06     0.247 C 
HETATM   14  O25 MIQ B 502      20.310  -8.120   1.333  1.00143.95    -0.271 OA
HETATM   15  N20 MIQ B 502      20.771  -6.360  -0.023  1.00140.02    -0.296 N 
HETATM   16  H13 MIQ B 502      19.808  -6.151  -0.194  1.00142.77     0.171 HD
HETATM   17  C21 MIQ B 502      21.820  -5.586  -0.635  1.00142.22     0.224 C 
HETATM   18  C22 MIQ B 502      23.084  -6.332  -1.016  1.00139.52     0.106 C 
HETATM   19  O24 MIQ B 502      21.700  -4.426  -0.825  1.00146.13    -0.273 OA
HETATM   20  C23 MIQ B 502      23.598  -6.986   0.254  1.00139.15     0.045 C 
ENDBRANCH  10  12
BRANCH   5  21
HETATM   21  N6  MIQ B 502      22.872 -14.894  -1.527  1.00140.95    -0.377 N 
HETATM   22  C7  MIQ B 502      23.436 -16.173  -1.131  1.00142.12     0.149 C 
HETATM   23  C8  MIQ B 502      23.753 -17.052  -2.335  1.00144.10     0.187 C 
HETATM   24  O9  MIQ B 502      22.701 -17.122  -3.249  1.00148.65    -0.388 OA
HETATM   25  C10 MIQ B 502      21.601 -16.268  -3.129  1.00147.44     0.187 C 
HETATM   26  C11 MIQ B 502      21.814 -14.885  -2.523  1.00144.08     0.149 C 
ENDBRANCH   5  21
TORSDOF 2
ENDMDL
MODEL 9
REMARK VINA RESULT:      -6.1     10.403     11.883
REMARK  2 active torsions:
REMARK  status: ('A' for Active; 'I' for Inactive)
REMARK    1  A    between atoms: C5_5  and  N6_21 
REMARK    2  A    between atoms: C18_14  and  N17_19 
ROOT
HETATM    1  O1  MIQ B 502       1.318 -16.217  11.553  1.00142.91    -0.171 OA
HETATM    2  C2  MIQ B 502       1.527 -17.554  11.899  1.00141.17     0.195 A 
HETATM    3  C3  MIQ B 502       2.298 -18.071  13.155  1.00141.71     0.035 A 
HETATM    4  C4  MIQ B 502       2.987 -17.394  14.278  1.00142.86     0.046 A 
HETATM    5  C5  MIQ B 502       3.612 -18.154  15.299  1.00139.53     0.031 A 
HETATM    6  C12 MIQ B 502       3.575 -19.608  15.242  1.00139.38     0.030 A 
HETATM    7  C13 MIQ B 502       2.914 -20.258  14.165  1.00141.18     0.019 A 
HETATM    8  C14 MIQ B 502       2.258 -19.455  13.098  1.00138.77     0.033 A 
HETATM    9  C15 MIQ B 502       1.456 -19.798  11.800  1.00142.10     0.195 A 
HETATM   10  N17 MIQ B 502       1.125 -18.638  11.258  1.00139.42    -0.288 N 
HETATM   11  O16 MIQ B 502       1.157 -21.072  11.314  1.00148.93    -0.171 OA
ENDROOT
BRANCH  10  12
HETATM   12  C18 MIQ B 502       0.378 -18.568  10.016  1.00139.82     0.187 C 
HETATM   13  C19 MIQ B 502       1.153 -17.659   9.054  1.00140.06     0.247 C 
HETATM   14  O25 MIQ B 502       2.300 -17.864   8.867  1.00143.95    -0.271 OA
HETATM   15  N20 MIQ B 502       0.515 -16.558   8.362  1.00140.02    -0.296 N 
HETATM   16  H13 MIQ B 502       1.034 -15.968   7.742  1.00142.77     0.171 HD
HETATM   17  C21 MIQ B 502      -0.883 -16.322   8.615  1.00142.22     0.224 C 
HETATM   18  C22 MIQ B 502      -1.384 -16.630  10.012  1.00139.52     0.106 C 
HETATM   19  O24 MIQ B 502      -1.602 -15.913   7.771  1.00146.13    -0.273 OA
HETATM   20  C23 MIQ B 502      -1.048 -18.086  10.279  1.00139.15     0.045 C 
ENDBRANCH  10  12
BRANCH   5  21
HETATM   21  N6  MIQ B 502       4.296 -17.477  16.386  1.00140.95    -0.377 N 
HETATM   22  C7  MIQ B 502       4.461 -16.036  16.312  1.00142.12     0.149 C 
HETATM   23  C8  MIQ B 502       5.677 -15.562  17.098  1.00144.10     0.187 C 
HETATM   24  O9  MIQ B 502       5.738 -16.104  18.383  1.00148.65    -0.388 OA
HETATM   25  C10 MIQ B 502       4.879 -17.141  18.755  1.00147.44     0.187 C 
HETATM   26  C11 MIQ B 502       4.410 -18.120  17.683  1.00144.08     0.149 C 
ENDBRANCH   5  21
TORSDOF 2
ENDMDL
