MODEL 1
REMARK VINA RESULT:      -7.1      0.000      0.000
REMARK  2 active torsions:
REMARK  status: ('A' for Active; 'I' for Inactive)
REMARK    1  A    between atoms: C5_5  and  N6_21 
REMARK    2  A    between atoms: C18_14  and  N17_19 
ROOT
HETATM    1  O1  MIQ B 502      13.188  -8.997   0.134  1.00142.91    -0.171 OA
HETATM    2  C2  MIQ B 502      13.697  -9.917  -0.786  1.00141.17     0.195 A 
HETATM    3  C3  MIQ B 502      13.418  -9.936  -2.323  1.00141.71     0.035 A 
HETATM    4  C4  MIQ B 502      12.613  -9.076  -3.223  1.00142.86     0.046 A 
HETATM    5  C5  MIQ B 502      12.553  -9.351  -4.612  1.00139.53     0.031 A 
HETATM    6  C12 MIQ B 502      13.288 -10.483  -5.157  1.00139.38     0.030 A 
HETATM    7  C13 MIQ B 502      14.061 -11.307  -4.295  1.00141.18     0.019 A 
HETATM    8  C14 MIQ B 502      14.122 -11.012  -2.837  1.00138.77     0.033 A 
HETATM    9  C15 MIQ B 502      14.842 -11.666  -1.613  1.00142.10     0.195 A 
HETATM   10  N17 MIQ B 502      14.505 -10.939  -0.560  1.00139.42    -0.288 N 
HETATM   11  O16 MIQ B 502      15.670 -12.790  -1.632  1.00148.93    -0.171 OA
ENDROOT
BRANCH  10  12
HETATM   12  C18 MIQ B 502      14.983 -11.266   0.770  1.00139.82     0.187 C 
HETATM   13  C19 MIQ B 502      13.758 -11.513   1.660  1.00140.06     0.247 C 
HETATM   14  O25 MIQ B 502      12.923 -12.263   1.295  1.00143.95    -0.271 OA
HETATM   15  N20 MIQ B 502      13.599 -10.855   2.941  1.00140.02    -0.296 N 
HETATM   16  H13 MIQ B 502      12.791 -11.020   3.509  1.00142.77     0.171 HD
HETATM   17  C21 MIQ B 502      14.626  -9.936   3.359  1.00142.22     0.224 C 
HETATM   18  C22 MIQ B 502      15.316  -9.143   2.267  1.00139.52     0.106 C 
HETATM   19  O24 MIQ B 502      14.918  -9.813   4.497  1.00146.13    -0.273 OA
HETATM   20  C23 MIQ B 502      15.893 -10.157   1.296  1.00139.15     0.045 C 
ENDBRANCH  10  12
BRANCH   5  21
HETATM   21  N6  MIQ B 502      11.749  -8.509  -5.479  1.00140.95    -0.377 N 
HETATM   22  C7  MIQ B 502      11.900  -7.068  -5.384  1.00142.12     0.149 C 
HETATM   23  C8  MIQ B 502      10.636  -6.333  -5.813  1.00144.10     0.187 C 
HETATM   24  O9  MIQ B 502      10.122  -6.801  -7.024  1.00148.65    -0.388 OA
HETATM   25  C10 MIQ B 502      10.623  -7.969  -7.603  1.00147.44     0.187 C 
HETATM   26  C11 MIQ B 502      11.162  -9.064  -6.687  1.00144.08     0.149 C 
ENDBRANCH   5  21
TORSDOF 2
ENDMDL
MODEL 2
REMARK VINA RESULT:      -6.6      1.795      2.358
REMARK  2 active torsions:
REMARK  status: ('A' for Active; 'I' for Inactive)
REMARK    1  A    between atoms: C5_5  and  N6_21 
REMARK    2  A    between atoms: C18_14  and  N17_19 
ROOT
HETATM    1  O1  MIQ B 502      13.611  -8.072  -0.730  1.00142.91    -0.171 OA
HETATM    2  C2  MIQ B 502      13.424  -9.293  -1.381  1.00141.17     0.195 A 
HETATM    3  C3  MIQ B 502      12.872  -9.493  -2.828  1.00141.71     0.035 A 
HETATM    4  C4  MIQ B 502      12.415  -8.556  -3.882  1.00142.86     0.046 A 
HETATM    5  C5  MIQ B 502      11.958  -9.050  -5.130  1.00139.53     0.031 A 
HETATM    6  C12 MIQ B 502      11.938 -10.485  -5.376  1.00139.38     0.030 A 
HETATM    7  C13 MIQ B 502      12.377 -11.383  -4.366  1.00141.18     0.019 A 
HETATM    8  C14 MIQ B 502      12.859 -10.859  -3.059  1.00138.77     0.033 A 
HETATM    9  C15 MIQ B 502      13.406 -11.511  -1.748  1.00142.10     0.195 A 
HETATM   10  N17 MIQ B 502      13.673 -10.509  -0.925  1.00139.42    -0.288 N 
HETATM   11  O16 MIQ B 502      13.574 -12.874  -1.499  1.00148.93    -0.171 OA
ENDROOT
BRANCH  10  12
HETATM   12  C18 MIQ B 502      14.190 -10.743   0.410  1.00139.82     0.187 C 
HETATM   13  C19 MIQ B 502      15.408 -11.666   0.285  1.00140.06     0.247 C 
HETATM   14  O25 MIQ B 502      16.265 -11.388  -0.476  1.00143.95    -0.271 OA
HETATM   15  N20 MIQ B 502      15.540 -12.869   1.082  1.00140.02    -0.296 N 
HETATM   16  H13 MIQ B 502      16.338 -13.466   0.986  1.00142.77     0.171 HD
HETATM   17  C21 MIQ B 502      14.476 -13.192   1.997  1.00142.22     0.224 C 
HETATM   18  C22 MIQ B 502      13.072 -12.807   1.572  1.00139.52     0.106 C 
HETATM   19  O24 MIQ B 502      14.690 -13.726   3.029  1.00146.13    -0.273 OA
HETATM   20  C23 MIQ B 502      13.095 -11.311   1.312  1.00139.15     0.045 C 
ENDBRANCH  10  12
BRANCH   5  21
HETATM   21  N6  MIQ B 502      11.499  -8.123  -6.148  1.00140.95    -0.377 N 
HETATM   22  C7  MIQ B 502      10.605  -8.614  -7.183  1.00142.12     0.149 C 
HETATM   23  C8  MIQ B 502      10.721  -7.801  -8.467  1.00144.10     0.187 C 
HETATM   24  O9  MIQ B 502      10.677  -6.424  -8.244  1.00148.65    -0.388 OA
HETATM   25  C10 MIQ B 502      10.756  -5.914  -6.945  1.00147.44     0.187 C 
HETATM   26  C11 MIQ B 502      11.552  -6.692  -5.903  1.00144.08     0.149 C 
ENDBRANCH   5  21
TORSDOF 2
ENDMDL
MODEL 3
REMARK VINA RESULT:      -6.2      2.278      8.157
REMARK  2 active torsions:
REMARK  status: ('A' for Active; 'I' for Inactive)
REMARK    1  A    between atoms: C5_5  and  N6_21 
REMARK    2  A    between atoms: C18_14  and  N17_19 
ROOT
HETATM    1  O1  MIQ B 502      12.116  -8.496  -5.291  1.00142.91    -0.171 OA
HETATM    2  C2  MIQ B 502      12.264  -9.870  -5.084  1.00141.17     0.195 A 
HETATM    3  C3  MIQ B 502      12.714 -10.559  -3.756  1.00141.71     0.035 A 
HETATM    4  C4  MIQ B 502      13.090 -10.044  -2.418  1.00142.86     0.046 A 
HETATM    5  C5  MIQ B 502      13.462 -10.941  -1.384  1.00139.53     0.031 A 
HETATM    6  C12 MIQ B 502      13.473 -12.374  -1.640  1.00139.38     0.030 A 
HETATM    7  C13 MIQ B 502      13.111 -12.867  -2.923  1.00141.18     0.019 A 
HETATM    8  C14 MIQ B 502      12.720 -11.922  -4.003  1.00138.77     0.033 A 
HETATM    9  C15 MIQ B 502      12.270 -12.080  -5.492  1.00142.10     0.195 A 
HETATM   10  N17 MIQ B 502      12.055 -10.854  -5.941  1.00139.42    -0.288 N 
HETATM   11  O16 MIQ B 502      12.128 -13.275  -6.200  1.00148.93    -0.171 OA
ENDROOT
BRANCH  10  12
HETATM   12  C18 MIQ B 502      11.635 -10.611  -7.309  1.00139.82     0.187 C 
HETATM   13  C19 MIQ B 502      12.613  -9.604  -7.926  1.00140.06     0.247 C 
HETATM   14  O25 MIQ B 502      13.772  -9.807  -7.852  1.00143.95    -0.271 OA
HETATM   15  N20 MIQ B 502      12.152  -8.410  -8.606  1.00140.02    -0.296 N 
HETATM   16  H13 MIQ B 502      12.801  -7.757  -8.999  1.00142.77     0.171 HD
HETATM   17  C21 MIQ B 502      10.732  -8.179  -8.675  1.00142.22     0.224 C 
HETATM   18  C22 MIQ B 502       9.907  -8.652  -7.494  1.00139.52     0.106 C 
HETATM   19  O24 MIQ B 502      10.237  -7.651  -9.609  1.00146.13    -0.273 OA
HETATM   20  C23 MIQ B 502      10.183 -10.137  -7.342  1.00139.15     0.045 C 
ENDBRANCH  10  12
BRANCH   5  21
HETATM   21  N6  MIQ B 502      13.843 -10.423  -0.083  1.00140.95    -0.377 N 
HETATM   22  C7  MIQ B 502      13.870  -8.983   0.110  1.00142.12     0.149 C 
HETATM   23  C8  MIQ B 502      14.849  -8.574   1.203  1.00144.10     0.187 C 
HETATM   24  O9  MIQ B 502      14.710  -9.331   2.369  1.00148.65    -0.388 OA
HETATM   25  C10 MIQ B 502      13.906 -10.473   2.379  1.00147.44     0.187 C 
HETATM   26  C11 MIQ B 502      13.762 -11.276   1.090  1.00144.08     0.149 C 
ENDBRANCH   5  21
TORSDOF 2
ENDMDL
MODEL 4
REMARK VINA RESULT:      -6.2      1.742      2.881
REMARK  2 active torsions:
REMARK  status: ('A' for Active; 'I' for Inactive)
REMARK    1  A    between atoms: C5_5  and  N6_21 
REMARK    2  A    between atoms: C18_14  and  N17_19 
ROOT
HETATM    1  O1  MIQ B 502      15.694 -12.668  -1.781  1.00142.91    -0.171 OA
HETATM    2  C2  MIQ B 502      14.828 -11.576  -1.688  1.00141.17     0.195 A 
HETATM    3  C3  MIQ B 502      14.088 -10.882  -2.876  1.00141.71     0.035 A 
HETATM    4  C4  MIQ B 502      14.057 -11.124  -4.338  1.00142.86     0.046 A 
HETATM    5  C5  MIQ B 502      13.267 -10.305  -5.183  1.00139.53     0.031 A 
HETATM    6  C12 MIQ B 502      12.482  -9.221  -4.611  1.00139.38     0.030 A 
HETATM    7  C13 MIQ B 502      12.511  -8.989  -3.209  1.00141.18     0.019 A 
HETATM    8  C14 MIQ B 502      13.340  -9.854  -2.326  1.00138.77     0.033 A 
HETATM    9  C15 MIQ B 502      13.616  -9.911  -0.788  1.00142.10     0.195 A 
HETATM   10  N17 MIQ B 502      14.454 -10.917  -0.605  1.00139.42    -0.288 N 
HETATM   11  O16 MIQ B 502      13.086  -9.065   0.188  1.00148.93    -0.171 OA
ENDROOT
BRANCH  10  12
HETATM   12  C18 MIQ B 502      14.949 -11.260   0.716  1.00139.82     0.187 C 
HETATM   13  C19 MIQ B 502      13.736 -11.538   1.612  1.00140.06     0.247 C 
HETATM   14  O25 MIQ B 502      12.908 -12.292   1.243  1.00143.95    -0.271 OA
HETATM   15  N20 MIQ B 502      13.580 -10.903   2.905  1.00140.02    -0.296 N 
HETATM   16  H13 MIQ B 502      12.780 -11.088   3.478  1.00142.77     0.171 HD
HETATM   17  C21 MIQ B 502      14.599  -9.978   3.329  1.00142.22     0.224 C 
HETATM   18  C22 MIQ B 502      15.269  -9.158   2.244  1.00139.52     0.106 C 
HETATM   19  O24 MIQ B 502      14.900  -9.869   4.467  1.00146.13    -0.273 OA
HETATM   20  C23 MIQ B 502      15.850 -10.148   1.251  1.00139.15     0.045 C 
ENDBRANCH  10  12
BRANCH   5  21
HETATM   21  N6  MIQ B 502      13.258 -10.544  -6.615  1.00140.95    -0.377 N 
HETATM   22  C7  MIQ B 502      11.980 -10.579  -7.305  1.00142.12     0.149 C 
HETATM   23  C8  MIQ B 502      12.037 -11.435  -8.564  1.00144.10     0.187 C 
HETATM   24  O9  MIQ B 502      13.141 -11.145  -9.368  1.00148.65    -0.388 OA
HETATM   25  C10 MIQ B 502      14.165 -10.321  -8.894  1.00147.44     0.187 C 
HETATM   26  C11 MIQ B 502      14.459 -10.310  -7.398  1.00144.08     0.149 C 
ENDBRANCH   5  21
TORSDOF 2
ENDMDL
MODEL 5
REMARK VINA RESULT:      -6.2      3.091      9.830
REMARK  2 active torsions:
REMARK  status: ('A' for Active; 'I' for Inactive)
REMARK    1  A    between atoms: C5_5  and  N6_21 
REMARK    2  A    between atoms: C18_14  and  N17_19 
ROOT
HETATM    1  O1  MIQ B 502      11.653 -10.538  -8.979  1.00142.91    -0.171 OA
HETATM    2  C2  MIQ B 502      11.509  -9.450  -8.116  1.00141.17     0.195 A 
HETATM    3  C3  MIQ B 502      11.830  -9.436  -6.588  1.00141.71     0.035 A 
HETATM    4  C4  MIQ B 502      12.342 -10.458  -5.645  1.00142.86     0.046 A 
HETATM    5  C5  MIQ B 502      12.538 -10.138  -4.277  1.00139.53     0.031 A 
HETATM    6  C12 MIQ B 502      12.234  -8.797  -3.798  1.00139.38     0.030 A 
HETATM    7  C13 MIQ B 502      11.744  -7.817  -4.702  1.00141.18     0.019 A 
HETATM    8  C14 MIQ B 502      11.543  -8.158  -6.137  1.00138.77     0.033 A 
HETATM    9  C15 MIQ B 502      11.041  -7.373  -7.394  1.00142.10     0.195 A 
HETATM   10  N17 MIQ B 502      11.086  -8.230  -8.401  1.00139.42    -0.288 N 
HETATM   11  O16 MIQ B 502      10.628  -6.041  -7.437  1.00148.93    -0.171 OA
ENDROOT
BRANCH  10  12
HETATM   12  C18 MIQ B 502      10.672  -7.849  -9.738  1.00139.82     0.187 C 
HETATM   13  C19 MIQ B 502       9.663  -8.893 -10.231  1.00140.06     0.247 C 
HETATM   14  O25 MIQ B 502       8.743  -9.173  -9.548  1.00143.95    -0.271 OA
HETATM   15  N20 MIQ B 502       9.805  -9.545 -11.517  1.00140.02    -0.296 N 
HETATM   16  H13 MIQ B 502       9.143 -10.230 -11.824  1.00142.77     0.171 HD
HETATM   17  C21 MIQ B 502      10.942  -9.195 -12.328  1.00142.22     0.224 C 
HETATM   18  C22 MIQ B 502      12.224  -8.852 -11.594  1.00139.52     0.106 C 
HETATM   19  O24 MIQ B 502      10.876  -9.172 -13.508  1.00146.13    -0.273 OA
HETATM   20  C23 MIQ B 502      11.888  -7.709 -10.652  1.00139.15     0.045 C 
ENDBRANCH  10  12
BRANCH   5  21
HETATM   21  N6  MIQ B 502      13.026 -11.154  -3.362  1.00140.95    -0.377 N 
HETATM   22  C7  MIQ B 502      13.322 -12.476  -3.886  1.00142.12     0.149 C 
HETATM   23  C8  MIQ B 502      13.188 -13.554  -2.817  1.00144.10     0.187 C 
HETATM   24  O9  MIQ B 502      13.839 -13.223  -1.627  1.00148.65    -0.388 OA
HETATM   25  C10 MIQ B 502      14.335 -11.932  -1.427  1.00147.44     0.187 C 
HETATM   26  C11 MIQ B 502      13.619 -10.764  -2.095  1.00144.08     0.149 C 
ENDBRANCH   5  21
TORSDOF 2
ENDMDL
MODEL 6
REMARK VINA RESULT:      -6.1      2.993      7.639
REMARK  2 active torsions:
REMARK  status: ('A' for Active; 'I' for Inactive)
REMARK    1  A    between atoms: C5_5  and  N6_21 
REMARK    2  A    between atoms: C18_14  and  N17_19 
ROOT
HETATM    1  O1  MIQ B 502      13.634 -13.754  -1.864  1.00142.91    -0.171 OA
HETATM    2  C2  MIQ B 502      13.404 -12.432  -2.253  1.00141.17     0.195 A 
HETATM    3  C3  MIQ B 502      13.583 -11.164  -1.358  1.00141.71     0.035 A 
HETATM    4  C4  MIQ B 502      14.010 -10.960   0.046  1.00142.86     0.046 A 
HETATM    5  C5  MIQ B 502      14.076  -9.653   0.592  1.00139.53     0.031 A 
HETATM    6  C12 MIQ B 502      13.723  -8.506  -0.233  1.00139.38     0.030 A 
HETATM    7  C13 MIQ B 502      13.314  -8.702  -1.580  1.00141.18     0.019 A 
HETATM    8  C14 MIQ B 502      13.248 -10.076  -2.148  1.00138.77     0.033 A 
HETATM    9  C15 MIQ B 502      12.862 -10.672  -3.541  1.00142.10     0.195 A 
HETATM   10  N17 MIQ B 502      13.004 -11.983  -3.430  1.00139.42    -0.288 N 
HETATM   11  O16 MIQ B 502      12.448  -9.961  -4.669  1.00148.93    -0.171 OA
ENDROOT
BRANCH  10  12
HETATM   12  C18 MIQ B 502      12.713 -12.873  -4.538  1.00139.82     0.187 C 
HETATM   13  C19 MIQ B 502      11.710 -13.922  -4.045  1.00140.06     0.247 C 
HETATM   14  O25 MIQ B 502      10.728 -13.567  -3.496  1.00143.95    -0.271 OA
HETATM   15  N20 MIQ B 502      11.931 -15.341  -4.238  1.00140.02    -0.296 N 
HETATM   16  H13 MIQ B 502      11.271 -16.016  -3.905  1.00142.77     0.171 HD
HETATM   17  C21 MIQ B 502      13.142 -15.751  -4.901  1.00142.22     0.224 C 
HETATM   18  C22 MIQ B 502      14.372 -14.896  -4.662  1.00139.52     0.106 C 
HETATM   19  O24 MIQ B 502      13.172 -16.703  -5.600  1.00146.13    -0.273 OA
HETATM   20  C23 MIQ B 502      14.004 -13.484  -5.081  1.00139.15     0.045 C 
ENDBRANCH  10  12
BRANCH   5  21
HETATM   21  N6  MIQ B 502      14.483  -9.468   1.973  1.00140.95    -0.377 N 
HETATM   22  C7  MIQ B 502      14.505 -10.625   2.851  1.00142.12     0.149 C 
HETATM   23  C8  MIQ B 502      14.306 -10.236   4.310  1.00144.10     0.187 C 
HETATM   24  O9  MIQ B 502      15.120  -9.172   4.704  1.00148.65    -0.388 OA
HETATM   25  C10 MIQ B 502      15.837  -8.440   3.755  1.00147.44     0.187 C 
HETATM   26  C11 MIQ B 502      15.256  -8.299   2.352  1.00144.08     0.149 C 
ENDBRANCH   5  21
TORSDOF 2
ENDMDL
MODEL 7
REMARK VINA RESULT:      -5.9      3.453      9.609
REMARK  2 active torsions:
REMARK  status: ('A' for Active; 'I' for Inactive)
REMARK    1  A    between atoms: C5_5  and  N6_21 
REMARK    2  A    between atoms: C18_14  and  N17_19 
ROOT
HETATM    1  O1  MIQ B 502      13.758 -12.168  -7.839  1.00142.91    -0.171 OA
HETATM    2  C2  MIQ B 502      13.110 -10.949  -7.630  1.00141.17     0.195 A 
HETATM    3  C3  MIQ B 502      12.879 -10.252  -6.251  1.00141.71     0.035 A 
HETATM    4  C4  MIQ B 502      13.234 -10.608  -4.857  1.00142.86     0.046 A 
HETATM    5  C5  MIQ B 502      12.881  -9.749  -3.786  1.00139.53     0.031 A 
HETATM    6  C12 MIQ B 502      12.167  -8.510  -4.058  1.00139.38     0.030 A 
HETATM    7  C13 MIQ B 502      11.828  -8.168  -5.395  1.00141.18     0.019 A 
HETATM    8  C14 MIQ B 502      12.203  -9.072  -6.516  1.00138.77     0.033 A 
HETATM    9  C15 MIQ B 502      12.013  -9.036  -8.067  1.00142.10     0.195 A 
HETATM   10  N17 MIQ B 502      12.573 -10.143  -8.529  1.00139.42    -0.288 N 
HETATM   11  O16 MIQ B 502      11.379  -8.038  -8.809  1.00148.93    -0.171 OA
ENDROOT
BRANCH  10  12
HETATM   12  C18 MIQ B 502      12.573 -10.457  -9.946  1.00139.82     0.187 C 
HETATM   13  C19 MIQ B 502      13.237  -9.289 -10.684  1.00140.06     0.247 C 
HETATM   14  O25 MIQ B 502      14.290  -8.901 -10.319  1.00143.95    -0.271 OA
HETATM   15  N20 MIQ B 502      12.610  -8.650 -11.823  1.00140.02    -0.296 N 
HETATM   16  H13 MIQ B 502      13.051  -7.884 -12.293  1.00142.77     0.171 HD
HETATM   17  C21 MIQ B 502      11.321  -9.134 -12.243  1.00142.22     0.224 C 
HETATM   18  C22 MIQ B 502      10.396  -9.644 -11.154  1.00139.52     0.106 C 
HETATM   19  O24 MIQ B 502      11.003  -9.139 -13.382  1.00146.13    -0.273 OA
HETATM   20  C23 MIQ B 502      11.151 -10.742 -10.427  1.00139.15     0.045 C 
ENDBRANCH  10  12
BRANCH   5  21
HETATM   21  N6  MIQ B 502      13.221 -10.118  -2.424  1.00140.95    -0.377 N 
HETATM   22  C7  MIQ B 502      13.908 -11.378  -2.196  1.00142.12     0.149 C 
HETATM   23  C8  MIQ B 502      13.633 -11.933  -0.804  1.00144.10     0.187 C 
HETATM   24  O9  MIQ B 502      13.790 -10.978   0.202  1.00148.65    -0.388 OA
HETATM   25  C10 MIQ B 502      13.949  -9.628  -0.122  1.00147.44     0.187 C 
HETATM   26  C11 MIQ B 502      13.288  -9.099  -1.391  1.00144.08     0.149 C 
ENDBRANCH   5  21
TORSDOF 2
ENDMDL
MODEL 8
REMARK VINA RESULT:      -5.9      2.432      8.146
REMARK  2 active torsions:
REMARK  status: ('A' for Active; 'I' for Inactive)
REMARK    1  A    between atoms: C5_5  and  N6_21 
REMARK    2  A    between atoms: C18_14  and  N17_19 
ROOT
HETATM    1  O1  MIQ B 502      13.767 -13.193  -2.951  1.00142.91    -0.171 OA
HETATM    2  C2  MIQ B 502      13.471 -11.830  -3.026  1.00141.17     0.195 A 
HETATM    3  C3  MIQ B 502      13.623 -10.789  -1.872  1.00141.71     0.035 A 
HETATM    4  C4  MIQ B 502      14.083 -10.885  -0.467  1.00142.86     0.046 A 
HETATM    5  C5  MIQ B 502      14.111  -9.732   0.359  1.00139.53     0.031 A 
HETATM    6  C12 MIQ B 502      13.685  -8.448  -0.179  1.00139.38     0.030 A 
HETATM    7  C13 MIQ B 502      13.244  -8.356  -1.526  1.00141.18     0.019 A 
HETATM    8  C14 MIQ B 502      13.219  -9.568  -2.389  1.00138.77     0.033 A 
HETATM    9  C15 MIQ B 502      12.816  -9.854  -3.872  1.00142.10     0.195 A 
HETATM   10  N17 MIQ B 502      13.017 -11.147  -4.063  1.00139.42    -0.288 N 
HETATM   11  O16 MIQ B 502      12.339  -8.928  -4.802  1.00148.93    -0.171 OA
ENDROOT
BRANCH  10  12
HETATM   12  C18 MIQ B 502      12.731 -11.778  -5.338  1.00139.82     0.187 C 
HETATM   13  C19 MIQ B 502      13.444 -10.971  -6.430  1.00140.06     0.247 C 
HETATM   14  O25 MIQ B 502      14.591 -10.725  -6.308  1.00143.95    -0.271 OA
HETATM   15  N20 MIQ B 502      12.748 -10.506  -7.612  1.00140.02    -0.296 N 
HETATM   16  H13 MIQ B 502      13.223  -9.974  -8.315  1.00142.77     0.171 HD
HETATM   17  C21 MIQ B 502      11.346 -10.810  -7.733  1.00142.22     0.224 C 
HETATM   18  C22 MIQ B 502      10.545 -10.856  -6.446  1.00139.52     0.106 C 
HETATM   19  O24 MIQ B 502      10.847 -11.018  -8.785  1.00146.13    -0.273 OA
HETATM   20  C23 MIQ B 502      11.222 -11.880  -5.554  1.00139.15     0.045 C 
ENDBRANCH  10  12
BRANCH   5  21
HETATM   21  N6  MIQ B 502      14.550  -9.844   1.738  1.00140.95    -0.377 N 
HETATM   22  C7  MIQ B 502      15.136  -8.678   2.377  1.00142.12     0.149 C 
HETATM   23  C8  MIQ B 502      16.096  -9.064   3.495  1.00144.10     0.187 C 
HETATM   24  O9  MIQ B 502      15.561 -10.016   4.365  1.00148.65    -0.388 OA
HETATM   25  C10 MIQ B 502      14.369 -10.672   4.050  1.00147.44     0.187 C 
HETATM   26  C11 MIQ B 502      14.030 -10.906   2.581  1.00144.08     0.149 C 
ENDBRANCH   5  21
TORSDOF 2
ENDMDL
MODEL 9
REMARK VINA RESULT:      -5.9      2.117      7.832
REMARK  2 active torsions:
REMARK  status: ('A' for Active; 'I' for Inactive)
REMARK    1  A    between atoms: C5_5  and  N6_21 
REMARK    2  A    between atoms: C18_14  and  N17_19 
ROOT
HETATM    1  O1  MIQ B 502      13.041  -9.028  -3.319  1.00142.91    -0.171 OA
HETATM    2  C2  MIQ B 502      13.201 -10.358  -2.922  1.00141.17     0.195 A 
HETATM    3  C3  MIQ B 502      13.593 -10.854  -1.494  1.00141.71     0.035 A 
HETATM    4  C4  MIQ B 502      13.892 -10.158  -0.220  1.00142.86     0.046 A 
HETATM    5  C5  MIQ B 502      14.225 -10.900   0.941  1.00139.53     0.031 A 
HETATM    6  C12 MIQ B 502      14.272 -12.354   0.881  1.00139.38     0.030 A 
HETATM    7  C13 MIQ B 502      13.985 -13.021  -0.340  1.00141.18     0.019 A 
HETATM    8  C14 MIQ B 502      13.634 -12.237  -1.556  1.00138.77     0.033 A 
HETATM    9  C15 MIQ B 502      13.263 -12.602  -3.030  1.00142.10     0.195 A 
HETATM   10  N17 MIQ B 502      13.052 -11.452  -3.649  1.00139.42    -0.288 N 
HETATM   11  O16 MIQ B 502      13.178 -13.884  -3.577  1.00148.93    -0.171 OA
ENDROOT
BRANCH  10  12
HETATM   12  C18 MIQ B 502      12.699 -11.403  -5.055  1.00139.82     0.187 C 
HETATM   13  C19 MIQ B 502      13.830 -10.680  -5.797  1.00140.06     0.247 C 
HETATM   14  O25 MIQ B 502      14.943 -11.035  -5.635  1.00143.95    -0.271 OA
HETATM   15  N20 MIQ B 502      13.570  -9.576  -6.698  1.00140.02    -0.296 N 
HETATM   16  H13 MIQ B 502      14.317  -9.108  -7.171  1.00142.77     0.171 HD
HETATM   17  C21 MIQ B 502      12.203  -9.155  -6.871  1.00142.22     0.224 C 
HETATM   18  C22 MIQ B 502      11.294  -9.278  -5.663  1.00139.52     0.106 C 
HETATM   19  O24 MIQ B 502      11.811  -8.739  -7.905  1.00146.13    -0.273 OA
HETATM   20  C23 MIQ B 502      11.337 -10.735  -5.238  1.00139.15     0.045 C 
ENDBRANCH  10  12
BRANCH   5  21
HETATM   21  N6  MIQ B 502      14.530 -10.204   2.178  1.00140.95    -0.377 N 
HETATM   22  C7  MIQ B 502      14.774 -10.991   3.375  1.00142.12     0.149 C 
HETATM   23  C8  MIQ B 502      14.441 -10.215   4.643  1.00144.10     0.187 C 
HETATM   24  O9  MIQ B 502      14.986  -8.929   4.652  1.00148.65    -0.388 OA
HETATM   25  C10 MIQ B 502      15.559  -8.395   3.495  1.00147.44     0.187 C 
HETATM   26  C11 MIQ B 502      15.013  -8.835   2.141  1.00144.08     0.149 C 
ENDBRANCH   5  21
TORSDOF 2
ENDMDL
