MODEL 1
REMARK VINA RESULT:      -7.0      0.000      0.000
REMARK  2 active torsions:
REMARK  status: ('A' for Active; 'I' for Inactive)
REMARK    1  A    between atoms: C5_5  and  N6_21 
REMARK    2  A    between atoms: C18_14  and  N17_19 
ROOT
HETATM    1  O1  MIQ B 502       3.895  -6.512  16.064  1.00142.91    -0.171 OA
HETATM    2  C2  MIQ B 502       4.659  -5.563  15.382  1.00141.17     0.195 A 
HETATM    3  C3  MIQ B 502       4.532  -4.012  15.509  1.00141.71     0.035 A 
HETATM    4  C4  MIQ B 502       3.658  -3.124  16.311  1.00142.86     0.046 A 
HETATM    5  C5  MIQ B 502       3.782  -1.715  16.212  1.00139.53     0.031 A 
HETATM    6  C12 MIQ B 502       4.776  -1.139  15.317  1.00139.38     0.030 A 
HETATM    7  C13 MIQ B 502       5.616  -1.990  14.549  1.00141.18     0.019 A 
HETATM    8  C14 MIQ B 502       5.482  -3.468  14.660  1.00138.77     0.033 A 
HETATM    9  C15 MIQ B 502       6.203  -4.690  14.001  1.00142.10     0.195 A 
HETATM   10  N17 MIQ B 502       5.631  -5.769  14.509  1.00139.42    -0.288 N 
HETATM   11  O16 MIQ B 502       7.237  -4.644  13.064  1.00148.93    -0.171 OA
ENDROOT
BRANCH  10  12
HETATM   12  C18 MIQ B 502       6.041  -7.102  14.109  1.00139.82     0.187 C 
HETATM   13  C19 MIQ B 502       4.775  -7.900  13.775  1.00140.06     0.247 C 
HETATM   14  O25 MIQ B 502       3.984  -7.440  13.029  1.00143.95    -0.271 OA
HETATM   15  N20 MIQ B 502       4.523  -9.208  14.345  1.00140.02    -0.296 N 
HETATM   16  H13 MIQ B 502       3.689  -9.715  14.123  1.00142.77     0.171 HD
HETATM   17  C21 MIQ B 502       5.497  -9.743  15.260  1.00142.22     0.224 C 
HETATM   18  C22 MIQ B 502       6.226  -8.746  16.139  1.00139.52     0.106 C 
HETATM   19  O24 MIQ B 502       5.719 -10.903  15.317  1.00146.13    -0.273 OA
HETATM   20  C23 MIQ B 502       6.887  -7.749  15.205  1.00139.15     0.045 C 
ENDBRANCH  10  12
BRANCH   5  21
HETATM   21  N6  MIQ B 502       2.909  -0.857  16.991  1.00140.95    -0.377 N 
HETATM   22  C7  MIQ B 502       2.192  -1.434  18.116  1.00142.12     0.149 C 
HETATM   23  C8  MIQ B 502       0.903  -0.680  18.416  1.00144.10     0.187 C 
HETATM   24  O9  MIQ B 502       1.082   0.704  18.468  1.00148.65    -0.388 OA
HETATM   25  C10 MIQ B 502       2.285   1.278  18.049  1.00147.44     0.187 C 
HETATM   26  C11 MIQ B 502       3.079   0.585  16.947  1.00144.08     0.149 C 
ENDBRANCH   5  21
TORSDOF 2
ENDMDL
MODEL 2
REMARK VINA RESULT:      -6.7      2.012      3.596
REMARK  2 active torsions:
REMARK  status: ('A' for Active; 'I' for Inactive)
REMARK    1  A    between atoms: C5_5  and  N6_21 
REMARK    2  A    between atoms: C18_14  and  N17_19 
ROOT
HETATM    1  O1  MIQ B 502       5.981  -3.238  13.383  1.00142.91    -0.171 OA
HETATM    2  C2  MIQ B 502       5.564  -4.028  14.456  1.00141.17     0.195 A 
HETATM    3  C3  MIQ B 502       4.678  -3.562  15.655  1.00141.71     0.035 A 
HETATM    4  C4  MIQ B 502       4.049  -2.269  16.015  1.00142.86     0.046 A 
HETATM    5  C5  MIQ B 502       3.280  -2.152  17.201  1.00139.53     0.031 A 
HETATM    6  C12 MIQ B 502       3.107  -3.310  18.067  1.00139.38     0.030 A 
HETATM    7  C13 MIQ B 502       3.708  -4.550  17.721  1.00141.18     0.019 A 
HETATM    8  C14 MIQ B 502       4.513  -4.667  16.474  1.00138.77     0.033 A 
HETATM    9  C15 MIQ B 502       5.300  -5.826  15.780  1.00142.10     0.195 A 
HETATM   10  N17 MIQ B 502       5.818  -5.307  14.678  1.00139.42    -0.288 N 
HETATM   11  O16 MIQ B 502       5.430  -7.139  16.235  1.00148.93    -0.171 OA
ENDROOT
BRANCH  10  12
HETATM   12  C18 MIQ B 502       6.636  -6.099  13.780  1.00139.82     0.187 C 
HETATM   13  C19 MIQ B 502       7.922  -5.311  13.500  1.00140.06     0.247 C 
HETATM   14  O25 MIQ B 502       8.546  -4.888  14.407  1.00143.95    -0.271 OA
HETATM   15  N20 MIQ B 502       8.395  -5.075  12.152  1.00140.02    -0.296 N 
HETATM   16  H13 MIQ B 502       9.233  -4.553  11.983  1.00142.77     0.171 HD
HETATM   17  C21 MIQ B 502       7.610  -5.592  11.061  1.00142.22     0.224 C 
HETATM   18  C22 MIQ B 502       6.107  -5.625  11.259  1.00139.52     0.106 C 
HETATM   19  O24 MIQ B 502       8.115  -5.977  10.064  1.00146.13    -0.273 OA
HETATM   20  C23 MIQ B 502       5.855  -6.443  12.512  1.00139.15     0.045 C 
ENDBRANCH  10  12
BRANCH   5  21
HETATM   21  N6  MIQ B 502       2.682  -0.876  17.549  1.00140.95    -0.377 N 
HETATM   22  C7  MIQ B 502       1.841  -0.803  18.731  1.00142.12     0.149 C 
HETATM   23  C8  MIQ B 502       0.812   0.316  18.628  1.00144.10     0.187 C 
HETATM   24  O9  MIQ B 502       1.368   1.528  18.215  1.00148.65    -0.388 OA
HETATM   25  C10 MIQ B 502       2.680   1.580  17.738  1.00147.44     0.187 C 
HETATM   26  C11 MIQ B 502       3.245   0.356  17.024  1.00144.08     0.149 C 
ENDBRANCH   5  21
TORSDOF 2
ENDMDL
MODEL 3
REMARK VINA RESULT:      -6.4      3.244      5.039
REMARK  2 active torsions:
REMARK  status: ('A' for Active; 'I' for Inactive)
REMARK    1  A    between atoms: C5_5  and  N6_21 
REMARK    2  A    between atoms: C18_14  and  N17_19 
ROOT
HETATM    1  O1  MIQ B 502       4.164  -3.393  16.950  1.00142.91    -0.171 OA
HETATM    2  C2  MIQ B 502       4.090  -2.001  16.867  1.00141.17     0.195 A 
HETATM    3  C3  MIQ B 502       2.997  -1.095  17.519  1.00141.71     0.035 A 
HETATM    4  C4  MIQ B 502       1.805  -1.377  18.354  1.00142.86     0.046 A 
HETATM    5  C5  MIQ B 502       0.982  -0.316  18.810  1.00139.53     0.031 A 
HETATM    6  C12 MIQ B 502       1.311   1.057  18.455  1.00139.38     0.030 A 
HETATM    7  C13 MIQ B 502       2.454   1.328  17.656  1.00141.18     0.019 A 
HETATM    8  C14 MIQ B 502       3.316   0.210  17.182  1.00138.77     0.033 A 
HETATM    9  C15 MIQ B 502       4.615   0.114  16.317  1.00142.10     0.195 A 
HETATM   10  N17 MIQ B 502       4.909  -1.173  16.242  1.00139.42    -0.288 N 
HETATM   11  O16 MIQ B 502       5.315   1.175  15.740  1.00148.93    -0.171 OA
ENDROOT
BRANCH  10  12
HETATM   12  C18 MIQ B 502       6.059  -1.645  15.493  1.00139.82     0.187 C 
HETATM   13  C19 MIQ B 502       5.560  -2.662  14.459  1.00140.06     0.247 C 
HETATM   14  O25 MIQ B 502       4.663  -2.369  13.751  1.00143.95    -0.271 OA
HETATM   15  N20 MIQ B 502       6.163  -3.972  14.323  1.00140.02    -0.296 N 
HETATM   16  H13 MIQ B 502       5.823  -4.629  13.649  1.00142.77     0.171 HD
HETATM   17  C21 MIQ B 502       7.249  -4.309  15.207  1.00142.22     0.224 C 
HETATM   18  C22 MIQ B 502       7.196  -3.725  16.605  1.00139.52     0.106 C 
HETATM   19  O24 MIQ B 502       8.139  -5.003  14.855  1.00146.13    -0.273 OA
HETATM   20  C23 MIQ B 502       7.112  -2.219  16.441  1.00139.15     0.045 C 
ENDBRANCH  10  12
BRANCH   5  21
HETATM   21  N6  MIQ B 502      -0.190  -0.608  19.615  1.00140.95    -0.377 N 
HETATM   22  C7  MIQ B 502      -0.648   0.393  20.564  1.00142.12     0.149 C 
HETATM   23  C8  MIQ B 502      -1.404  -0.232  21.729  1.00144.10     0.187 C 
HETATM   24  O9  MIQ B 502      -2.371  -1.152  21.318  1.00148.65    -0.388 OA
HETATM   25  C10 MIQ B 502      -2.423  -1.578  19.989  1.00147.44     0.187 C 
HETATM   26  C11 MIQ B 502      -1.125  -1.635  19.190  1.00144.08     0.149 C 
ENDBRANCH   5  21
TORSDOF 2
ENDMDL
MODEL 4
REMARK VINA RESULT:      -6.1      2.711      3.890
REMARK  2 active torsions:
REMARK  status: ('A' for Active; 'I' for Inactive)
REMARK    1  A    between atoms: C5_5  and  N6_21 
REMARK    2  A    between atoms: C18_14  and  N17_19 
ROOT
HETATM    1  O1  MIQ B 502       8.304  -3.464  16.370  1.00142.91    -0.171 OA
HETATM    2  C2  MIQ B 502       7.164  -4.177  15.994  1.00141.17     0.195 A 
HETATM    3  C3  MIQ B 502       5.687  -3.680  16.103  1.00141.71     0.035 A 
HETATM    4  C4  MIQ B 502       5.068  -2.422  16.586  1.00142.86     0.046 A 
HETATM    5  C5  MIQ B 502       3.660  -2.260  16.558  1.00139.53     0.031 A 
HETATM    6  C12 MIQ B 502       2.819  -3.335  16.052  1.00139.38     0.030 A 
HETATM    7  C13 MIQ B 502       3.412  -4.540  15.589  1.00141.18     0.019 A 
HETATM    8  C14 MIQ B 502       4.891  -4.704  15.618  1.00138.77     0.033 A 
HETATM    9  C15 MIQ B 502       5.879  -5.844  15.205  1.00142.10     0.195 A 
HETATM   10  N17 MIQ B 502       7.092  -5.391  15.475  1.00139.42    -0.288 N 
HETATM   11  O16 MIQ B 502       5.543  -7.086  14.664  1.00148.93    -0.171 OA
ENDROOT
BRANCH  10  12
HETATM   12  C18 MIQ B 502       8.273  -6.197  15.232  1.00139.82     0.187 C 
HETATM   13  C19 MIQ B 502       9.049  -6.301  16.550  1.00140.06     0.247 C 
HETATM   14  O25 MIQ B 502       8.480  -6.637  17.528  1.00143.95    -0.271 OA
HETATM   15  N20 MIQ B 502      10.464  -6.004  16.629  1.00140.02    -0.296 N 
HETATM   16  H13 MIQ B 502      10.958  -6.069  17.498  1.00142.77     0.171 HD
HETATM   17  C21 MIQ B 502      11.134  -5.586  15.425  1.00142.22     0.224 C 
HETATM   18  C22 MIQ B 502      10.320  -4.768  14.441  1.00139.52     0.106 C 
HETATM   19  O24 MIQ B 502      12.261  -5.873  15.213  1.00146.13    -0.273 OA
HETATM   20  C23 MIQ B 502       9.099  -5.600  14.093  1.00139.15     0.045 C 
ENDBRANCH  10  12
BRANCH   5  21
HETATM   21  N6  MIQ B 502       3.067  -1.029  17.047  1.00140.95    -0.377 N 
HETATM   22  C7  MIQ B 502       2.180  -1.094  18.196  1.00142.12     0.149 C 
HETATM   23  C8  MIQ B 502       1.171   0.048  18.201  1.00144.10     0.187 C 
HETATM   24  O9  MIQ B 502       1.760   1.293  17.971  1.00148.65    -0.388 OA
HETATM   25  C10 MIQ B 502       3.090   1.381  17.555  1.00147.44     0.187 C 
HETATM   26  C11 MIQ B 502       3.667   0.250  16.709  1.00144.08     0.149 C 
ENDBRANCH   5  21
TORSDOF 2
ENDMDL
MODEL 5
REMARK VINA RESULT:      -6.0      2.067      7.782
REMARK  2 active torsions:
REMARK  status: ('A' for Active; 'I' for Inactive)
REMARK    1  A    between atoms: C5_5  and  N6_21 
REMARK    2  A    between atoms: C18_14  and  N17_19 
ROOT
HETATM    1  O1  MIQ B 502       3.538  -3.936  17.816  1.00142.91    -0.171 OA
HETATM    2  C2  MIQ B 502       4.313  -3.507  16.736  1.00141.17     0.195 A 
HETATM    3  C3  MIQ B 502       4.911  -4.413  15.613  1.00141.71     0.035 A 
HETATM    4  C4  MIQ B 502       4.860  -5.870  15.343  1.00142.86     0.046 A 
HETATM    5  C5  MIQ B 502       5.519  -6.412  14.211  1.00139.53     0.031 A 
HETATM    6  C12 MIQ B 502       6.248  -5.533  13.309  1.00139.38     0.030 A 
HETATM    7  C13 MIQ B 502       6.296  -4.136  13.566  1.00141.18     0.019 A 
HETATM    8  C14 MIQ B 502       5.601  -3.572  14.755  1.00138.77     0.033 A 
HETATM    9  C15 MIQ B 502       5.430  -2.136  15.349  1.00142.10     0.195 A 
HETATM   10  N17 MIQ B 502       4.692  -2.276  16.438  1.00139.42    -0.288 N 
HETATM   11  O16 MIQ B 502       5.954  -0.949  14.833  1.00148.93    -0.171 OA
ENDROOT
BRANCH  10  12
HETATM   12  C18 MIQ B 502       4.340  -1.138  17.267  1.00139.82     0.187 C 
HETATM   13  C19 MIQ B 502       4.689  -1.491  18.718  1.00140.06     0.247 C 
HETATM   14  O25 MIQ B 502       5.767  -1.901  18.968  1.00143.95    -0.271 OA
HETATM   15  N20 MIQ B 502       3.733  -1.329  19.795  1.00140.02    -0.296 N 
HETATM   16  H13 MIQ B 502       3.972  -1.568  20.737  1.00142.77     0.171 HD
HETATM   17  C21 MIQ B 502       2.421  -0.836  19.463  1.00142.22     0.224 C 
HETATM   18  C22 MIQ B 502       1.863  -1.240  18.112  1.00139.52     0.106 C 
HETATM   19  O24 MIQ B 502       1.814  -0.147  20.207  1.00146.13    -0.273 OA
HETATM   20  C23 MIQ B 502       2.868  -0.775  17.074  1.00139.15     0.045 C 
ENDBRANCH  10  12
BRANCH   5  21
HETATM   21  N6  MIQ B 502       5.473  -7.843  13.967  1.00140.95    -0.377 N 
HETATM   22  C7  MIQ B 502       5.484  -8.742  15.108  1.00142.12     0.149 C 
HETATM   23  C8  MIQ B 502       6.068 -10.104  14.753  1.00144.10     0.187 C 
HETATM   24  O9  MIQ B 502       5.532 -10.635  13.579  1.00148.65    -0.388 OA
HETATM   25  C10 MIQ B 502       4.731  -9.849  12.747  1.00147.44     0.187 C 
HETATM   26  C11 MIQ B 502       4.987  -8.347  12.695  1.00144.08     0.149 C 
ENDBRANCH   5  21
TORSDOF 2
ENDMDL
MODEL 6
REMARK VINA RESULT:      -6.0      2.246      2.589
REMARK  2 active torsions:
REMARK  status: ('A' for Active; 'I' for Inactive)
REMARK    1  A    between atoms: C5_5  and  N6_21 
REMARK    2  A    between atoms: C18_14  and  N17_19 
ROOT
HETATM    1  O1  MIQ B 502       7.205  -5.882  16.940  1.00142.91    -0.171 OA
HETATM    2  C2  MIQ B 502       6.781  -5.069  15.886  1.00141.17     0.195 A 
HETATM    3  C3  MIQ B 502       5.898  -3.786  16.009  1.00141.71     0.035 A 
HETATM    4  C4  MIQ B 502       5.285  -3.077  17.157  1.00142.86     0.046 A 
HETATM    5  C5  MIQ B 502       4.517  -1.904  16.948  1.00139.53     0.031 A 
HETATM    6  C12 MIQ B 502       4.331  -1.394  15.597  1.00139.38     0.030 A 
HETATM    7  C13 MIQ B 502       4.919  -2.073  14.496  1.00141.18     0.019 A 
HETATM    8  C14 MIQ B 502       5.726  -3.303  14.722  1.00138.77     0.033 A 
HETATM    9  C15 MIQ B 502       6.508  -4.290  13.796  1.00142.10     0.195 A 
HETATM   10  N17 MIQ B 502       7.032  -5.204  14.595  1.00139.42    -0.288 N 
HETATM   11  O16 MIQ B 502       6.623  -4.219  12.406  1.00148.93    -0.171 OA
ENDROOT
BRANCH  10  12
HETATM   12  C18 MIQ B 502       7.822  -6.304  14.074  1.00139.82     0.187 C 
HETATM   13  C19 MIQ B 502       7.248  -7.605  14.647  1.00140.06     0.247 C 
HETATM   14  O25 MIQ B 502       6.090  -7.813  14.556  1.00143.95    -0.271 OA
HETATM   15  N20 MIQ B 502       8.089  -8.592  15.292  1.00140.02    -0.296 N 
HETATM   16  H13 MIQ B 502       7.701  -9.435  15.668  1.00142.77     0.171 HD
HETATM   17  C21 MIQ B 502       9.498  -8.311  15.400  1.00142.22     0.224 C 
HETATM   18  C22 MIQ B 502       9.891  -6.858  15.581  1.00139.52     0.106 C 
HETATM   19  O24 MIQ B 502      10.305  -9.172  15.344  1.00146.13    -0.273 OA
HETATM   20  C23 MIQ B 502       9.300  -6.101  14.405  1.00139.15     0.045 C 
ENDBRANCH  10  12
BRANCH   5  21
HETATM   21  N6  MIQ B 502       3.910  -1.228  18.080  1.00140.95    -0.377 N 
HETATM   22  C7  MIQ B 502       2.709  -0.442  17.857  1.00142.12     0.149 C 
HETATM   23  C8  MIQ B 502       2.561   0.673  18.885  1.00144.10     0.187 C 
HETATM   24  O9  MIQ B 502       2.751   0.232  20.196  1.00148.65    -0.388 OA
HETATM   25  C10 MIQ B 502       3.252  -1.047  20.447  1.00147.44     0.187 C 
HETATM   26  C11 MIQ B 502       4.206  -1.669  19.432  1.00144.08     0.149 C 
ENDBRANCH   5  21
TORSDOF 2
ENDMDL
MODEL 7
REMARK VINA RESULT:      -6.0      2.000      8.035
REMARK  2 active torsions:
REMARK  status: ('A' for Active; 'I' for Inactive)
REMARK    1  A    between atoms: C5_5  and  N6_21 
REMARK    2  A    between atoms: C18_14  and  N17_19 
ROOT
HETATM    1  O1  MIQ B 502       2.218  -3.131  18.463  1.00142.91    -0.171 OA
HETATM    2  C2  MIQ B 502       3.105  -2.548  17.555  1.00141.17     0.195 A 
HETATM    3  C3  MIQ B 502       3.957  -3.302  16.485  1.00141.71     0.035 A 
HETATM    4  C4  MIQ B 502       4.093  -4.730  16.112  1.00142.86     0.046 A 
HETATM    5  C5  MIQ B 502       4.970  -5.117  15.068  1.00139.53     0.031 A 
HETATM    6  C12 MIQ B 502       5.740  -4.106  14.358  1.00139.38     0.030 A 
HETATM    7  C13 MIQ B 502       5.609  -2.737  14.714  1.00141.18     0.019 A 
HETATM    8  C14 MIQ B 502       4.685  -2.335  15.810  1.00138.77     0.033 A 
HETATM    9  C15 MIQ B 502       4.282  -0.974  16.464  1.00142.10     0.195 A 
HETATM   10  N17 MIQ B 502       3.401  -1.268  17.407  1.00139.42    -0.288 N 
HETATM   11  O16 MIQ B 502       4.759   0.292  16.121  1.00148.93    -0.171 OA
ENDROOT
BRANCH  10  12
HETATM   12  C18 MIQ B 502       2.814  -0.238  18.243  1.00139.82     0.187 C 
HETATM   13  C19 MIQ B 502       2.966  -0.678  19.704  1.00140.06     0.247 C 
HETATM   14  O25 MIQ B 502       4.026  -1.012  20.097  1.00143.95    -0.271 OA
HETATM   15  N20 MIQ B 502       1.843  -0.689  20.619  1.00140.02    -0.296 N 
HETATM   16  H13 MIQ B 502       1.954  -0.985  21.569  1.00142.77     0.171 HD
HETATM   17  C21 MIQ B 502       0.556  -0.287  20.112  1.00142.22     0.224 C 
HETATM   18  C22 MIQ B 502       0.258  -0.624  18.664  1.00139.52     0.106 C 
HETATM   19  O24 MIQ B 502      -0.225   0.283  20.792  1.00146.13    -0.273 OA
HETATM   20  C23 MIQ B 502       1.362   0.012  17.838  1.00139.15     0.045 C 
ENDBRANCH  10  12
BRANCH   5  21
HETATM   21  N6  MIQ B 502       5.105  -6.521  14.724  1.00140.95    -0.377 N 
HETATM   22  C7  MIQ B 502       5.267  -6.881  13.325  1.00142.12     0.149 C 
HETATM   23  C8  MIQ B 502       4.761  -8.289  13.038  1.00144.10     0.187 C 
HETATM   24  O9  MIQ B 502       5.229  -9.232  13.955  1.00148.65    -0.388 OA
HETATM   25  C10 MIQ B 502       5.889  -8.823  15.116  1.00147.44     0.187 C 
HETATM   26  C11 MIQ B 502       5.513  -7.480  15.735  1.00144.08     0.149 C 
ENDBRANCH   5  21
TORSDOF 2
ENDMDL
MODEL 8
REMARK VINA RESULT:      -6.0      1.510      1.943
REMARK  2 active torsions:
REMARK  status: ('A' for Active; 'I' for Inactive)
REMARK    1  A    between atoms: C5_5  and  N6_21 
REMARK    2  A    between atoms: C18_14  and  N17_19 
ROOT
HETATM    1  O1  MIQ B 502       3.638  -6.266  14.856  1.00142.91    -0.171 OA
HETATM    2  C2  MIQ B 502       4.742  -5.490  15.214  1.00141.17     0.195 A 
HETATM    3  C3  MIQ B 502       4.709  -4.164  16.039  1.00141.71     0.035 A 
HETATM    4  C4  MIQ B 502       3.616  -3.374  16.655  1.00142.86     0.046 A 
HETATM    5  C5  MIQ B 502       3.906  -2.181  17.363  1.00139.53     0.031 A 
HETATM    6  C12 MIQ B 502       5.284  -1.730  17.486  1.00139.38     0.030 A 
HETATM    7  C13 MIQ B 502       6.332  -2.488  16.897  1.00141.18     0.019 A 
HETATM    8  C14 MIQ B 502       6.023  -3.741  16.156  1.00138.77     0.033 A 
HETATM    9  C15 MIQ B 502       6.877  -4.810  15.400  1.00142.10     0.195 A 
HETATM   10  N17 MIQ B 502       6.018  -5.707  14.942  1.00139.42    -0.288 N 
HETATM   11  O16 MIQ B 502       8.263  -4.812  15.241  1.00148.93    -0.171 OA
ENDROOT
BRANCH  10  12
HETATM   12  C18 MIQ B 502       6.459  -6.851  14.167  1.00139.82     0.187 C 
HETATM   13  C19 MIQ B 502       5.821  -6.747  12.776  1.00140.06     0.247 C 
HETATM   14  O25 MIQ B 502       5.921  -5.740  12.170  1.00143.95    -0.271 OA
HETATM   15  N20 MIQ B 502       5.103  -7.855  12.181  1.00140.02    -0.296 N 
HETATM   16  H13 MIQ B 502       4.685  -7.773  11.275  1.00142.77     0.171 HD
HETATM   17  C21 MIQ B 502       4.985  -9.071  12.944  1.00142.22     0.224 C 
HETATM   18  C22 MIQ B 502       4.882  -8.922  14.450  1.00139.52     0.106 C 
HETATM   19  O24 MIQ B 502       4.974 -10.131  12.421  1.00146.13    -0.273 OA
HETATM   20  C23 MIQ B 502       6.111  -8.150  14.892  1.00139.15     0.045 C 
ENDBRANCH  10  12
BRANCH   5  21
HETATM   21  N6  MIQ B 502       2.824  -1.409  17.948  1.00140.95    -0.377 N 
HETATM   22  C7  MIQ B 502       2.373  -0.213  17.259  1.00142.12     0.149 C 
HETATM   23  C8  MIQ B 502       1.757   0.798  18.219  1.00144.10     0.187 C 
HETATM   24  O9  MIQ B 502       0.828   0.224  19.089  1.00148.65    -0.388 OA
HETATM   25  C10 MIQ B 502       0.703  -1.165  19.175  1.00147.44     0.187 C 
HETATM   26  C11 MIQ B 502       1.934  -2.026  18.916  1.00144.08     0.149 C 
ENDBRANCH   5  21
TORSDOF 2
ENDMDL
MODEL 9
REMARK VINA RESULT:      -5.8      3.259      8.062
REMARK  2 active torsions:
REMARK  status: ('A' for Active; 'I' for Inactive)
REMARK    1  A    between atoms: C5_5  and  N6_21 
REMARK    2  A    between atoms: C18_14  and  N17_19 
ROOT
HETATM    1  O1  MIQ B 502       5.978  -3.465  17.430  1.00142.91    -0.171 OA
HETATM    2  C2  MIQ B 502       6.370  -3.879  16.155  1.00141.17     0.195 A 
HETATM    3  C3  MIQ B 502       7.421  -4.988  15.828  1.00141.71     0.035 A 
HETATM    4  C4  MIQ B 502       8.260  -5.876  16.668  1.00142.86     0.046 A 
HETATM    5  C5  MIQ B 502       9.142  -6.808  16.066  1.00139.53     0.031 A 
HETATM    6  C12 MIQ B 502       9.224  -6.892  14.615  1.00139.38     0.030 A 
HETATM    7  C13 MIQ B 502       8.419  -6.041  13.809  1.00141.18     0.019 A 
HETATM    8  C14 MIQ B 502       7.493  -5.066  14.447  1.00138.77     0.033 A 
HETATM    9  C15 MIQ B 502       6.480  -4.001  13.913  1.00142.10     0.195 A 
HETATM   10  N17 MIQ B 502       5.945  -3.438  14.984  1.00139.42    -0.288 N 
HETATM   11  O16 MIQ B 502       6.204  -3.707  12.577  1.00148.93    -0.171 OA
ENDROOT
BRANCH  10  12
HETATM   12  C18 MIQ B 502       4.960  -2.379  14.869  1.00139.82     0.187 C 
HETATM   13  C19 MIQ B 502       5.458  -1.185  15.694  1.00140.06     0.247 C 
HETATM   14  O25 MIQ B 502       6.555  -0.786  15.524  1.00143.95    -0.271 OA
HETATM   15  N20 MIQ B 502       4.617  -0.528  16.673  1.00140.02    -0.296 N 
HETATM   16  H13 MIQ B 502       4.956   0.246  17.209  1.00142.77     0.171 HD
HETATM   17  C21 MIQ B 502       3.285  -1.040  16.869  1.00142.22     0.224 C 
HETATM   18  C22 MIQ B 502       3.099  -2.536  16.705  1.00139.52     0.106 C 
HETATM   19  O24 MIQ B 502       2.382  -0.327  17.139  1.00146.13    -0.273 OA
HETATM   20  C23 MIQ B 502       3.585  -2.881  15.309  1.00139.15     0.045 C 
ENDBRANCH  10  12
BRANCH   5  21
HETATM   21  N6  MIQ B 502       9.968  -7.662  16.900  1.00140.95    -0.377 N 
HETATM   22  C7  MIQ B 502      10.655  -8.783  16.282  1.00142.12     0.149 C 
HETATM   23  C8  MIQ B 502      10.919  -9.906  17.276  1.00144.10     0.187 C 
HETATM   24  O9  MIQ B 502      11.475  -9.453  18.473  1.00148.65    -0.388 OA
HETATM   25  C10 MIQ B 502      11.535  -8.085  18.752  1.00147.44     0.187 C 
HETATM   26  C11 MIQ B 502      10.453  -7.175  18.180  1.00144.08     0.149 C 
ENDBRANCH   5  21
TORSDOF 2
ENDMDL
