MODEL 1
REMARK VINA RESULT:      -7.2      0.000      0.000
REMARK  2 active torsions:
REMARK  status: ('A' for Active; 'I' for Inactive)
REMARK    1  A    between atoms: C5_5  and  N6_21 
REMARK    2  A    between atoms: C18_14  and  N17_19 
ROOT
HETATM    1  O1  MIQ B 502      12.033  15.634  -8.824  1.00142.91    -0.171 OA
HETATM    2  C2  MIQ B 502      11.239  14.611  -8.300  1.00141.17     0.195 A 
HETATM    3  C3  MIQ B 502      10.510  14.625  -6.918  1.00141.71     0.035 A 
HETATM    4  C4  MIQ B 502      10.422  15.619  -5.822  1.00142.86     0.046 A 
HETATM    5  C5  MIQ B 502       9.661  15.339  -4.660  1.00139.53     0.031 A 
HETATM    6  C12 MIQ B 502       8.961  14.068  -4.544  1.00139.38     0.030 A 
HETATM    7  C13 MIQ B 502       9.043  13.115  -5.595  1.00141.18     0.019 A 
HETATM    8  C14 MIQ B 502       9.842  13.415  -6.814  1.00138.77     0.033 A 
HETATM    9  C15 MIQ B 502      10.159  12.646  -8.138  1.00142.10     0.195 A 
HETATM   10  N17 MIQ B 502      10.938  13.446  -8.848  1.00139.42    -0.288 N 
HETATM   11  O16 MIQ B 502       9.709  11.373  -8.493  1.00148.93    -0.171 OA
ENDROOT
BRANCH  10  12
HETATM   12  C18 MIQ B 502      11.448  13.049 -10.147  1.00139.82     0.187 C 
HETATM   13  C19 MIQ B 502      10.246  12.699 -11.034  1.00140.06     0.247 C 
HETATM   14  O25 MIQ B 502       9.355  13.466 -11.126  1.00143.95    -0.271 OA
HETATM   15  N20 MIQ B 502      10.177  11.452 -11.767  1.00140.02    -0.296 N 
HETATM   16  H13 MIQ B 502       9.384  11.232 -12.338  1.00142.77     0.171 HD
HETATM   17  C21 MIQ B 502      11.272  10.526 -11.630  1.00142.22     0.224 C 
HETATM   18  C22 MIQ B 502      11.965  10.486 -10.282  1.00139.52     0.106 C 
HETATM   19  O24 MIQ B 502      11.616   9.838 -12.527  1.00146.13    -0.273 OA
HETATM   20  C23 MIQ B 502      12.442  11.899  -9.999  1.00139.15     0.045 C 
ENDBRANCH  10  12
BRANCH   5  21
HETATM   21  N6  MIQ B 502       9.596  16.315  -3.588  1.00140.95    -0.377 N 
HETATM   22  C7  MIQ B 502       9.141  17.660  -3.899  1.00142.12     0.149 C 
HETATM   23  C8  MIQ B 502       9.709  18.690  -2.932  1.00144.10     0.187 C 
HETATM   24  O9  MIQ B 502       9.578  18.311  -1.595  1.00148.65    -0.388 OA
HETATM   25  C10 MIQ B 502       9.178  17.014  -1.263  1.00147.44     0.187 C 
HETATM   26  C11 MIQ B 502       9.548  15.873  -2.205  1.00144.08     0.149 C 
ENDBRANCH   5  21
TORSDOF 2
ENDMDL
MODEL 2
REMARK VINA RESULT:      -6.6      1.948      8.901
REMARK  2 active torsions:
REMARK  status: ('A' for Active; 'I' for Inactive)
REMARK    1  A    between atoms: C5_5  and  N6_21 
REMARK    2  A    between atoms: C18_14  and  N17_19 
ROOT
HETATM    1  O1  MIQ B 502      11.131  18.553  -5.859  1.00142.91    -0.171 OA
HETATM    2  C2  MIQ B 502      10.516  17.594  -5.051  1.00141.17     0.195 A 
HETATM    3  C3  MIQ B 502      10.152  16.134  -5.468  1.00141.71     0.035 A 
HETATM    4  C4  MIQ B 502      10.321  15.359  -6.721  1.00142.86     0.046 A 
HETATM    5  C5  MIQ B 502       9.879  14.014  -6.797  1.00139.53     0.031 A 
HETATM    6  C12 MIQ B 502       9.258  13.391  -5.637  1.00139.38     0.030 A 
HETATM    7  C13 MIQ B 502       9.097  14.133  -4.436  1.00141.18     0.019 A 
HETATM    8  C14 MIQ B 502       9.565  15.544  -4.361  1.00138.77     0.033 A 
HETATM    9  C15 MIQ B 502       9.565  16.644  -3.250  1.00142.10     0.195 A 
HETATM   10  N17 MIQ B 502      10.127  17.711  -3.794  1.00139.42    -0.288 N 
HETATM   11  O16 MIQ B 502       9.068  16.521  -1.951  1.00148.93    -0.171 OA
ENDROOT
BRANCH  10  12
HETATM   12  C18 MIQ B 502      10.283  18.947  -3.049  1.00139.82     0.187 C 
HETATM   13  C19 MIQ B 502      10.974  18.609  -1.722  1.00140.06     0.247 C 
HETATM   14  O25 MIQ B 502      11.968  17.974  -1.736  1.00143.95    -0.271 OA
HETATM   15  N20 MIQ B 502      10.443  19.053  -0.450  1.00140.02    -0.296 N 
HETATM   16  H13 MIQ B 502      10.900  18.820   0.410  1.00142.77     0.171 HD
HETATM   17  C21 MIQ B 502       9.222  19.818  -0.458  1.00142.22     0.224 C 
HETATM   18  C22 MIQ B 502       8.212  19.476  -1.536  1.00139.52     0.106 C 
HETATM   19  O24 MIQ B 502       9.023  20.672   0.334  1.00146.13    -0.273 OA
HETATM   20  C23 MIQ B 502       8.930  19.632  -2.865  1.00139.15     0.045 C 
ENDBRANCH  10  12
BRANCH   5  21
HETATM   21  N6  MIQ B 502      10.037  13.272  -8.035  1.00140.95    -0.377 N 
HETATM   22  C7  MIQ B 502      10.205  11.831  -7.964  1.00142.12     0.149 C 
HETATM   23  C8  MIQ B 502      10.973  11.289  -9.162  1.00144.10     0.187 C 
HETATM   24  O9  MIQ B 502      10.494  11.775 -10.380  1.00148.65    -0.388 OA
HETATM   25  C10 MIQ B 502       9.568  12.820 -10.410  1.00147.44     0.187 C 
HETATM   26  C11 MIQ B 502       9.601  13.856  -9.291  1.00144.08     0.149 C 
ENDBRANCH   5  21
TORSDOF 2
ENDMDL
MODEL 3
REMARK VINA RESULT:      -6.6      1.602      2.791
REMARK  2 active torsions:
REMARK  status: ('A' for Active; 'I' for Inactive)
REMARK    1  A    between atoms: C5_5  and  N6_21 
REMARK    2  A    between atoms: C18_14  and  N17_19 
ROOT
HETATM    1  O1  MIQ B 502       8.469  12.430  -6.027  1.00142.91    -0.171 OA
HETATM    2  C2  MIQ B 502       9.631  13.088  -6.435  1.00141.17     0.195 A 
HETATM    3  C3  MIQ B 502      10.311  14.294  -5.712  1.00141.71     0.035 A 
HETATM    4  C4  MIQ B 502       9.989  15.059  -4.485  1.00142.86     0.046 A 
HETATM    5  C5  MIQ B 502      10.819  16.131  -4.070  1.00139.53     0.031 A 
HETATM    6  C12 MIQ B 502      11.994  16.481  -4.855  1.00139.38     0.030 A 
HETATM    7  C13 MIQ B 502      12.304  15.747  -6.031  1.00141.18     0.019 A 
HETATM    8  C14 MIQ B 502      11.430  14.621  -6.461  1.00138.77     0.033 A 
HETATM    9  C15 MIQ B 502      11.446  13.611  -7.654  1.00142.10     0.195 A 
HETATM   10  N17 MIQ B 502      10.388  12.834  -7.489  1.00139.42    -0.288 N 
HETATM   11  O16 MIQ B 502      12.386  13.549  -8.684  1.00148.93    -0.171 OA
ENDROOT
BRANCH  10  12
HETATM   12  C18 MIQ B 502      10.071  11.777  -8.431  1.00139.82     0.187 C 
HETATM   13  C19 MIQ B 502      11.305  10.875  -8.555  1.00140.06     0.247 C 
HETATM   14  O25 MIQ B 502      11.813  10.455  -7.577  1.00143.95    -0.271 OA
HETATM   15  N20 MIQ B 502      11.864  10.518  -9.843  1.00140.02    -0.296 N 
HETATM   16  H13 MIQ B 502      12.674   9.934  -9.911  1.00142.77     0.171 HD
HETATM   17  C21 MIQ B 502      11.233  11.051 -11.023  1.00142.22     0.224 C 
HETATM   18  C22 MIQ B 502      10.625  12.436 -10.904  1.00139.52     0.106 C 
HETATM   19  O24 MIQ B 502      11.188  10.436 -12.031  1.00146.13    -0.273 OA
HETATM   20  C23 MIQ B 502       9.623  12.370  -9.766  1.00139.15     0.045 C 
ENDBRANCH  10  12
BRANCH   5  21
HETATM   21  N6  MIQ B 502      10.483  16.882  -2.873  1.00140.95    -0.377 N 
HETATM   22  C7  MIQ B 502       9.545  16.300  -1.929  1.00142.12     0.149 C 
HETATM   23  C8  MIQ B 502       8.810  17.367  -1.127  1.00144.10     0.187 C 
HETATM   24  O9  MIQ B 502       9.667  18.334  -0.598  1.00148.65    -0.388 OA
HETATM   25  C10 MIQ B 502      11.004  18.390  -0.997  1.00147.44     0.187 C 
HETATM   26  C11 MIQ B 502      11.364  17.939  -2.409  1.00144.08     0.149 C 
ENDBRANCH   5  21
TORSDOF 2
ENDMDL
MODEL 4
REMARK VINA RESULT:      -6.5     18.536     20.145
REMARK  2 active torsions:
REMARK  status: ('A' for Active; 'I' for Inactive)
REMARK    1  A    between atoms: C5_5  and  N6_21 
REMARK    2  A    between atoms: C18_14  and  N17_19 
ROOT
HETATM    1  O1  MIQ B 502      12.984   2.690   8.326  1.00142.91    -0.171 OA
HETATM    2  C2  MIQ B 502      14.309   2.957   8.677  1.00141.17     0.195 A 
HETATM    3  C3  MIQ B 502      14.788   3.957   9.777  1.00141.71     0.035 A 
HETATM    4  C4  MIQ B 502      14.077   4.856  10.717  1.00142.86     0.046 A 
HETATM    5  C5  MIQ B 502      14.806   5.665  11.625  1.00139.53     0.031 A 
HETATM    6  C12 MIQ B 502      16.260   5.611  11.634  1.00139.38     0.030 A 
HETATM    7  C13 MIQ B 502      16.943   4.748  10.734  1.00141.18     0.019 A 
HETATM    8  C14 MIQ B 502      16.173   3.899   9.784  1.00138.77     0.033 A 
HETATM    9  C15 MIQ B 502      16.555   2.858   8.683  1.00142.10     0.195 A 
HETATM   10  N17 MIQ B 502      15.412   2.431   8.171  1.00139.42    -0.288 N 
HETATM   11  O16 MIQ B 502      17.843   2.463   8.316  1.00148.93    -0.171 OA
ENDROOT
BRANCH  10  12
HETATM   12  C18 MIQ B 502      15.380   1.456   7.098  1.00139.82     0.187 C 
HETATM   13  C19 MIQ B 502      14.664   2.097   5.903  1.00140.06     0.247 C 
HETATM   14  O25 MIQ B 502      15.014   3.158   5.524  1.00143.95    -0.271 OA
HETATM   15  N20 MIQ B 502      13.571   1.434   5.222  1.00140.02    -0.296 N 
HETATM   16  H13 MIQ B 502      13.107   1.867   4.447  1.00142.77     0.171 HD
HETATM   17  C21 MIQ B 502      13.155   0.145   5.710  1.00142.22     0.224 C 
HETATM   18  C22 MIQ B 502      13.266  -0.086   7.205  1.00139.52     0.106 C 
HETATM   19  O24 MIQ B 502      12.752  -0.692   4.979  1.00146.13    -0.273 OA
HETATM   20  C23 MIQ B 502      14.717   0.164   7.573  1.00139.15     0.045 C 
ENDBRANCH  10  12
BRANCH   5  21
HETATM   21  N6  MIQ B 502      14.096   6.552  12.529  1.00140.95    -0.377 N 
HETATM   22  C7  MIQ B 502      13.889   7.932  12.127  1.00142.12     0.149 C 
HETATM   23  C8  MIQ B 502      13.749   8.859  13.328  1.00144.10     0.187 C 
HETATM   24  O9  MIQ B 502      12.857   8.376  14.286  1.00148.65    -0.388 OA
HETATM   25  C10 MIQ B 502      12.364   7.071  14.201  1.00147.44     0.187 C 
HETATM   26  C11 MIQ B 502      13.244   5.999  13.567  1.00144.08     0.149 C 
ENDBRANCH   5  21
TORSDOF 2
ENDMDL
MODEL 5
REMARK VINA RESULT:      -6.4     18.016     21.164
REMARK  2 active torsions:
REMARK  status: ('A' for Active; 'I' for Inactive)
REMARK    1  A    between atoms: C5_5  and  N6_21 
REMARK    2  A    between atoms: C18_14  and  N17_19 
ROOT
HETATM    1  O1  MIQ B 502      12.022   7.109   9.536  1.00142.91    -0.171 OA
HETATM    2  C2  MIQ B 502      13.072   6.758  10.388  1.00141.17     0.195 A 
HETATM    3  C3  MIQ B 502      13.790   5.372  10.445  1.00141.71     0.035 A 
HETATM    4  C4  MIQ B 502      13.619   4.105   9.696  1.00142.86     0.046 A 
HETATM    5  C5  MIQ B 502      14.445   2.988   9.980  1.00139.53     0.031 A 
HETATM    6  C12 MIQ B 502      15.467   3.088  11.012  1.00139.38     0.030 A 
HETATM    7  C13 MIQ B 502      15.631   4.304  11.730  1.00141.18     0.019 A 
HETATM    8  C14 MIQ B 502      14.762   5.474  11.426  1.00138.77     0.033 A 
HETATM    9  C15 MIQ B 502      14.648   6.931  11.981  1.00142.10     0.195 A 
HETATM   10  N17 MIQ B 502      13.670   7.506  11.299  1.00139.42    -0.288 N 
HETATM   11  O16 MIQ B 502      15.422   7.504  12.991  1.00148.93    -0.171 OA
ENDROOT
BRANCH  10  12
HETATM   12  C18 MIQ B 502      13.269   8.875  11.560  1.00139.82     0.187 C 
HETATM   13  C19 MIQ B 502      11.777   8.866  11.913  1.00140.06     0.247 C 
HETATM   14  O25 MIQ B 502      11.386   8.127  12.745  1.00143.95    -0.271 OA
HETATM   15  N20 MIQ B 502      10.831   9.746  11.256  1.00140.02    -0.296 N 
HETATM   16  H13 MIQ B 502       9.858   9.725  11.491  1.00142.77     0.171 HD
HETATM   17  C21 MIQ B 502      11.330  10.631  10.236  1.00142.22     0.224 C 
HETATM   18  C22 MIQ B 502      12.483  10.120   9.394  1.00139.52     0.106 C 
HETATM   19  O24 MIQ B 502      10.866  11.705  10.069  1.00146.13    -0.273 OA
HETATM   20  C23 MIQ B 502      13.598   9.763  10.360  1.00139.15     0.045 C 
ENDBRANCH  10  12
BRANCH   5  21
HETATM   21  N6  MIQ B 502      14.257   1.748   9.249  1.00140.95    -0.377 N 
HETATM   22  C7  MIQ B 502      14.066   1.812   7.810  1.00142.12     0.149 C 
HETATM   23  C8  MIQ B 502      13.271   0.622   7.289  1.00144.10     0.187 C 
HETATM   24  O9  MIQ B 502      13.742  -0.600   7.774  1.00148.65    -0.388 OA
HETATM   25  C10 MIQ B 502      14.685  -0.636   8.804  1.00147.44     0.187 C 
HETATM   26  C11 MIQ B 502      14.686   0.489   9.833  1.00144.08     0.149 C 
ENDBRANCH   5  21
TORSDOF 2
ENDMDL
MODEL 6
REMARK VINA RESULT:      -6.3     22.011     24.365
REMARK  2 active torsions:
REMARK  status: ('A' for Active; 'I' for Inactive)
REMARK    1  A    between atoms: C5_5  and  N6_21 
REMARK    2  A    between atoms: C18_14  and  N17_19 
ROOT
HETATM    1  O1  MIQ B 502      13.087  -1.820  10.990  1.00142.91    -0.171 OA
HETATM    2  C2  MIQ B 502      14.096  -0.932  11.368  1.00141.17     0.195 A 
HETATM    3  C3  MIQ B 502      14.870   0.042  10.423  1.00141.71     0.035 A 
HETATM    4  C4  MIQ B 502      14.799   0.322   8.970  1.00142.86     0.046 A 
HETATM    5  C5  MIQ B 502      15.653   1.291   8.384  1.00139.53     0.031 A 
HETATM    6  C12 MIQ B 502      16.605   2.013   9.216  1.00139.38     0.030 A 
HETATM    7  C13 MIQ B 502      16.672   1.745  10.610  1.00141.18     0.019 A 
HETATM    8  C14 MIQ B 502      15.771   0.729  11.220  1.00138.77     0.033 A 
HETATM    9  C15 MIQ B 502      15.555   0.179  12.668  1.00142.10     0.195 A 
HETATM   10  N17 MIQ B 502      14.596  -0.727  12.575  1.00139.42    -0.288 N 
HETATM   11  O16 MIQ B 502      16.241   0.567  13.820  1.00148.93    -0.171 OA
ENDROOT
BRANCH  10  12
HETATM   12  C18 MIQ B 502      14.138  -1.466  13.736  1.00139.82     0.187 C 
HETATM   13  C19 MIQ B 502      14.144  -2.956  13.374  1.00140.06     0.247 C 
HETATM   14  O25 MIQ B 502      15.117  -3.431  12.906  1.00143.95    -0.271 OA
HETATM   15  N20 MIQ B 502      12.989  -3.801  13.597  1.00140.02    -0.296 N 
HETATM   16  H13 MIQ B 502      13.004  -4.771  13.350  1.00142.77     0.171 HD
HETATM   17  C21 MIQ B 502      11.809  -3.197  14.160  1.00142.22     0.224 C 
HETATM   18  C22 MIQ B 502      11.535  -1.754  13.780  1.00139.52     0.106 C 
HETATM   19  O24 MIQ B 502      11.095  -3.795  14.887  1.00146.13    -0.273 OA
HETATM   20  C23 MIQ B 502      12.766  -0.961  14.181  1.00139.15     0.045 C 
ENDBRANCH  10  12
BRANCH   5  21
HETATM   21  N6  MIQ B 502      15.583   1.544   6.957  1.00140.95    -0.377 N 
HETATM   22  C7  MIQ B 502      14.385   1.146   6.238  1.00142.12     0.149 C 
HETATM   23  C8  MIQ B 502      14.670   0.865   4.768  1.00144.10     0.187 C 
HETATM   24  O9  MIQ B 502      15.425   1.869   4.160  1.00148.65    -0.388 OA
HETATM   25  C10 MIQ B 502      16.019   2.873   4.929  1.00147.44     0.187 C 
HETATM   26  C11 MIQ B 502      16.451   2.541   6.353  1.00144.08     0.149 C 
ENDBRANCH   5  21
TORSDOF 2
ENDMDL
MODEL 7
REMARK VINA RESULT:      -6.3     22.499     25.402
REMARK  2 active torsions:
REMARK  status: ('A' for Active; 'I' for Inactive)
REMARK    1  A    between atoms: C5_5  and  N6_21 
REMARK    2  A    between atoms: C18_14  and  N17_19 
ROOT
HETATM    1  O1  MIQ B 502      32.436   6.918  -9.201  1.00142.91    -0.171 OA
HETATM    2  C2  MIQ B 502      32.890   6.199 -10.309  1.00141.17     0.195 A 
HETATM    3  C3  MIQ B 502      32.849   6.673 -11.796  1.00141.71     0.035 A 
HETATM    4  C4  MIQ B 502      32.372   7.910 -12.458  1.00142.86     0.046 A 
HETATM    5  C5  MIQ B 502      32.472   8.054 -13.865  1.00139.53     0.031 A 
HETATM    6  C12 MIQ B 502      33.047   6.980 -14.663  1.00139.38     0.030 A 
HETATM    7  C13 MIQ B 502      33.506   5.795 -14.028  1.00141.18     0.019 A 
HETATM    8  C14 MIQ B 502      33.401   5.650 -12.550  1.00138.77     0.033 A 
HETATM    9  C15 MIQ B 502      33.787   4.535 -11.525  1.00142.10     0.195 A 
HETATM   10  N17 MIQ B 502      33.441   4.997 -10.335  1.00139.42    -0.288 N 
HETATM   11  O16 MIQ B 502      34.374   3.301 -11.813  1.00148.93    -0.171 OA
ENDROOT
BRANCH  10  12
HETATM   12  C18 MIQ B 502      33.639   4.212  -9.130  1.00139.82     0.187 C 
HETATM   13  C19 MIQ B 502      35.124   3.835  -9.057  1.00140.06     0.247 C 
HETATM   14  O25 MIQ B 502      35.939   4.681  -9.170  1.00143.95    -0.271 OA
HETATM   15  N20 MIQ B 502      35.555   2.469  -8.845  1.00140.02    -0.296 N 
HETATM   16  H13 MIQ B 502      36.528   2.235  -8.805  1.00142.77     0.171 HD
HETATM   17  C21 MIQ B 502      34.542   1.453  -8.719  1.00142.22     0.224 C 
HETATM   18  C22 MIQ B 502      33.276   1.650  -9.531  1.00139.52     0.106 C 
HETATM   19  O24 MIQ B 502      34.690   0.517  -8.013  1.00146.13    -0.273 OA
HETATM   20  C23 MIQ B 502      32.710   2.999  -9.127  1.00139.15     0.045 C 
ENDBRANCH  10  12
BRANCH   5  21
HETATM   21  N6  MIQ B 502      31.987   9.265 -14.502  1.00140.95    -0.377 N 
HETATM   22  C7  MIQ B 502      31.843  10.465 -13.696  1.00142.12     0.149 C 
HETATM   23  C8  MIQ B 502      30.781  11.402 -14.255  1.00144.10     0.187 C 
HETATM   24  O9  MIQ B 502      30.915  11.619 -15.627  1.00148.65    -0.388 OA
HETATM   25  C10 MIQ B 502      31.800  10.845 -16.383  1.00147.44     0.187 C 
HETATM   26  C11 MIQ B 502      32.069   9.409 -15.945  1.00144.08     0.149 C 
ENDBRANCH   5  21
TORSDOF 2
ENDMDL
MODEL 8
REMARK VINA RESULT:      -6.2     19.160     22.317
REMARK  2 active torsions:
REMARK  status: ('A' for Active; 'I' for Inactive)
REMARK    1  A    between atoms: C5_5  and  N6_21 
REMARK    2  A    between atoms: C18_14  and  N17_19 
ROOT
HETATM    1  O1  MIQ B 502      13.708   5.178  11.720  1.00142.91    -0.171 OA
HETATM    2  C2  MIQ B 502      15.022   5.119  11.251  1.00141.17     0.195 A 
HETATM    3  C3  MIQ B 502      15.543   4.231  10.076  1.00141.71     0.035 A 
HETATM    4  C4  MIQ B 502      14.889   3.264   9.163  1.00142.86     0.046 A 
HETATM    5  C5  MIQ B 502      15.645   2.596   8.166  1.00139.53     0.031 A 
HETATM    6  C12 MIQ B 502      17.070   2.863   8.040  1.00139.38     0.030 A 
HETATM    7  C13 MIQ B 502      17.697   3.791   8.914  1.00141.18     0.019 A 
HETATM    8  C14 MIQ B 502      16.898   4.491   9.957  1.00138.77     0.033 A 
HETATM    9  C15 MIQ B 502      17.221   5.547  11.065  1.00142.10     0.195 A 
HETATM   10  N17 MIQ B 502      16.078   5.786  11.685  1.00139.42    -0.288 N 
HETATM   11  O16 MIQ B 502      18.466   6.116  11.339  1.00148.93    -0.171 OA
ENDROOT
BRANCH  10  12
HETATM   12  C18 MIQ B 502      15.999   6.717  12.796  1.00139.82     0.187 C 
HETATM   13  C19 MIQ B 502      15.351   5.983  13.976  1.00140.06     0.247 C 
HETATM   14  O25 MIQ B 502      15.780   4.935  14.309  1.00143.95    -0.271 OA
HETATM   15  N20 MIQ B 502      14.228   6.542  14.700  1.00140.02    -0.296 N 
HETATM   16  H13 MIQ B 502      13.810   6.050  15.465  1.00142.77     0.171 HD
HETATM   17  C21 MIQ B 502      13.715   7.817  14.269  1.00142.22     0.224 C 
HETATM   18  C22 MIQ B 502      13.782   8.111  12.783  1.00139.52     0.106 C 
HETATM   19  O24 MIQ B 502      13.270   8.596  15.038  1.00146.13    -0.273 OA
HETATM   20  C23 MIQ B 502      15.240   7.977  12.382  1.00139.15     0.045 C 
ENDBRANCH  10  12
BRANCH   5  21
HETATM   21  N6  MIQ B 502      14.995   1.640   7.289  1.00140.95    -0.377 N 
HETATM   22  C7  MIQ B 502      14.615   0.346   7.830  1.00142.12     0.149 C 
HETATM   23  C8  MIQ B 502      14.565  -0.729   6.752  1.00144.10     0.187 C 
HETATM   24  O9  MIQ B 502      13.859  -0.327   5.616  1.00148.65    -0.388 OA
HETATM   25  C10 MIQ B 502      13.474   1.006   5.458  1.00147.44     0.187 C 
HETATM   26  C11 MIQ B 502      14.346   2.096   6.072  1.00144.08     0.149 C 
ENDBRANCH   5  21
TORSDOF 2
ENDMDL
MODEL 9
REMARK VINA RESULT:      -6.2     19.273     20.615
REMARK  2 active torsions:
REMARK  status: ('A' for Active; 'I' for Inactive)
REMARK    1  A    between atoms: C5_5  and  N6_21 
REMARK    2  A    between atoms: C18_14  and  N17_19 
ROOT
HETATM    1  O1  MIQ B 502      13.998   2.334   9.478  1.00142.91    -0.171 OA
HETATM    2  C2  MIQ B 502      15.142   3.128   9.592  1.00141.17     0.195 A 
HETATM    3  C3  MIQ B 502      15.202   4.585  10.152  1.00141.71     0.035 A 
HETATM    4  C4  MIQ B 502      14.179   5.510  10.695  1.00142.86     0.046 A 
HETATM    5  C5  MIQ B 502      14.548   6.805  11.139  1.00139.53     0.031 A 
HETATM    6  C12 MIQ B 502      15.940   7.226  11.062  1.00139.38     0.030 A 
HETATM    7  C13 MIQ B 502      16.920   6.339  10.542  1.00141.18     0.019 A 
HETATM    8  C14 MIQ B 502      16.527   4.980  10.080  1.00138.77     0.033 A 
HETATM    9  C15 MIQ B 502      17.295   3.761   9.471  1.00142.10     0.195 A 
HETATM   10  N17 MIQ B 502      16.385   2.824   9.263  1.00139.42    -0.288 N 
HETATM   11  O16 MIQ B 502      18.663   3.685   9.202  1.00148.93    -0.171 OA
ENDROOT
BRANCH  10  12
HETATM   12  C18 MIQ B 502      16.739   1.541   8.684  1.00139.82     0.187 C 
HETATM   13  C19 MIQ B 502      15.827   1.307   7.473  1.00140.06     0.247 C 
HETATM   14  O25 MIQ B 502      15.731   2.149   6.653  1.00143.95    -0.271 OA
HETATM   15  N20 MIQ B 502      15.082   0.076   7.305  1.00140.02    -0.296 N 
HETATM   16  H13 MIQ B 502      14.484  -0.062   6.514  1.00142.77     0.171 HD
HETATM   17  C21 MIQ B 502      15.207  -0.933   8.326  1.00142.22     0.224 C 
HETATM   18  C22 MIQ B 502      15.401  -0.443   9.748  1.00139.52     0.106 C 
HETATM   19  O24 MIQ B 502      15.165  -2.085   8.064  1.00146.13    -0.273 OA
HETATM   20  C23 MIQ B 502      16.638   0.437   9.735  1.00139.15     0.045 C 
ENDBRANCH  10  12
BRANCH   5  21
HETATM   21  N6  MIQ B 502      13.534   7.707  11.655  1.00140.95    -0.377 N 
HETATM   22  C7  MIQ B 502      12.880   8.618  10.731  1.00142.12     0.149 C 
HETATM   23  C8  MIQ B 502      12.372   9.871  11.433  1.00144.10     0.187 C 
HETATM   24  O9  MIQ B 502      11.658   9.589  12.599  1.00148.65    -0.388 OA
HETATM   25  C10 MIQ B 502      11.653   8.297  13.131  1.00147.44     0.187 C 
HETATM   26  C11 MIQ B 502      12.879   7.416  12.918  1.00144.08     0.149 C 
ENDBRANCH   5  21
TORSDOF 2
ENDMDL
