MODEL 1
REMARK VINA RESULT:      -7.7      0.000      0.000
REMARK  2 active torsions:
REMARK  status: ('A' for Active; 'I' for Inactive)
REMARK    1  A    between atoms: C5_5  and  N6_21 
REMARK    2  A    between atoms: C18_14  and  N17_19 
ROOT
HETATM    1  O1  MIQ B 502     -11.193  -5.151  10.953  1.00142.91    -0.171 OA
HETATM    2  C2  MIQ B 502     -11.423  -5.934   9.820  1.00141.17     0.195 A 
HETATM    3  C3  MIQ B 502     -11.480  -7.494   9.774  1.00141.71     0.035 A 
HETATM    4  C4  MIQ B 502     -11.331  -8.551  10.802  1.00142.86     0.046 A 
HETATM    5  C5  MIQ B 502     -11.439  -9.919  10.446  1.00139.53     0.031 A 
HETATM    6  C12 MIQ B 502     -11.700 -10.286   9.062  1.00139.38     0.030 A 
HETATM    7  C13 MIQ B 502     -11.845  -9.274   8.075  1.00141.18     0.019 A 
HETATM    8  C14 MIQ B 502     -11.732  -7.839   8.456  1.00138.77     0.033 A 
HETATM    9  C15 MIQ B 502     -11.832  -6.485   7.680  1.00142.10     0.195 A 
HETATM   10  N17 MIQ B 502     -11.640  -5.534   8.579  1.00139.42    -0.288 N 
HETATM   11  O16 MIQ B 502     -12.071  -6.320   6.314  1.00148.93    -0.171 OA
ENDROOT
BRANCH  10  12
HETATM   12  C18 MIQ B 502     -11.648  -4.131   8.210  1.00139.82     0.187 C 
HETATM   13  C19 MIQ B 502     -10.320  -3.518   8.672  1.00140.06     0.247 C 
HETATM   14  O25 MIQ B 502      -9.308  -4.046   8.374  1.00143.95    -0.271 OA
HETATM   15  N20 MIQ B 502     -10.273  -2.304   9.461  1.00140.02    -0.296 N 
HETATM   16  H13 MIQ B 502      -9.399  -1.918   9.761  1.00142.77     0.171 HD
HETATM   17  C21 MIQ B 502     -11.522  -1.684   9.821  1.00142.22     0.224 C 
HETATM   18  C22 MIQ B 502     -12.696  -2.611  10.068  1.00139.52     0.106 C 
HETATM   19  O24 MIQ B 502     -11.625  -0.510   9.913  1.00146.13    -0.273 OA
HETATM   20  C23 MIQ B 502     -12.871  -3.432   8.803  1.00139.15     0.045 C 
ENDBRANCH  10  12
BRANCH   5  21
HETATM   21  N6  MIQ B 502     -11.276 -10.943  11.461  1.00140.95    -0.377 N 
HETATM   22  C7  MIQ B 502     -10.426 -10.659  12.604  1.00142.12     0.149 C 
HETATM   23  C8  MIQ B 502      -9.836 -11.929  13.205  1.00144.10     0.187 C 
HETATM   24  O9  MIQ B 502     -10.789 -12.929  13.404  1.00148.65    -0.388 OA
HETATM   25  C10 MIQ B 502     -12.074 -12.799  12.871  1.00147.44     0.187 C 
HETATM   26  C11 MIQ B 502     -12.250 -12.014  11.575  1.00144.08     0.149 C 
ENDBRANCH   5  21
TORSDOF 2
ENDMDL
MODEL 2
REMARK VINA RESULT:      -7.2      9.452     14.595
REMARK  2 active torsions:
REMARK  status: ('A' for Active; 'I' for Inactive)
REMARK    1  A    between atoms: C5_5  and  N6_21 
REMARK    2  A    between atoms: C18_14  and  N17_19 
ROOT
HETATM    1  O1  MIQ B 502      -5.668 -14.104  21.812  1.00142.91    -0.171 OA
HETATM    2  C2  MIQ B 502      -6.191 -12.837  21.547  1.00141.17     0.195 A 
HETATM    3  C3  MIQ B 502      -6.480 -12.236  20.134  1.00141.71     0.035 A 
HETATM    4  C4  MIQ B 502      -6.318 -12.752  18.754  1.00142.86     0.046 A 
HETATM    5  C5  MIQ B 502      -6.679 -11.951  17.642  1.00139.53     0.031 A 
HETATM    6  C12 MIQ B 502      -7.212 -10.614  17.858  1.00139.38     0.030 A 
HETATM    7  C13 MIQ B 502      -7.369 -10.118  19.180  1.00141.18     0.019 A 
HETATM    8  C14 MIQ B 502      -6.990 -10.965  20.344  1.00138.77     0.033 A 
HETATM    9  C15 MIQ B 502      -7.019 -10.777  21.896  1.00142.10     0.195 A 
HETATM   10  N17 MIQ B 502      -6.548 -11.901  22.410  1.00139.42    -0.288 N 
HETATM   11  O16 MIQ B 502      -7.453  -9.647  22.593  1.00148.93    -0.171 OA
ENDROOT
BRANCH  10  12
HETATM   12  C18 MIQ B 502      -6.414 -12.082  23.843  1.00139.82     0.187 C 
HETATM   13  C19 MIQ B 502      -4.954 -12.447  24.134  1.00140.06     0.247 C 
HETATM   14  O25 MIQ B 502      -4.092 -11.773  23.693  1.00143.95    -0.271 OA
HETATM   15  N20 MIQ B 502      -4.600 -13.596  24.942  1.00140.02    -0.296 N 
HETATM   16  H13 MIQ B 502      -3.643 -13.828  25.119  1.00142.77     0.171 HD
HETATM   17  C21 MIQ B 502      -5.669 -14.410  25.461  1.00142.22     0.224 C 
HETATM   18  C22 MIQ B 502      -6.908 -14.541  24.596  1.00139.52     0.106 C 
HETATM   19  O24 MIQ B 502      -5.585 -14.945  26.512  1.00146.13    -0.273 OA
HETATM   20  C23 MIQ B 502      -7.407 -13.130  24.342  1.00139.15     0.045 C 
ENDBRANCH  10  12
BRANCH   5  21
HETATM   21  N6  MIQ B 502      -6.501 -12.464  16.296  1.00140.95    -0.377 N 
HETATM   22  C7  MIQ B 502      -7.300 -11.895  15.224  1.00142.12     0.149 C 
HETATM   23  C8  MIQ B 502      -7.506 -12.882  14.083  1.00144.10     0.187 C 
HETATM   24  O9  MIQ B 502      -6.321 -13.502  13.679  1.00148.65    -0.388 OA
HETATM   25  C10 MIQ B 502      -5.156 -13.362  14.438  1.00147.44     0.187 C 
HETATM   26  C11 MIQ B 502      -5.285 -13.178  15.946  1.00144.08     0.149 C 
ENDBRANCH   5  21
TORSDOF 2
ENDMDL
MODEL 3
REMARK VINA RESULT:      -7.1      1.442      2.631
REMARK  2 active torsions:
REMARK  status: ('A' for Active; 'I' for Inactive)
REMARK    1  A    between atoms: C5_5  and  N6_21 
REMARK    2  A    between atoms: C18_14  and  N17_19 
ROOT
HETATM    1  O1  MIQ B 502     -11.946  -6.740   6.707  1.00142.91    -0.171 OA
HETATM    2  C2  MIQ B 502     -11.702  -6.711   8.082  1.00141.17     0.195 A 
HETATM    3  C3  MIQ B 502     -11.590  -7.951   9.025  1.00141.71     0.035 A 
HETATM    4  C4  MIQ B 502     -11.691  -9.413   8.803  1.00142.86     0.046 A 
HETATM    5  C5  MIQ B 502     -11.538 -10.314   9.886  1.00139.53     0.031 A 
HETATM    6  C12 MIQ B 502     -11.281  -9.800  11.224  1.00139.38     0.030 A 
HETATM    7  C13 MIQ B 502     -11.184  -8.398  11.437  1.00141.18     0.019 A 
HETATM    8  C14 MIQ B 502     -11.342  -7.457  10.295  1.00138.77     0.033 A 
HETATM    9  C15 MIQ B 502     -11.299  -5.901  10.139  1.00142.10     0.195 A 
HETATM   10  N17 MIQ B 502     -11.514  -5.657   8.857  1.00139.42    -0.288 N 
HETATM   11  O16 MIQ B 502     -11.082  -4.966  11.152  1.00148.93    -0.171 OA
ENDROOT
BRANCH  10  12
HETATM   12  C18 MIQ B 502     -11.559  -4.301   8.342  1.00139.82     0.187 C 
HETATM   13  C19 MIQ B 502     -10.257  -3.601   8.751  1.00140.06     0.247 C 
HETATM   14  O25 MIQ B 502      -9.225  -4.125   8.522  1.00143.95    -0.271 OA
HETATM   15  N20 MIQ B 502     -10.258  -2.310   9.407  1.00140.02    -0.296 N 
HETATM   16  H13 MIQ B 502      -9.401  -1.867   9.675  1.00142.77     0.171 HD
HETATM   17  C21 MIQ B 502     -11.531  -1.695   9.685  1.00142.22     0.224 C 
HETATM   18  C22 MIQ B 502     -12.680  -2.628  10.016  1.00139.52     0.106 C 
HETATM   19  O24 MIQ B 502     -11.671  -0.522   9.652  1.00146.13    -0.273 OA
HETATM   20  C23 MIQ B 502     -12.811  -3.583   8.844  1.00139.15     0.045 C 
ENDBRANCH  10  12
BRANCH   5  21
HETATM   21  N6  MIQ B 502     -11.654 -11.743   9.657  1.00140.95    -0.377 N 
HETATM   22  C7  MIQ B 502     -12.644 -12.490  10.414  1.00142.12     0.149 C 
HETATM   23  C8  MIQ B 502     -12.250 -13.953  10.576  1.00144.10     0.187 C 
HETATM   24  O9  MIQ B 502     -11.845 -14.543   9.377  1.00148.65    -0.388 OA
HETATM   25  C10 MIQ B 502     -11.623 -13.759   8.242  1.00147.44     0.187 C 
HETATM   26  C11 MIQ B 502     -11.140 -12.325   8.429  1.00144.08     0.149 C 
ENDBRANCH   5  21
TORSDOF 2
ENDMDL
MODEL 4
REMARK VINA RESULT:      -7.1      7.616     10.799
REMARK  2 active torsions:
REMARK  status: ('A' for Active; 'I' for Inactive)
REMARK    1  A    between atoms: C5_5  and  N6_21 
REMARK    2  A    between atoms: C18_14  and  N17_19 
ROOT
HETATM    1  O1  MIQ B 502      -8.733 -15.616  16.123  1.00142.91    -0.171 OA
HETATM    2  C2  MIQ B 502      -9.388 -14.707  15.289  1.00141.17     0.195 A 
HETATM    3  C3  MIQ B 502      -8.849 -13.311  14.843  1.00141.71     0.035 A 
HETATM    4  C4  MIQ B 502      -7.598 -12.565  15.122  1.00142.86     0.046 A 
HETATM    5  C5  MIQ B 502      -7.388 -11.282  14.557  1.00139.53     0.031 A 
HETATM    6  C12 MIQ B 502      -8.407 -10.695  13.698  1.00139.38     0.030 A 
HETATM    7  C13 MIQ B 502      -9.605 -11.410  13.430  1.00141.18     0.019 A 
HETATM    8  C14 MIQ B 502      -9.819 -12.758  14.024  1.00138.77     0.033 A 
HETATM    9  C15 MIQ B 502     -10.967 -13.817  13.960  1.00142.10     0.195 A 
HETATM   10  N17 MIQ B 502     -10.570 -14.832  14.709  1.00139.42    -0.288 N 
HETATM   11  O16 MIQ B 502     -12.168 -13.707  13.256  1.00148.93    -0.171 OA
ENDROOT
BRANCH  10  12
HETATM   12  C18 MIQ B 502     -11.401 -16.006  14.897  1.00139.82     0.187 C 
HETATM   13  C19 MIQ B 502     -11.848 -16.490  13.512  1.00140.06     0.247 C 
HETATM   14  O25 MIQ B 502     -11.037 -16.654  12.670  1.00143.95    -0.271 OA
HETATM   15  N20 MIQ B 502     -13.239 -16.757  13.207  1.00140.02    -0.296 N 
HETATM   16  H13 MIQ B 502     -13.518 -17.065  12.297  1.00142.77     0.171 HD
HETATM   17  C21 MIQ B 502     -14.210 -16.539  14.248  1.00142.22     0.224 C 
HETATM   18  C22 MIQ B 502     -13.930 -15.405  15.215  1.00139.52     0.106 C 
HETATM   19  O24 MIQ B 502     -15.175 -17.215  14.344  1.00146.13    -0.273 OA
HETATM   20  C23 MIQ B 502     -12.570 -15.687  15.828  1.00139.15     0.045 C 
ENDBRANCH  10  12
BRANCH   5  21
HETATM   21  N6  MIQ B 502      -6.166 -10.556  14.850  1.00140.95    -0.377 N 
HETATM   22  C7  MIQ B 502      -5.421 -10.905  16.048  1.00142.12     0.149 C 
HETATM   23  C8  MIQ B 502      -4.601  -9.733  16.570  1.00144.10     0.187 C 
HETATM   24  O9  MIQ B 502      -3.860  -9.100  15.570  1.00148.65    -0.388 OA
HETATM   25  C10 MIQ B 502      -4.077  -9.410  14.225  1.00147.44     0.187 C 
HETATM   26  C11 MIQ B 502      -5.475  -9.841  13.792  1.00144.08     0.149 C 
ENDBRANCH   5  21
TORSDOF 2
ENDMDL
MODEL 5
REMARK VINA RESULT:      -7.1      9.318     12.262
REMARK  2 active torsions:
REMARK  status: ('A' for Active; 'I' for Inactive)
REMARK    1  A    between atoms: C5_5  and  N6_21 
REMARK    2  A    between atoms: C18_14  and  N17_19 
ROOT
HETATM    1  O1  MIQ B 502      -5.306 -14.559  16.468  1.00142.91    -0.171 OA
HETATM    2  C2  MIQ B 502      -5.862 -13.278  16.458  1.00141.17     0.195 A 
HETATM    3  C3  MIQ B 502      -6.279 -12.444  17.712  1.00141.71     0.035 A 
HETATM    4  C4  MIQ B 502      -6.228 -12.702  19.170  1.00142.86     0.046 A 
HETATM    5  C5  MIQ B 502      -6.692 -11.726  20.088  1.00139.53     0.031 A 
HETATM    6  C12 MIQ B 502      -7.220 -10.463  19.593  1.00139.38     0.030 A 
HETATM    7  C13 MIQ B 502      -7.268 -10.214  18.194  1.00141.18     0.019 A 
HETATM    8  C14 MIQ B 502      -6.778 -11.243  17.236  1.00138.77     0.033 A 
HETATM    9  C15 MIQ B 502      -6.669 -11.330  15.679  1.00142.10     0.195 A 
HETATM   10  N17 MIQ B 502      -6.141 -12.515  15.416  1.00139.42    -0.288 N 
HETATM   11  O16 MIQ B 502      -7.054 -10.355  14.758  1.00148.93    -0.171 OA
ENDROOT
BRANCH  10  12
HETATM   12  C18 MIQ B 502      -5.906 -12.953  14.053  1.00139.82     0.187 C 
HETATM   13  C19 MIQ B 502      -6.597 -14.310  13.872  1.00140.06     0.247 C 
HETATM   14  O25 MIQ B 502      -7.729 -14.426  14.182  1.00143.95    -0.271 OA
HETATM   15  N20 MIQ B 502      -5.900 -15.456  13.325  1.00140.02    -0.296 N 
HETATM   16  H13 MIQ B 502      -6.360 -16.338  13.218  1.00142.77     0.171 HD
HETATM   17  C21 MIQ B 502      -4.515 -15.293  12.963  1.00142.22     0.224 C 
HETATM   18  C22 MIQ B 502      -3.697 -14.339  13.812  1.00139.52     0.106 C 
HETATM   19  O24 MIQ B 502      -4.044 -15.871  12.046  1.00146.13    -0.273 OA
HETATM   20  C23 MIQ B 502      -4.407 -12.998  13.760  1.00139.15     0.045 C 
ENDBRANCH  10  12
BRANCH   5  21
HETATM   21  N6  MIQ B 502      -6.650 -11.998  21.513  1.00140.95    -0.377 N 
HETATM   22  C7  MIQ B 502      -6.150 -13.287  21.959  1.00142.12     0.149 C 
HETATM   23  C8  MIQ B 502      -6.734 -13.687  23.308  1.00144.10     0.187 C 
HETATM   24  O9  MIQ B 502      -6.669 -12.661  24.254  1.00148.65    -0.388 OA
HETATM   25  C10 MIQ B 502      -6.315 -11.366  23.870  1.00147.44     0.187 C 
HETATM   26  C11 MIQ B 502      -6.671 -10.899  22.462  1.00144.08     0.149 C 
ENDBRANCH   5  21
TORSDOF 2
ENDMDL
MODEL 6
REMARK VINA RESULT:      -7.0      5.050      7.448
REMARK  2 active torsions:
REMARK  status: ('A' for Active; 'I' for Inactive)
REMARK    1  A    between atoms: C5_5  and  N6_21 
REMARK    2  A    between atoms: C18_14  and  N17_19 
ROOT
HETATM    1  O1  MIQ B 502     -13.924  -2.940   8.349  1.00142.91    -0.171 OA
HETATM    2  C2  MIQ B 502     -12.899  -3.573   7.641  1.00141.17     0.195 A 
HETATM    3  C3  MIQ B 502     -13.032  -4.267   6.248  1.00141.71     0.035 A 
HETATM    4  C4  MIQ B 502     -14.164  -4.462   5.311  1.00142.86     0.046 A 
HETATM    5  C5  MIQ B 502     -13.970  -5.150   4.087  1.00139.53     0.031 A 
HETATM    6  C12 MIQ B 502     -12.652  -5.667   3.750  1.00139.38     0.030 A 
HETATM    7  C13 MIQ B 502     -11.566  -5.480   4.648  1.00141.18     0.019 A 
HETATM    8  C14 MIQ B 502     -11.775  -4.754   5.930  1.00138.77     0.033 A 
HETATM    9  C15 MIQ B 502     -10.856  -4.360   7.132  1.00142.10     0.195 A 
HETATM   10  N17 MIQ B 502     -11.631  -3.712   7.987  1.00139.42    -0.288 N 
HETATM   11  O16 MIQ B 502      -9.496  -4.640   7.271  1.00148.93    -0.171 OA
ENDROOT
BRANCH  10  12
HETATM   12  C18 MIQ B 502     -11.113  -3.205   9.244  1.00139.82     0.187 C 
HETATM   13  C19 MIQ B 502     -12.014  -3.732  10.368  1.00140.06     0.247 C 
HETATM   14  O25 MIQ B 502     -12.250  -4.886  10.423  1.00143.95    -0.271 OA
HETATM   15  N20 MIQ B 502     -12.579  -2.851  11.370  1.00140.02    -0.296 N 
HETATM   16  H13 MIQ B 502     -13.171  -3.207  12.094  1.00142.77     0.171 HD
HETATM   17  C21 MIQ B 502     -12.285  -1.445  11.275  1.00142.22     0.224 C 
HETATM   18  C22 MIQ B 502     -12.125  -0.875   9.879  1.00139.52     0.106 C 
HETATM   19  O24 MIQ B 502     -12.169  -0.772  12.239  1.00146.13    -0.273 OA
HETATM   20  C23 MIQ B 502     -11.028  -1.680   9.207  1.00139.15     0.045 C 
ENDBRANCH  10  12
BRANCH   5  21
HETATM   21  N6  MIQ B 502     -15.090  -5.347   3.185  1.00140.95    -0.377 N 
HETATM   22  C7  MIQ B 502     -14.994  -6.386   2.175  1.00142.12     0.149 C 
HETATM   23  C8  MIQ B 502     -15.862  -6.081   0.960  1.00144.10     0.187 C 
HETATM   24  O9  MIQ B 502     -17.161  -5.699   1.303  1.00148.65    -0.388 OA
HETATM   25  C10 MIQ B 502     -17.489  -5.421   2.632  1.00147.44     0.187 C 
HETATM   26  C11 MIQ B 502     -16.408  -4.856   3.548  1.00144.08     0.149 C 
ENDBRANCH   5  21
TORSDOF 2
ENDMDL
MODEL 7
REMARK VINA RESULT:      -7.0      9.041     13.042
REMARK  2 active torsions:
REMARK  status: ('A' for Active; 'I' for Inactive)
REMARK    1  A    between atoms: C5_5  and  N6_21 
REMARK    2  A    between atoms: C18_14  and  N17_19 
ROOT
HETATM    1  O1  MIQ B 502      -5.333 -14.610  18.371  1.00142.91    -0.171 OA
HETATM    2  C2  MIQ B 502      -5.692 -13.315  18.751  1.00141.17     0.195 A 
HETATM    3  C3  MIQ B 502      -6.080 -12.850  20.191  1.00141.71     0.035 A 
HETATM    4  C4  MIQ B 502      -6.184 -13.549  21.494  1.00142.86     0.046 A 
HETATM    5  C5  MIQ B 502      -6.570 -12.840  22.659  1.00139.53     0.031 A 
HETATM    6  C12 MIQ B 502      -6.865 -11.417  22.574  1.00139.38     0.030 A 
HETATM    7  C13 MIQ B 502      -6.765 -10.746  21.325  1.00141.18     0.019 A 
HETATM    8  C14 MIQ B 502      -6.357 -11.496  20.106  1.00138.77     0.033 A 
HETATM    9  C15 MIQ B 502      -6.139 -11.117  18.604  1.00142.10     0.195 A 
HETATM   10  N17 MIQ B 502      -5.772 -12.233  17.996  1.00139.42    -0.288 N 
HETATM   11  O16 MIQ B 502      -6.302  -9.856  18.028  1.00148.93    -0.171 OA
ENDROOT
BRANCH  10  12
HETATM   12  C18 MIQ B 502      -5.497 -12.263  16.572  1.00139.82     0.187 C 
HETATM   13  C19 MIQ B 502      -4.448 -11.184  16.275  1.00140.06     0.247 C 
HETATM   14  O25 MIQ B 502      -3.457 -11.153  16.915  1.00143.95    -0.271 OA
HETATM   15  N20 MIQ B 502      -4.637 -10.204  15.225  1.00140.02    -0.296 N 
HETATM   16  H13 MIQ B 502      -3.947  -9.501  15.046  1.00142.77     0.171 HD
HETATM   17  C21 MIQ B 502      -5.859 -10.257  14.465  1.00142.22     0.224 C 
HETATM   18  C22 MIQ B 502      -7.102 -10.711  15.205  1.00139.52     0.106 C 
HETATM   19  O24 MIQ B 502      -5.887  -9.965  13.320  1.00146.13    -0.273 OA
HETATM   20  C23 MIQ B 502      -6.788 -12.081  15.776  1.00139.15     0.045 C 
ENDBRANCH  10  12
BRANCH   5  21
HETATM   21  N6  MIQ B 502      -6.682 -13.540  23.926  1.00140.95    -0.377 N 
HETATM   22  C7  MIQ B 502      -7.452 -14.771  23.973  1.00142.12     0.149 C 
HETATM   23  C8  MIQ B 502      -8.019 -15.033  25.363  1.00144.10     0.187 C 
HETATM   24  O9  MIQ B 502      -7.069 -14.884  26.375  1.00148.65    -0.388 OA
HETATM   25  C10 MIQ B 502      -5.819 -14.324  26.096  1.00147.44     0.187 C 
HETATM   26  C11 MIQ B 502      -5.717 -13.287  24.982  1.00144.08     0.149 C 
ENDBRANCH   5  21
TORSDOF 2
ENDMDL
MODEL 8
REMARK VINA RESULT:      -6.9     10.147     13.528
REMARK  2 active torsions:
REMARK  status: ('A' for Active; 'I' for Inactive)
REMARK    1  A    between atoms: C5_5  and  N6_21 
REMARK    2  A    between atoms: C18_14  and  N17_19 
ROOT
HETATM    1  O1  MIQ B 502      -5.907 -14.013  18.394  1.00142.91    -0.171 OA
HETATM    2  C2  MIQ B 502      -6.330 -12.778  18.889  1.00141.17     0.195 A 
HETATM    3  C3  MIQ B 502      -6.455 -12.381  20.394  1.00141.71     0.035 A 
HETATM    4  C4  MIQ B 502      -6.191 -13.101  21.663  1.00142.86     0.046 A 
HETATM    5  C5  MIQ B 502      -6.402 -12.458  22.909  1.00139.53     0.031 A 
HETATM    6  C12 MIQ B 502      -6.879 -11.083  22.941  1.00139.38     0.030 A 
HETATM    7  C13 MIQ B 502      -7.131 -10.392  21.725  1.00141.18     0.019 A 
HETATM    8  C14 MIQ B 502      -6.906 -11.071  20.420  1.00138.77     0.033 A 
HETATM    9  C15 MIQ B 502      -7.061 -10.652  18.921  1.00142.10     0.195 A 
HETATM   10  N17 MIQ B 502      -6.701 -11.707  18.208  1.00139.42    -0.288 N 
HETATM   11  O16 MIQ B 502      -7.496  -9.416  18.440  1.00148.93    -0.171 OA
ENDROOT
BRANCH  10  12
HETATM   12  C18 MIQ B 502      -6.735 -11.687  16.758  1.00139.82     0.187 C 
HETATM   13  C19 MIQ B 502      -7.474 -12.947  16.290  1.00140.06     0.247 C 
HETATM   14  O25 MIQ B 502      -8.530 -13.200  16.752  1.00143.95    -0.271 OA
HETATM   15  N20 MIQ B 502      -6.915 -13.834  15.291  1.00140.02    -0.296 N 
HETATM   16  H13 MIQ B 502      -7.404 -14.657  14.999  1.00142.77     0.171 HD
HETATM   17  C21 MIQ B 502      -5.620 -13.509  14.750  1.00142.22     0.224 C 
HETATM   18  C22 MIQ B 502      -4.639 -12.836  15.689  1.00139.52     0.106 C 
HETATM   19  O24 MIQ B 502      -5.341 -13.752  13.627  1.00146.13    -0.273 OA
HETATM   20  C23 MIQ B 502      -5.320 -11.577  16.194  1.00139.15     0.045 C 
ENDBRANCH  10  12
BRANCH   5  21
HETATM   21  N6  MIQ B 502      -6.154 -13.180  24.143  1.00140.95    -0.377 N 
HETATM   22  C7  MIQ B 502      -6.954 -14.358  24.432  1.00142.12     0.149 C 
HETATM   23  C8  MIQ B 502      -7.067 -14.616  25.929  1.00144.10     0.187 C 
HETATM   24  O9  MIQ B 502      -5.836 -14.555  26.585  1.00148.65    -0.388 OA
HETATM   25  C10 MIQ B 502      -4.704 -14.073  25.923  1.00147.44     0.187 C 
HETATM   26  C11 MIQ B 502      -4.889 -13.018  24.837  1.00144.08     0.149 C 
ENDBRANCH   5  21
TORSDOF 2
ENDMDL
MODEL 9
REMARK VINA RESULT:      -6.9      4.809      7.534
REMARK  2 active torsions:
REMARK  status: ('A' for Active; 'I' for Inactive)
REMARK    1  A    between atoms: C5_5  and  N6_21 
REMARK    2  A    between atoms: C18_14  and  N17_19 
ROOT
HETATM    1  O1  MIQ B 502     -13.184  -3.652   3.802  1.00142.91    -0.171 OA
HETATM    2  C2  MIQ B 502     -13.802  -3.365   5.022  1.00141.17     0.195 A 
HETATM    3  C3  MIQ B 502     -13.137  -3.442   6.433  1.00141.71     0.035 A 
HETATM    4  C4  MIQ B 502     -11.777  -3.802   6.900  1.00142.86     0.046 A 
HETATM    5  C5  MIQ B 502     -11.464  -3.777   8.283  1.00139.53     0.031 A 
HETATM    6  C12 MIQ B 502     -12.485  -3.393   9.248  1.00139.38     0.030 A 
HETATM    7  C13 MIQ B 502     -13.788  -3.046   8.800  1.00141.18     0.019 A 
HETATM    8  C14 MIQ B 502     -14.110  -3.073   7.347  1.00138.77     0.033 A 
HETATM    9  C15 MIQ B 502     -15.387  -2.764   6.498  1.00142.10     0.195 A 
HETATM   10  N17 MIQ B 502     -15.046  -2.971   5.237  1.00139.42    -0.288 N 
HETATM   11  O16 MIQ B 502     -16.632  -2.355   6.980  1.00148.93    -0.171 OA
ENDROOT
BRANCH  10  12
HETATM   12  C18 MIQ B 502     -15.998  -2.795   4.156  1.00139.82     0.187 C 
HETATM   13  C19 MIQ B 502     -16.570  -1.377   4.263  1.00140.06     0.247 C 
HETATM   14  O25 MIQ B 502     -15.830  -0.462   4.351  1.00143.95    -0.271 OA
HETATM   15  N20 MIQ B 502     -17.996  -1.126   4.254  1.00140.02    -0.296 N 
HETATM   16  H13 MIQ B 502     -18.357  -0.195   4.331  1.00142.77     0.171 HD
HETATM   17  C21 MIQ B 502     -18.880  -2.259   4.156  1.00142.22     0.224 C 
HETATM   18  C22 MIQ B 502     -18.418  -3.542   4.820  1.00139.52     0.106 C 
HETATM   19  O24 MIQ B 502     -19.911  -2.191   3.581  1.00146.13    -0.273 OA
HETATM   20  C23 MIQ B 502     -17.070  -3.882   4.210  1.00139.15     0.045 C 
ENDBRANCH  10  12
BRANCH   5  21
HETATM   21  N6  MIQ B 502     -10.133  -4.147   8.728  1.00140.95    -0.377 N 
HETATM   22  C7  MIQ B 502      -9.877  -5.534   9.073  1.00142.12     0.149 C 
HETATM   23  C8  MIQ B 502      -8.745  -5.670  10.083  1.00144.10     0.187 C 
HETATM   24  O9  MIQ B 502      -7.617  -4.922   9.738  1.00148.65    -0.388 OA
HETATM   25  C10 MIQ B 502      -7.675  -3.992   8.697  1.00147.44     0.187 C 
HETATM   26  C11 MIQ B 502      -9.001  -3.291   8.419  1.00144.08     0.149 C 
ENDBRANCH   5  21
TORSDOF 2
ENDMDL
