MODEL 1
REMARK VINA RESULT:      -7.5      0.000      0.000
REMARK  2 active torsions:
REMARK  status: ('A' for Active; 'I' for Inactive)
REMARK    1  A    between atoms: C5_5  and  N6_21 
REMARK    2  A    between atoms: C18_14  and  N17_19 
ROOT
HETATM    1  O1  MIQ B 502     -10.418  -8.104   2.985  1.00142.91    -0.171 OA
HETATM    2  C2  MIQ B 502     -10.028  -7.932   1.655  1.00141.17     0.195 A 
HETATM    3  C3  MIQ B 502      -8.698  -7.278   1.161  1.00141.71     0.035 A 
HETATM    4  C4  MIQ B 502      -7.531  -6.688   1.859  1.00142.86     0.046 A 
HETATM    5  C5  MIQ B 502      -6.444  -6.160   1.118  1.00139.53     0.031 A 
HETATM    6  C12 MIQ B 502      -6.475  -6.198  -0.337  1.00139.38     0.030 A 
HETATM    7  C13 MIQ B 502      -7.594  -6.763  -1.007  1.00141.18     0.019 A 
HETATM    8  C14 MIQ B 502      -8.731  -7.319  -0.224  1.00138.77     0.033 A 
HETATM    9  C15 MIQ B 502     -10.088  -8.003  -0.591  1.00142.10     0.195 A 
HETATM   10  N17 MIQ B 502     -10.680  -8.280   0.559  1.00139.42    -0.288 N 
HETATM   11  O16 MIQ B 502     -10.573  -8.263  -1.874  1.00148.93    -0.171 OA
ENDROOT
BRANCH  10  12
HETATM   12  C18 MIQ B 502     -11.985  -8.914   0.606  1.00139.82     0.187 C 
HETATM   13  C19 MIQ B 502     -11.834 -10.337   0.056  1.00140.06     0.247 C 
HETATM   14  O25 MIQ B 502     -10.989 -11.036   0.491  1.00143.95    -0.271 OA
HETATM   15  N20 MIQ B 502     -12.704 -10.852  -0.982  1.00140.02    -0.296 N 
HETATM   16  H13 MIQ B 502     -12.591 -11.781  -1.337  1.00142.77     0.171 HD
HETATM   17  C21 MIQ B 502     -13.721  -9.976  -1.505  1.00142.22     0.224 C 
HETATM   18  C22 MIQ B 502     -13.380  -8.500  -1.571  1.00139.52     0.106 C 
HETATM   19  O24 MIQ B 502     -14.770 -10.389  -1.859  1.00146.13    -0.273 OA
HETATM   20  C23 MIQ B 502     -13.009  -8.079  -0.161  1.00139.15     0.045 C 
ENDBRANCH  10  12
BRANCH   5  21
HETATM   21  N6  MIQ B 502      -5.315  -5.573   1.815  1.00140.95    -0.377 N 
HETATM   22  C7  MIQ B 502      -4.531  -6.415   2.702  1.00142.12     0.149 C 
HETATM   23  C8  MIQ B 502      -3.853  -5.608   3.801  1.00144.10     0.187 C 
HETATM   24  O9  MIQ B 502      -3.194  -4.476   3.317  1.00148.65    -0.388 OA
HETATM   25  C10 MIQ B 502      -3.377  -4.062   1.995  1.00147.44     0.187 C 
HETATM   26  C11 MIQ B 502      -4.716  -4.345   1.321  1.00144.08     0.149 C 
ENDBRANCH   5  21
TORSDOF 2
ENDMDL
MODEL 2
REMARK VINA RESULT:      -7.2      1.878      8.480
REMARK  2 active torsions:
REMARK  status: ('A' for Active; 'I' for Inactive)
REMARK    1  A    between atoms: C5_5  and  N6_21 
REMARK    2  A    between atoms: C18_14  and  N17_19 
ROOT
HETATM    1  O1  MIQ B 502      -6.798  -5.652  -1.237  1.00142.91    -0.171 OA
HETATM    2  C2  MIQ B 502      -7.234  -6.122   0.004  1.00141.17     0.195 A 
HETATM    3  C3  MIQ B 502      -8.563  -6.892   0.284  1.00141.71     0.035 A 
HETATM    4  C4  MIQ B 502      -9.684  -7.337  -0.579  1.00142.86     0.046 A 
HETATM    5  C5  MIQ B 502     -10.784  -8.037  -0.021  1.00139.53     0.031 A 
HETATM    6  C12 MIQ B 502     -10.811  -8.319   1.407  1.00139.38     0.030 A 
HETATM    7  C13 MIQ B 502      -9.736  -7.894   2.234  1.00141.18     0.019 A 
HETATM    8  C14 MIQ B 502      -8.583  -7.162   1.642  1.00138.77     0.033 A 
HETATM    9  C15 MIQ B 502      -7.258  -6.556   2.209  1.00142.10     0.195 A 
HETATM   10  N17 MIQ B 502      -6.629  -6.023   1.175  1.00139.42    -0.288 N 
HETATM   11  O16 MIQ B 502      -6.832  -6.575   3.539  1.00148.93    -0.171 OA
ENDROOT
BRANCH  10  12
HETATM   12  C18 MIQ B 502      -5.353  -5.348   1.331  1.00139.82     0.187 C 
HETATM   13  C19 MIQ B 502      -4.379  -6.335   1.987  1.00140.06     0.247 C 
HETATM   14  O25 MIQ B 502      -4.253  -7.413   1.525  1.00143.95    -0.271 OA
HETATM   15  N20 MIQ B 502      -3.603  -5.978   3.157  1.00140.02    -0.296 N 
HETATM   16  H13 MIQ B 502      -2.975  -6.633   3.579  1.00142.77     0.171 HD
HETATM   17  C21 MIQ B 502      -3.781  -4.659   3.708  1.00142.22     0.224 C 
HETATM   18  C22 MIQ B 502      -5.170  -4.059   3.603  1.00139.52     0.106 C 
HETATM   19  O24 MIQ B 502      -2.887  -4.074   4.212  1.00146.13    -0.273 OA
HETATM   20  C23 MIQ B 502      -5.529  -4.057   2.128  1.00139.15     0.045 C 
ENDBRANCH  10  12
BRANCH   5  21
HETATM   21  N6  MIQ B 502     -11.881  -8.454  -0.875  1.00140.95    -0.377 N 
HETATM   22  C7  MIQ B 502     -11.970  -7.895  -2.213  1.00142.12     0.149 C 
HETATM   23  C8  MIQ B 502     -13.404  -7.880  -2.728  1.00144.10     0.187 C 
HETATM   24  O9  MIQ B 502     -14.060  -9.099  -2.545  1.00148.65    -0.388 OA
HETATM   25  C10 MIQ B 502     -13.486 -10.100  -1.757  1.00147.44     0.187 C 
HETATM   26  C11 MIQ B 502     -12.591  -9.689  -0.593  1.00144.08     0.149 C 
ENDBRANCH   5  21
TORSDOF 2
ENDMDL
MODEL 3
REMARK VINA RESULT:      -7.1     13.751     16.152
REMARK  2 active torsions:
REMARK  status: ('A' for Active; 'I' for Inactive)
REMARK    1  A    between atoms: C5_5  and  N6_21 
REMARK    2  A    between atoms: C18_14  and  N17_19 
ROOT
HETATM    1  O1  MIQ B 502     -20.648 -10.328 -12.192  1.00142.91    -0.171 OA
HETATM    2  C2  MIQ B 502     -19.525  -9.819 -11.537  1.00141.17     0.195 A 
HETATM    3  C3  MIQ B 502     -19.476  -9.288 -10.069  1.00141.71     0.035 A 
HETATM    4  C4  MIQ B 502     -20.491  -9.163  -8.996  1.00142.86     0.046 A 
HETATM    5  C5  MIQ B 502     -20.135  -8.629  -7.732  1.00139.53     0.031 A 
HETATM    6  C12 MIQ B 502     -18.765  -8.203  -7.487  1.00139.38     0.030 A 
HETATM    7  C13 MIQ B 502     -17.791  -8.324  -8.515  1.00141.18     0.019 A 
HETATM    8  C14 MIQ B 502     -18.170  -8.887  -9.839  1.00138.77     0.033 A 
HETATM    9  C15 MIQ B 502     -17.404  -9.172 -11.172  1.00142.10     0.195 A 
HETATM   10  N17 MIQ B 502     -18.295  -9.687 -12.003  1.00139.42    -0.288 N 
HETATM   11  O16 MIQ B 502     -16.054  -8.927 -11.429  1.00148.93    -0.171 OA
ENDROOT
BRANCH  10  12
HETATM   12  C18 MIQ B 502     -17.939 -10.063 -13.358  1.00139.82     0.187 C 
HETATM   13  C19 MIQ B 502     -16.742 -11.018 -13.279  1.00140.06     0.247 C 
HETATM   14  O25 MIQ B 502     -16.798 -11.954 -12.563  1.00143.95    -0.271 OA
HETATM   15  N20 MIQ B 502     -15.543 -10.807 -14.065  1.00140.02    -0.296 N 
HETATM   16  H13 MIQ B 502     -14.766 -11.434 -14.000  1.00142.77     0.171 HD
HETATM   17  C21 MIQ B 502     -15.494  -9.652 -14.924  1.00142.22     0.224 C 
HETATM   18  C22 MIQ B 502     -16.218  -8.411 -14.439  1.00139.52     0.106 C 
HETATM   19  O24 MIQ B 502     -14.923  -9.675 -15.958  1.00146.13    -0.273 OA
HETATM   20  C23 MIQ B 502     -17.660  -8.818 -14.200  1.00139.15     0.045 C 
ENDBRANCH  10  12
BRANCH   5  21
HETATM   21  N6  MIQ B 502     -21.143  -8.498  -6.695  1.00140.95    -0.377 N 
HETATM   22  C7  MIQ B 502     -21.917  -7.271  -6.631  1.00142.12     0.149 C 
HETATM   23  C8  MIQ B 502     -22.422  -6.990  -5.221  1.00144.10     0.187 C 
HETATM   24  O9  MIQ B 502     -23.018  -8.104  -4.626  1.00148.65    -0.388 OA
HETATM   25  C10 MIQ B 502     -22.915  -9.364  -5.220  1.00147.44     0.187 C 
HETATM   26  C11 MIQ B 502     -21.671  -9.683  -6.043  1.00144.08     0.149 C 
ENDBRANCH   5  21
TORSDOF 2
ENDMDL
MODEL 4
REMARK VINA RESULT:      -6.9     13.923     15.827
REMARK  2 active torsions:
REMARK  status: ('A' for Active; 'I' for Inactive)
REMARK    1  A    between atoms: C5_5  and  N6_21 
REMARK    2  A    between atoms: C18_14  and  N17_19 
ROOT
HETATM    1  O1  MIQ B 502     -23.091  -9.980 -10.023  1.00142.91    -0.171 OA
HETATM    2  C2  MIQ B 502     -22.268  -9.538  -8.985  1.00141.17     0.195 A 
HETATM    3  C3  MIQ B 502     -20.722  -9.324  -9.061  1.00141.71     0.035 A 
HETATM    4  C4  MIQ B 502     -19.722  -9.497 -10.141  1.00142.86     0.046 A 
HETATM    5  C5  MIQ B 502     -18.353  -9.214  -9.903  1.00139.53     0.031 A 
HETATM    6  C12 MIQ B 502     -17.930  -8.751  -8.589  1.00139.38     0.030 A 
HETATM    7  C13 MIQ B 502     -18.889  -8.584  -7.554  1.00141.18     0.019 A 
HETATM    8  C14 MIQ B 502     -20.325  -8.881  -7.811  1.00138.77     0.033 A 
HETATM    9  C15 MIQ B 502     -21.631  -8.817  -6.953  1.00142.10     0.195 A 
HETATM   10  N17 MIQ B 502     -22.610  -9.209  -7.751  1.00139.42    -0.288 N 
HETATM   11  O16 MIQ B 502     -21.735  -8.429  -5.617  1.00148.93    -0.171 OA
ENDROOT
BRANCH  10  12
HETATM   12  C18 MIQ B 502     -23.981  -9.291  -7.283  1.00139.82     0.187 C 
HETATM   13  C19 MIQ B 502     -24.343  -7.939  -6.655  1.00140.06     0.247 C 
HETATM   14  O25 MIQ B 502     -24.144  -6.949  -7.264  1.00143.95    -0.271 OA
HETATM   15  N20 MIQ B 502     -24.927  -7.843  -5.333  1.00140.02    -0.296 N 
HETATM   16  H13 MIQ B 502     -25.153  -6.955  -4.931  1.00142.77     0.171 HD
HETATM   17  C21 MIQ B 502     -25.151  -9.065  -4.604  1.00142.22     0.224 C 
HETATM   18  C22 MIQ B 502     -24.151 -10.184  -4.827  1.00139.52     0.106 C 
HETATM   19  O24 MIQ B 502     -26.071  -9.189  -3.872  1.00146.13    -0.273 OA
HETATM   20  C23 MIQ B 502     -24.145 -10.465  -6.319  1.00139.15     0.045 C 
ENDBRANCH  10  12
BRANCH   5  21
HETATM   21  N6  MIQ B 502     -17.382  -9.401 -10.965  1.00140.95    -0.377 N 
HETATM   22  C7  MIQ B 502     -17.712 -10.303 -12.056  1.00142.12     0.149 C 
HETATM   23  C8  MIQ B 502     -16.465 -10.895 -12.701  1.00144.10     0.187 C 
HETATM   24  O9  MIQ B 502     -15.496  -9.933 -12.993  1.00148.65    -0.388 OA
HETATM   25  C10 MIQ B 502     -15.622  -8.630 -12.506  1.00147.44     0.187 C 
HETATM   26  C11 MIQ B 502     -16.338  -8.414 -11.176  1.00144.08     0.149 C 
ENDBRANCH   5  21
TORSDOF 2
ENDMDL
MODEL 5
REMARK VINA RESULT:      -6.8     13.760     16.329
REMARK  2 active torsions:
REMARK  status: ('A' for Active; 'I' for Inactive)
REMARK    1  A    between atoms: C5_5  and  N6_21 
REMARK    2  A    between atoms: C18_14  and  N17_19 
ROOT
HETATM    1  O1  MIQ B 502     -19.817 -10.925 -12.233  1.00142.91    -0.171 OA
HETATM    2  C2  MIQ B 502     -18.836 -10.136 -11.627  1.00141.17     0.195 A 
HETATM    3  C3  MIQ B 502     -18.955  -9.414 -10.247  1.00141.71     0.035 A 
HETATM    4  C4  MIQ B 502     -20.028  -9.335  -9.228  1.00142.86     0.046 A 
HETATM    5  C5  MIQ B 502     -19.836  -8.581  -8.043  1.00139.53     0.031 A 
HETATM    6  C12 MIQ B 502     -18.578  -7.882  -7.826  1.00139.38     0.030 A 
HETATM    7  C13 MIQ B 502     -17.548  -7.959  -8.803  1.00141.18     0.019 A 
HETATM    8  C14 MIQ B 502     -17.755  -8.754 -10.045  1.00138.77     0.033 A 
HETATM    9  C15 MIQ B 502     -16.885  -9.068 -11.306  1.00142.10     0.195 A 
HETATM   10  N17 MIQ B 502     -17.628  -9.844 -12.078  1.00139.42    -0.288 N 
HETATM   11  O16 MIQ B 502     -15.589  -8.617 -11.561  1.00148.93    -0.171 OA
ENDROOT
BRANCH  10  12
HETATM   12  C18 MIQ B 502     -17.144 -10.326 -13.358  1.00139.82     0.187 C 
HETATM   13  C19 MIQ B 502     -18.155  -9.901 -14.430  1.00140.06     0.247 C 
HETATM   14  O25 MIQ B 502     -18.497  -8.773 -14.485  1.00143.95    -0.271 OA
HETATM   15  N20 MIQ B 502     -18.699 -10.846 -15.384  1.00140.02    -0.296 N 
HETATM   16  H13 MIQ B 502     -19.363 -10.558 -16.075  1.00142.77     0.171 HD
HETATM   17  C21 MIQ B 502     -18.274 -12.219 -15.290  1.00142.22     0.224 C 
HETATM   18  C22 MIQ B 502     -17.979 -12.748 -13.900  1.00139.52     0.106 C 
HETATM   19  O24 MIQ B 502     -18.156 -12.896 -16.252  1.00146.13    -0.273 OA
HETATM   20  C23 MIQ B 502     -16.920 -11.836 -13.307  1.00139.15     0.045 C 
ENDBRANCH  10  12
BRANCH   5  21
HETATM   21  N6  MIQ B 502     -20.901  -8.500  -7.059  1.00140.95    -0.377 N 
HETATM   22  C7  MIQ B 502     -21.099  -9.620  -6.155  1.00142.12     0.149 C 
HETATM   23  C8  MIQ B 502     -22.539  -9.709  -5.666  1.00144.10     0.187 C 
HETATM   24  O9  MIQ B 502     -23.037  -8.485  -5.218  1.00148.65    -0.388 OA
HETATM   25  C10 MIQ B 502     -22.323  -7.305  -5.442  1.00147.44     0.187 C 
HETATM   26  C11 MIQ B 502     -21.448  -7.207  -6.687  1.00144.08     0.149 C 
ENDBRANCH   5  21
TORSDOF 2
ENDMDL
MODEL 6
REMARK VINA RESULT:      -6.8     13.995     15.850
REMARK  2 active torsions:
REMARK  status: ('A' for Active; 'I' for Inactive)
REMARK    1  A    between atoms: C5_5  and  N6_21 
REMARK    2  A    between atoms: C18_14  and  N17_19 
ROOT
HETATM    1  O1  MIQ B 502     -23.090  -9.947 -10.117  1.00142.91    -0.171 OA
HETATM    2  C2  MIQ B 502     -22.235  -9.533  -9.093  1.00141.17     0.195 A 
HETATM    3  C3  MIQ B 502     -20.692  -9.321  -9.210  1.00141.71     0.035 A 
HETATM    4  C4  MIQ B 502     -19.725  -9.467 -10.323  1.00142.86     0.046 A 
HETATM    5  C5  MIQ B 502     -18.349  -9.193 -10.118  1.00139.53     0.031 A 
HETATM    6  C12 MIQ B 502     -17.885  -8.765  -8.806  1.00139.38     0.030 A 
HETATM    7  C13 MIQ B 502     -18.812  -8.624  -7.738  1.00141.18     0.019 A 
HETATM    8  C14 MIQ B 502     -20.256  -8.911  -7.960  1.00138.77     0.033 A 
HETATM    9  C15 MIQ B 502     -21.536  -8.868  -7.063  1.00142.10     0.195 A 
HETATM   10  N17 MIQ B 502     -22.540  -9.237  -7.841  1.00139.42    -0.288 N 
HETATM   11  O16 MIQ B 502     -21.599  -8.514  -5.714  1.00148.93    -0.171 OA
ENDROOT
BRANCH  10  12
HETATM   12  C18 MIQ B 502     -23.896  -9.328  -7.335  1.00139.82     0.187 C 
HETATM   13  C19 MIQ B 502     -24.245  -7.984  -6.685  1.00140.06     0.247 C 
HETATM   14  O25 MIQ B 502     -24.068  -6.988  -7.292  1.00143.95    -0.271 OA
HETATM   15  N20 MIQ B 502     -24.792  -7.901  -5.346  1.00140.02    -0.296 N 
HETATM   16  H13 MIQ B 502     -25.010  -7.016  -4.931  1.00142.77     0.171 HD
HETATM   17  C21 MIQ B 502     -24.989  -9.130  -4.621  1.00142.22     0.224 C 
HETATM   18  C22 MIQ B 502     -23.992 -10.242  -4.882  1.00139.52     0.106 C 
HETATM   19  O24 MIQ B 502     -25.887  -9.264  -3.865  1.00146.13    -0.273 OA
HETATM   20  C23 MIQ B 502     -24.027 -10.511  -6.376  1.00139.15     0.045 C 
ENDBRANCH  10  12
BRANCH   5  21
HETATM   21  N6  MIQ B 502     -17.410  -9.354 -11.214  1.00140.95    -0.377 N 
HETATM   22  C7  MIQ B 502     -16.205  -8.544 -11.220  1.00142.12     0.149 C 
HETATM   23  C8  MIQ B 502     -15.676  -8.322 -12.632  1.00144.10     0.187 C 
HETATM   24  O9  MIQ B 502     -15.607  -9.501 -13.377  1.00148.65    -0.388 OA
HETATM   25  C10 MIQ B 502     -16.196 -10.675 -12.901  1.00147.44     0.187 C 
HETATM   26  C11 MIQ B 502     -17.434 -10.564 -12.017  1.00144.08     0.149 C 
ENDBRANCH   5  21
TORSDOF 2
ENDMDL
MODEL 7
REMARK VINA RESULT:      -6.5     14.080     15.877
REMARK  2 active torsions:
REMARK  status: ('A' for Active; 'I' for Inactive)
REMARK    1  A    between atoms: C5_5  and  N6_21 
REMARK    2  A    between atoms: C18_14  and  N17_19 
ROOT
HETATM    1  O1  MIQ B 502     -22.336 -10.409 -10.095  1.00142.91    -0.171 OA
HETATM    2  C2  MIQ B 502     -21.313  -9.715  -9.445  1.00141.17     0.195 A 
HETATM    3  C3  MIQ B 502     -19.846  -9.545  -9.953  1.00141.71     0.035 A 
HETATM    4  C4  MIQ B 502     -19.127 -10.008 -11.164  1.00142.86     0.046 A 
HETATM    5  C5  MIQ B 502     -17.759  -9.685 -11.352  1.00139.53     0.031 A 
HETATM    6  C12 MIQ B 502     -17.059  -8.894 -10.351  1.00139.38     0.030 A 
HETATM    7  C13 MIQ B 502     -17.748  -8.449  -9.191  1.00141.18     0.019 A 
HETATM    8  C14 MIQ B 502     -19.184  -8.789  -8.999  1.00138.77     0.033 A 
HETATM    9  C15 MIQ B 502     -20.247  -8.488  -7.892  1.00142.10     0.195 A 
HETATM   10  N17 MIQ B 502     -21.366  -9.067  -8.293  1.00139.42    -0.288 N 
HETATM   11  O16 MIQ B 502     -20.048  -7.757  -6.720  1.00148.93    -0.171 OA
ENDROOT
BRANCH  10  12
HETATM   12  C18 MIQ B 502     -22.577  -9.009  -7.496  1.00139.82     0.187 C 
HETATM   13  C19 MIQ B 502     -22.910  -7.530  -7.259  1.00140.06     0.247 C 
HETATM   14  O25 MIQ B 502     -22.953  -6.795  -8.180  1.00143.95    -0.271 OA
HETATM   15  N20 MIQ B 502     -23.179  -7.011  -5.933  1.00140.02    -0.296 N 
HETATM   16  H13 MIQ B 502     -23.388  -6.043  -5.791  1.00142.77     0.171 HD
HETATM   17  C21 MIQ B 502     -23.110  -7.927  -4.824  1.00142.22     0.224 C 
HETATM   18  C22 MIQ B 502     -22.088  -9.043  -4.924  1.00139.52     0.106 C 
HETATM   19  O24 MIQ B 502     -23.820  -7.815  -3.885  1.00146.13    -0.273 OA
HETATM   20  C23 MIQ B 502     -22.401  -9.800  -6.202  1.00139.15     0.045 C 
ENDBRANCH  10  12
BRANCH   5  21
HETATM   21  N6  MIQ B 502     -17.064 -10.158 -12.535  1.00140.95    -0.377 N 
HETATM   22  C7  MIQ B 502     -15.681  -9.760 -12.734  1.00142.12     0.149 C 
HETATM   23  C8  MIQ B 502     -15.297  -9.751 -14.208  1.00144.10     0.187 C 
HETATM   24  O9  MIQ B 502     -15.685 -10.913 -14.877  1.00148.65    -0.388 OA
HETATM   25  C10 MIQ B 502     -16.535 -11.834 -14.261  1.00147.44     0.187 C 
HETATM   26  C11 MIQ B 502     -17.556 -11.323 -13.250  1.00144.08     0.149 C 
ENDBRANCH   5  21
TORSDOF 2
ENDMDL
MODEL 8
REMARK VINA RESULT:      -6.4     13.577     17.445
REMARK  2 active torsions:
REMARK  status: ('A' for Active; 'I' for Inactive)
REMARK    1  A    between atoms: C5_5  and  N6_21 
REMARK    2  A    between atoms: C18_14  and  N17_19 
ROOT
HETATM    1  O1  MIQ B 502     -17.609 -12.752 -14.395  1.00142.91    -0.171 OA
HETATM    2  C2  MIQ B 502     -16.863 -11.574 -14.462  1.00141.17     0.195 A 
HETATM    3  C3  MIQ B 502     -16.860 -10.424 -13.405  1.00141.71     0.035 A 
HETATM    4  C4  MIQ B 502     -17.566 -10.220 -12.118  1.00142.86     0.046 A 
HETATM    5  C5  MIQ B 502     -17.351  -9.041 -11.361  1.00139.53     0.031 A 
HETATM    6  C12 MIQ B 502     -16.430  -8.025 -11.851  1.00139.38     0.030 A 
HETATM    7  C13 MIQ B 502     -15.752  -8.221 -13.084  1.00141.18     0.019 A 
HETATM    8  C14 MIQ B 502     -15.980  -9.462 -13.874  1.00138.77     0.033 A 
HETATM    9  C15 MIQ B 502     -15.433 -10.018 -15.229  1.00142.10     0.195 A 
HETATM   10  N17 MIQ B 502     -16.019 -11.192 -15.404  1.00139.42    -0.288 N 
HETATM   11  O16 MIQ B 502     -14.516  -9.397 -16.079  1.00148.93    -0.171 OA
ENDROOT
BRANCH  10  12
HETATM   12  C18 MIQ B 502     -15.758 -11.999 -16.581  1.00139.82     0.187 C 
HETATM   13  C19 MIQ B 502     -17.110 -12.359 -17.210  1.00140.06     0.247 C 
HETATM   14  O25 MIQ B 502     -17.890 -11.501 -17.429  1.00143.95    -0.271 OA
HETATM   15  N20 MIQ B 502     -17.456 -13.724 -17.550  1.00140.02    -0.296 N 
HETATM   16  H13 MIQ B 502     -18.344 -13.946 -17.955  1.00142.77     0.171 HD
HETATM   17  C21 MIQ B 502     -16.492 -14.755 -17.265  1.00142.22     0.224 C 
HETATM   18  C22 MIQ B 502     -15.627 -14.557 -16.034  1.00139.52     0.106 C 
HETATM   19  O24 MIQ B 502     -16.378 -15.704 -17.959  1.00146.13    -0.273 OA
HETATM   20  C23 MIQ B 502     -14.923 -13.224 -16.212  1.00139.15     0.045 C 
ENDBRANCH  10  12
BRANCH   5  21
HETATM   21  N6  MIQ B 502     -18.061  -8.848 -10.109  1.00140.95    -0.377 N 
HETATM   22  C7  MIQ B 502     -18.993  -9.874  -9.675  1.00142.12     0.149 C 
HETATM   23  C8  MIQ B 502     -20.086  -9.306  -8.779  1.00144.10     0.187 C 
HETATM   24  O9  MIQ B 502     -19.587  -8.485  -7.765  1.00148.65    -0.388 OA
HETATM   25  C10 MIQ B 502     -18.249  -8.083  -7.776  1.00147.44     0.187 C 
HETATM   26  C11 MIQ B 502     -17.547  -7.917  -9.120  1.00144.08     0.149 C 
ENDBRANCH   5  21
TORSDOF 2
ENDMDL
MODEL 9
REMARK VINA RESULT:      -6.4     13.423     17.537
REMARK  2 active torsions:
REMARK  status: ('A' for Active; 'I' for Inactive)
REMARK    1  A    between atoms: C5_5  and  N6_21 
REMARK    2  A    between atoms: C18_14  and  N17_19 
ROOT
HETATM    1  O1  MIQ B 502     -18.624 -12.883 -14.353  1.00142.91    -0.171 OA
HETATM    2  C2  MIQ B 502     -17.516 -12.038 -14.441  1.00141.17     0.195 A 
HETATM    3  C3  MIQ B 502     -17.109 -10.940 -13.408  1.00141.71     0.035 A 
HETATM    4  C4  MIQ B 502     -17.694 -10.479 -12.127  1.00142.86     0.046 A 
HETATM    5  C5  MIQ B 502     -17.080  -9.433 -11.393  1.00139.53     0.031 A 
HETATM    6  C12 MIQ B 502     -15.867  -8.809 -11.902  1.00139.38     0.030 A 
HETATM    7  C13 MIQ B 502     -15.304  -9.252 -13.129  1.00141.18     0.019 A 
HETATM    8  C14 MIQ B 502     -15.952 -10.352 -13.894  1.00138.77     0.033 A 
HETATM    9  C15 MIQ B 502     -15.639 -11.090 -15.236  1.00142.10     0.195 A 
HETATM   10  N17 MIQ B 502     -16.596 -11.991 -15.389  1.00139.42    -0.288 N 
HETATM   11  O16 MIQ B 502     -14.568 -10.842 -16.096  1.00148.93    -0.171 OA
ENDROOT
BRANCH  10  12
HETATM   12  C18 MIQ B 502     -16.637 -12.862 -16.549  1.00139.82     0.187 C 
HETATM   13  C19 MIQ B 502     -15.288 -13.585 -16.640  1.00140.06     0.247 C 
HETATM   14  O25 MIQ B 502     -14.867 -14.140 -15.688  1.00143.95    -0.271 OA
HETATM   15  N20 MIQ B 502     -14.517 -13.612 -17.866  1.00140.02    -0.296 N 
HETATM   16  H13 MIQ B 502     -13.634 -14.082 -17.910  1.00142.77     0.171 HD
HETATM   17  C21 MIQ B 502     -15.047 -12.919 -19.011  1.00142.22     0.224 C 
HETATM   18  C22 MIQ B 502     -15.845 -11.659 -18.736  1.00139.52     0.106 C 
HETATM   19  O24 MIQ B 502     -14.871 -13.317 -20.110  1.00146.13    -0.273 OA
HETATM   20  C23 MIQ B 502     -16.975 -12.059 -17.805  1.00139.15     0.045 C 
ENDBRANCH  10  12
BRANCH   5  21
HETATM   21  N6  MIQ B 502     -17.673  -8.981 -10.147  1.00140.95    -0.377 N 
HETATM   22  C7  MIQ B 502     -17.470  -7.601  -9.741  1.00142.12     0.149 C 
HETATM   23  C8  MIQ B 502     -17.551  -7.435  -8.229  1.00144.10     0.187 C 
HETATM   24  O9  MIQ B 502     -18.667  -8.063  -7.673  1.00148.65    -0.388 OA
HETATM   25  C10 MIQ B 502     -19.450  -8.927  -8.443  1.00147.44     0.187 C 
HETATM   26  C11 MIQ B 502     -18.779  -9.718  -9.561  1.00144.08     0.149 C 
ENDBRANCH   5  21
TORSDOF 2
ENDMDL
