MODEL 1
REMARK VINA RESULT:      -6.3      0.000      0.000
REMARK  2 active torsions:
REMARK  status: ('A' for Active; 'I' for Inactive)
REMARK    1  A    between atoms: C5_5  and  N6_21 
REMARK    2  A    between atoms: C18_14  and  N17_19 
ROOT
HETATM    1  O1  MIQ B 502      11.813  21.867   8.640  1.00142.91    -0.171 OA
HETATM    2  C2  MIQ B 502      10.581  21.214   8.548  1.00141.17     0.195 A 
HETATM    3  C3  MIQ B 502       9.975  20.567   7.262  1.00141.71     0.035 A 
HETATM    4  C4  MIQ B 502      10.451  20.438   5.864  1.00142.86     0.046 A 
HETATM    5  C5  MIQ B 502       9.657  19.776   4.895  1.00139.53     0.031 A 
HETATM    6  C12 MIQ B 502       8.366  19.220   5.275  1.00139.38     0.030 A 
HETATM    7  C13 MIQ B 502       7.910  19.342   6.615  1.00141.18     0.019 A 
HETATM    8  C14 MIQ B 502       8.750  20.036   7.630  1.00138.77     0.033 A 
HETATM    9  C15 MIQ B 502       8.594  20.355   9.153  1.00142.10     0.195 A 
HETATM   10  N17 MIQ B 502       9.692  21.006   9.503  1.00139.42    -0.288 N 
HETATM   11  O16 MIQ B 502       7.513  20.021   9.971  1.00148.93    -0.171 OA
ENDROOT
BRANCH  10  12
HETATM   12  C18 MIQ B 502       9.890  21.480  10.860  1.00139.82     0.187 C 
HETATM   13  C19 MIQ B 502      10.351  22.941  10.782  1.00140.06     0.247 C 
HETATM   14  O25 MIQ B 502       9.730  23.707  10.134  1.00143.95    -0.271 OA
HETATM   15  N20 MIQ B 502      11.526  23.410  11.488  1.00140.02    -0.296 N 
HETATM   16  H13 MIQ B 502      11.819  24.365  11.423  1.00142.77     0.171 HD
HETATM   17  C21 MIQ B 502      12.273  22.454  12.263  1.00142.22     0.224 C 
HETATM   18  C22 MIQ B 502      12.317  21.033  11.735  1.00139.52     0.106 C 
HETATM   19  O24 MIQ B 502      12.819  22.763  13.265  1.00146.13    -0.273 OA
HETATM   20  C23 MIQ B 502      10.876  20.578  11.600  1.00139.15     0.045 C 
ENDBRANCH  10  12
BRANCH   5  21
HETATM   21  N6  MIQ B 502      10.129  19.671   3.526  1.00140.95    -0.377 N 
HETATM   22  C7  MIQ B 502       9.719  18.522   2.737  1.00142.12     0.149 C 
HETATM   23  C8  MIQ B 502      10.728  18.194   1.644  1.00144.10     0.187 C 
HETATM   24  O9  MIQ B 502      11.117  19.316   0.908  1.00148.65    -0.388 OA
HETATM   25  C10 MIQ B 502      10.763  20.598   1.334  1.00147.44     0.187 C 
HETATM   26  C11 MIQ B 502      10.605  20.853   2.829  1.00144.08     0.149 C 
ENDBRANCH   5  21
TORSDOF 2
ENDMDL
MODEL 2
REMARK VINA RESULT:      -6.2      1.596      2.091
REMARK  2 active torsions:
REMARK  status: ('A' for Active; 'I' for Inactive)
REMARK    1  A    between atoms: C5_5  and  N6_21 
REMARK    2  A    between atoms: C18_14  and  N17_19 
ROOT
HETATM    1  O1  MIQ B 502      12.638  22.441   8.511  1.00142.91    -0.171 OA
HETATM    2  C2  MIQ B 502      11.402  21.862   8.804  1.00141.17     0.195 A 
HETATM    3  C3  MIQ B 502      10.534  20.999   7.834  1.00141.71     0.035 A 
HETATM    4  C4  MIQ B 502      10.712  20.552   6.432  1.00142.86     0.046 A 
HETATM    5  C5  MIQ B 502       9.724  19.753   5.803  1.00139.53     0.031 A 
HETATM    6  C12 MIQ B 502       8.528  19.371   6.540  1.00139.38     0.030 A 
HETATM    7  C13 MIQ B 502       8.357  19.798   7.884  1.00141.18     0.019 A 
HETATM    8  C14 MIQ B 502       9.399  20.634   8.540  1.00138.77     0.033 A 
HETATM    9  C15 MIQ B 502       9.564  21.274   9.957  1.00142.10     0.195 A 
HETATM   10  N17 MIQ B 502      10.722  21.913   9.937  1.00139.42    -0.288 N 
HETATM   11  O16 MIQ B 502       8.666  21.187  11.023  1.00148.93    -0.171 OA
ENDROOT
BRANCH  10  12
HETATM   12  C18 MIQ B 502      11.202  22.647  11.093  1.00139.82     0.187 C 
HETATM   13  C19 MIQ B 502      11.168  21.698  12.297  1.00140.06     0.247 C 
HETATM   14  O25 MIQ B 502      11.676  20.636  12.207  1.00143.95    -0.271 OA
HETATM   15  N20 MIQ B 502      10.536  22.070  13.546  1.00140.02    -0.296 N 
HETATM   16  H13 MIQ B 502      10.515  21.438  14.322  1.00142.77     0.171 HD
HETATM   17  C21 MIQ B 502       9.914  23.367  13.627  1.00142.22     0.224 C 
HETATM   18  C22 MIQ B 502       9.280  23.899  12.356  1.00139.52     0.106 C 
HETATM   19  O24 MIQ B 502       9.906  23.986  14.633  1.00146.13    -0.273 OA
HETATM   20  C23 MIQ B 502      10.371  23.912  11.302  1.00139.15     0.045 C 
ENDBRANCH  10  12
BRANCH   5  21
HETATM   21  N6  MIQ B 502       9.905  19.335   4.425  1.00140.95    -0.377 N 
HETATM   22  C7  MIQ B 502       9.183  18.165   3.954  1.00142.12     0.149 C 
HETATM   23  C8  MIQ B 502       9.904  17.479   2.800  1.00144.10     0.187 C 
HETATM   24  O9  MIQ B 502      10.310  18.370   1.806  1.00148.65    -0.388 OA
HETATM   25  C10 MIQ B 502      10.242  19.749   2.020  1.00147.44     0.187 C 
HETATM   26  C11 MIQ B 502      10.412  20.276   3.442  1.00144.08     0.149 C 
ENDBRANCH   5  21
TORSDOF 2
ENDMDL
MODEL 3
REMARK VINA RESULT:      -6.0      5.614      7.926
REMARK  2 active torsions:
REMARK  status: ('A' for Active; 'I' for Inactive)
REMARK    1  A    between atoms: C5_5  and  N6_21 
REMARK    2  A    between atoms: C18_14  and  N17_19 
ROOT
HETATM    1  O1  MIQ B 502       7.377  19.778   2.962  1.00142.91    -0.171 OA
HETATM    2  C2  MIQ B 502       7.404  21.124   2.592  1.00141.17     0.195 A 
HETATM    3  C3  MIQ B 502       6.508  21.800   1.505  1.00141.71     0.035 A 
HETATM    4  C4  MIQ B 502       5.445  21.296   0.603  1.00142.86     0.046 A 
HETATM    5  C5  MIQ B 502       4.795  22.175  -0.299  1.00139.53     0.031 A 
HETATM    6  C12 MIQ B 502       5.175  23.581  -0.339  1.00139.38     0.030 A 
HETATM    7  C13 MIQ B 502       6.193  24.064   0.526  1.00141.18     0.019 A 
HETATM    8  C14 MIQ B 502       6.870  23.137   1.474  1.00138.77     0.033 A 
HETATM    9  C15 MIQ B 502       7.996  23.292   2.548  1.00142.10     0.195 A 
HETATM   10  N17 MIQ B 502       8.167  22.090   3.073  1.00139.42    -0.288 N 
HETATM   11  O16 MIQ B 502       8.680  24.463   2.878  1.00148.93    -0.171 OA
ENDROOT
BRANCH  10  12
HETATM   12  C18 MIQ B 502       9.157  21.850   4.106  1.00139.82     0.187 C 
HETATM   13  C19 MIQ B 502      10.081  20.728   3.617  1.00140.06     0.247 C 
HETATM   14  O25 MIQ B 502      10.572  20.812   2.547  1.00143.95    -0.271 OA
HETATM   15  N20 MIQ B 502      10.374  19.568   4.434  1.00140.02    -0.296 N 
HETATM   16  H13 MIQ B 502      10.974  18.840   4.100  1.00142.77     0.171 HD
HETATM   17  C21 MIQ B 502       9.754  19.484   5.731  1.00142.22     0.224 C 
HETATM   18  C22 MIQ B 502       8.365  20.077   5.863  1.00139.52     0.106 C 
HETATM   19  O24 MIQ B 502      10.306  18.982   6.648  1.00146.13    -0.273 OA
HETATM   20  C23 MIQ B 502       8.473  21.529   5.434  1.00139.15     0.045 C 
ENDBRANCH  10  12
BRANCH   5  21
HETATM   21  N6  MIQ B 502       3.767  21.666  -1.187  1.00140.95    -0.377 N 
HETATM   22  C7  MIQ B 502       3.205  22.559  -2.186  1.00142.12     0.149 C 
HETATM   23  C8  MIQ B 502       1.787  22.160  -2.573  1.00144.10     0.187 C 
HETATM   24  O9  MIQ B 502       1.664  20.798  -2.855  1.00148.65    -0.388 OA
HETATM   25  C10 MIQ B 502       2.709  19.918  -2.563  1.00147.44     0.187 C 
HETATM   26  C11 MIQ B 502       3.621  20.234  -1.382  1.00144.08     0.149 C 
ENDBRANCH   5  21
TORSDOF 2
ENDMDL
MODEL 4
REMARK VINA RESULT:      -6.0     16.092     18.896
REMARK  2 active torsions:
REMARK  status: ('A' for Active; 'I' for Inactive)
REMARK    1  A    between atoms: C5_5  and  N6_21 
REMARK    2  A    between atoms: C18_14  and  N17_19 
ROOT
HETATM    1  O1  MIQ B 502      -4.875  17.745  18.387  1.00142.91    -0.171 OA
HETATM    2  C2  MIQ B 502      -5.226  19.091  18.261  1.00141.17     0.195 A 
HETATM    3  C3  MIQ B 502      -4.279  20.255  17.829  1.00141.71     0.035 A 
HETATM    4  C4  MIQ B 502      -2.848  20.316  17.448  1.00142.86     0.046 A 
HETATM    5  C5  MIQ B 502      -2.252  21.553  17.094  1.00139.53     0.031 A 
HETATM    6  C12 MIQ B 502      -3.052  22.769  17.106  1.00139.38     0.030 A 
HETATM    7  C13 MIQ B 502      -4.424  22.711  17.470  1.00141.18     0.019 A 
HETATM    8  C14 MIQ B 502      -5.044  21.409  17.838  1.00138.77     0.033 A 
HETATM    9  C15 MIQ B 502      -6.476  20.959  18.277  1.00142.10     0.195 A 
HETATM   10  N17 MIQ B 502      -6.405  19.652  18.468  1.00139.42    -0.288 N 
HETATM   11  O16 MIQ B 502      -7.597  21.776  18.436  1.00148.93    -0.171 OA
ENDROOT
BRANCH  10  12
HETATM   12  C18 MIQ B 502      -7.559  18.887  18.903  1.00139.82     0.187 C 
HETATM   13  C19 MIQ B 502      -7.159  18.116  20.168  1.00140.06     0.247 C 
HETATM   14  O25 MIQ B 502      -6.655  18.698  21.061  1.00143.95    -0.271 OA
HETATM   15  N20 MIQ B 502      -7.390  16.692  20.299  1.00140.02    -0.296 N 
HETATM   16  H13 MIQ B 502      -7.119  16.199  21.127  1.00142.77     0.171 HD
HETATM   17  C21 MIQ B 502      -7.998  16.002  19.190  1.00142.22     0.224 C 
HETATM   18  C22 MIQ B 502      -7.661  16.513  17.803  1.00139.52     0.106 C 
HETATM   19  O24 MIQ B 502      -8.727  15.088  19.357  1.00146.13    -0.273 OA
HETATM   20  C23 MIQ B 502      -8.051  17.980  17.776  1.00139.15     0.045 C 
ENDBRANCH  10  12
BRANCH   5  21
HETATM   21  N6  MIQ B 502      -0.846  21.600  16.738  1.00140.95    -0.377 N 
HETATM   22  C7  MIQ B 502      -0.004  20.467  17.081  1.00142.12     0.149 C 
HETATM   23  C8  MIQ B 502       1.454  20.874  17.255  1.00144.10     0.187 C 
HETATM   24  O9  MIQ B 502       1.924  21.672  16.210  1.00148.65    -0.388 OA
HETATM   25  C10 MIQ B 502       1.037  22.196  15.266  1.00147.44     0.187 C 
HETATM   26  C11 MIQ B 502      -0.390  22.510  15.701  1.00144.08     0.149 C 
ENDBRANCH   5  21
TORSDOF 2
ENDMDL
MODEL 5
REMARK VINA RESULT:      -5.9     11.499     15.182
REMARK  2 active torsions:
REMARK  status: ('A' for Active; 'I' for Inactive)
REMARK    1  A    between atoms: C5_5  and  N6_21 
REMARK    2  A    between atoms: C18_14  and  N17_19 
ROOT
HETATM    1  O1  MIQ B 502       2.886  22.074  -3.096  1.00142.91    -0.171 OA
HETATM    2  C2  MIQ B 502       2.648  20.801  -3.620  1.00141.17     0.195 A 
HETATM    3  C3  MIQ B 502       1.344  20.328  -4.338  1.00141.71     0.035 A 
HETATM    4  C4  MIQ B 502       0.065  20.997  -4.672  1.00142.86     0.046 A 
HETATM    5  C5  MIQ B 502      -0.960  20.288  -5.349  1.00139.53     0.031 A 
HETATM    6  C12 MIQ B 502      -0.752  18.895  -5.718  1.00139.38     0.030 A 
HETATM    7  C13 MIQ B 502       0.476  18.254  -5.400  1.00141.18     0.019 A 
HETATM    8  C14 MIQ B 502       1.548  19.004  -4.691  1.00138.77     0.033 A 
HETATM    9  C15 MIQ B 502       2.987  18.653  -4.189  1.00142.10     0.195 A 
HETATM   10  N17 MIQ B 502       3.455  19.754  -3.625  1.00139.42    -0.288 N 
HETATM   11  O16 MIQ B 502       3.639  17.425  -4.312  1.00148.93    -0.171 OA
ENDROOT
BRANCH  10  12
HETATM   12  C18 MIQ B 502       4.777  19.795  -3.026  1.00139.82     0.187 C 
HETATM   13  C19 MIQ B 502       4.626  20.330  -1.597  1.00140.06     0.247 C 
HETATM   14  O25 MIQ B 502       3.832  19.836  -0.877  1.00143.95    -0.271 OA
HETATM   15  N20 MIQ B 502       5.437  21.423  -1.101  1.00140.02    -0.296 N 
HETATM   16  H13 MIQ B 502       5.324  21.768  -0.168  1.00142.77     0.171 HD
HETATM   17  C21 MIQ B 502       6.392  22.017  -2.001  1.00142.22     0.224 C 
HETATM   18  C22 MIQ B 502       6.008  22.064  -3.467  1.00139.52     0.106 C 
HETATM   19  O24 MIQ B 502       7.425  22.441  -1.614  1.00146.13    -0.273 OA
HETATM   20  C23 MIQ B 502       5.723  20.632  -3.884  1.00139.15     0.045 C 
ENDBRANCH  10  12
BRANCH   5  21
HETATM   21  N6  MIQ B 502      -2.214  20.951  -5.656  1.00140.95    -0.377 N 
HETATM   22  C7  MIQ B 502      -2.591  22.118  -4.877  1.00142.12     0.149 C 
HETATM   23  C8  MIQ B 502      -4.102  22.308  -4.832  1.00144.10     0.187 C 
HETATM   24  O9  MIQ B 502      -4.699  22.211  -6.091  1.00148.65    -0.388 OA
HETATM   25  C10 MIQ B 502      -3.966  21.755  -7.189  1.00147.44     0.187 C 
HETATM   26  C11 MIQ B 502      -2.842  20.752  -6.950  1.00144.08     0.149 C 
ENDBRANCH   5  21
TORSDOF 2
ENDMDL
MODEL 6
REMARK VINA RESULT:      -5.8     13.242     16.268
REMARK  2 active torsions:
REMARK  status: ('A' for Active; 'I' for Inactive)
REMARK    1  A    between atoms: C5_5  and  N6_21 
REMARK    2  A    between atoms: C18_14  and  N17_19 
ROOT
HETATM    1  O1  MIQ B 502       0.764  20.080  16.632  1.00142.91    -0.171 OA
HETATM    2  C2  MIQ B 502      -0.115  21.164  16.595  1.00141.17     0.195 A 
HETATM    3  C3  MIQ B 502      -1.606  21.159  17.060  1.00141.71     0.035 A 
HETATM    4  C4  MIQ B 502      -2.490  20.118  17.637  1.00142.86     0.046 A 
HETATM    5  C5  MIQ B 502      -3.834  20.423  17.968  1.00139.53     0.031 A 
HETATM    6  C12 MIQ B 502      -4.348  21.766  17.741  1.00139.38     0.030 A 
HETATM    7  C13 MIQ B 502      -3.501  22.764  17.189  1.00141.18     0.019 A 
HETATM    8  C14 MIQ B 502      -2.090  22.439  16.845  1.00138.77     0.033 A 
HETATM    9  C15 MIQ B 502      -0.892  23.244  16.244  1.00142.10     0.195 A 
HETATM   10  N17 MIQ B 502       0.120  22.395  16.174  1.00139.42    -0.288 N 
HETATM   11  O16 MIQ B 502      -0.896  24.585  15.857  1.00148.93    -0.171 OA
ENDROOT
BRANCH  10  12
HETATM   12  C18 MIQ B 502       1.410  22.795  15.643  1.00139.82     0.187 C 
HETATM   13  C19 MIQ B 502       1.859  24.051  16.401  1.00140.06     0.247 C 
HETATM   14  O25 MIQ B 502       1.851  24.045  17.580  1.00143.95    -0.271 OA
HETATM   15  N20 MIQ B 502       2.298  25.245  15.709  1.00140.02    -0.296 N 
HETATM   16  H13 MIQ B 502       2.582  26.060  16.215  1.00142.77     0.171 HD
HETATM   17  C21 MIQ B 502       2.288  25.232  14.268  1.00142.22     0.224 C 
HETATM   18  C22 MIQ B 502       1.193  24.422  13.602  1.00139.52     0.106 C 
HETATM   19  O24 MIQ B 502       3.099  25.819  13.640  1.00146.13    -0.273 OA
HETATM   20  C23 MIQ B 502       1.321  23.005  14.132  1.00139.15     0.045 C 
ENDBRANCH  10  12
BRANCH   5  21
HETATM   21  N6  MIQ B 502      -4.693  19.390  18.519  1.00140.95    -0.377 N 
HETATM   22  C7  MIQ B 502      -5.479  18.579  17.604  1.00142.12     0.149 C 
HETATM   23  C8  MIQ B 502      -6.739  18.036  18.265  1.00144.10     0.187 C 
HETATM   24  O9  MIQ B 502      -6.494  17.460  19.513  1.00148.65    -0.388 OA
HETATM   25  C10 MIQ B 502      -5.249  17.611  20.130  1.00147.44     0.187 C 
HETATM   26  C11 MIQ B 502      -4.450  18.881  19.858  1.00144.08     0.149 C 
ENDBRANCH   5  21
TORSDOF 2
ENDMDL
MODEL 7
REMARK VINA RESULT:      -5.8     26.771     29.588
REMARK  2 active torsions:
REMARK  status: ('A' for Active; 'I' for Inactive)
REMARK    1  A    between atoms: C5_5  and  N6_21 
REMARK    2  A    between atoms: C18_14  and  N17_19 
ROOT
HETATM    1  O1  MIQ B 502     -15.878  11.819  11.509  1.00142.91    -0.171 OA
HETATM    2  C2  MIQ B 502     -15.843  11.123  12.719  1.00141.17     0.195 A 
HETATM    3  C3  MIQ B 502     -16.306  11.665  14.109  1.00141.71     0.035 A 
HETATM    4  C4  MIQ B 502     -16.878  12.956  14.559  1.00142.86     0.046 A 
HETATM    5  C5  MIQ B 502     -17.209  13.157  15.923  1.00139.53     0.031 A 
HETATM    6  C12 MIQ B 502     -16.986  12.087  16.886  1.00139.38     0.030 A 
HETATM    7  C13 MIQ B 502     -16.439  10.849  16.454  1.00141.18     0.019 A 
HETATM    8  C14 MIQ B 502     -16.095  10.643  15.020  1.00138.77     0.033 A 
HETATM    9  C15 MIQ B 502     -15.498   9.459  14.192  1.00142.10     0.195 A 
HETATM   10  N17 MIQ B 502     -15.427   9.888  12.942  1.00139.42    -0.288 N 
HETATM   11  O16 MIQ B 502     -15.117   8.208  14.678  1.00148.93    -0.171 OA
ENDROOT
BRANCH  10  12
HETATM   12  C18 MIQ B 502     -14.899   9.048  11.883  1.00139.82     0.187 C 
HETATM   13  C19 MIQ B 502     -13.779   9.828  11.183  1.00140.06     0.247 C 
HETATM   14  O25 MIQ B 502     -12.920  10.310  11.832  1.00143.95    -0.271 OA
HETATM   15  N20 MIQ B 502     -13.742   9.984   9.743  1.00140.02    -0.296 N 
HETATM   16  H13 MIQ B 502     -13.009  10.501   9.299  1.00142.77     0.171 HD
HETATM   17  C21 MIQ B 502     -14.807   9.395   8.973  1.00142.22     0.224 C 
HETATM   18  C22 MIQ B 502     -16.179   9.364   9.620  1.00139.52     0.106 C 
HETATM   19  O24 MIQ B 502     -14.618   8.955   7.893  1.00146.13    -0.273 OA
HETATM   20  C23 MIQ B 502     -16.018   8.622  10.934  1.00139.15     0.045 C 
ENDBRANCH  10  12
BRANCH   5  21
HETATM   21  N6  MIQ B 502     -17.755  14.431  16.353  1.00140.95    -0.377 N 
HETATM   22  C7  MIQ B 502     -16.834  15.504  16.688  1.00142.12     0.149 C 
HETATM   23  C8  MIQ B 502     -17.439  16.482  17.686  1.00144.10     0.187 C 
HETATM   24  O9  MIQ B 502     -18.727  16.890  17.335  1.00148.65    -0.388 OA
HETATM   25  C10 MIQ B 502     -19.414  16.251  16.299  1.00147.44     0.187 C 
HETATM   26  C11 MIQ B 502     -19.130  14.775  16.037  1.00144.08     0.149 C 
ENDBRANCH   5  21
TORSDOF 2
ENDMDL
MODEL 8
REMARK VINA RESULT:      -5.8     14.078     16.863
REMARK  2 active torsions:
REMARK  status: ('A' for Active; 'I' for Inactive)
REMARK    1  A    between atoms: C5_5  and  N6_21 
REMARK    2  A    between atoms: C18_14  and  N17_19 
ROOT
HETATM    1  O1  MIQ B 502      -0.165  20.506  17.346  1.00142.91    -0.171 OA
HETATM    2  C2  MIQ B 502      -1.220  21.420  17.313  1.00141.17     0.195 A 
HETATM    3  C3  MIQ B 502      -2.739  21.080  17.440  1.00141.71     0.035 A 
HETATM    4  C4  MIQ B 502      -3.489  19.814  17.620  1.00142.86     0.046 A 
HETATM    5  C5  MIQ B 502      -4.904  19.824  17.704  1.00139.53     0.031 A 
HETATM    6  C12 MIQ B 502      -5.624  21.086  17.613  1.00139.38     0.030 A 
HETATM    7  C13 MIQ B 502      -4.906  22.301  17.442  1.00141.18     0.019 A 
HETATM    8  C14 MIQ B 502      -3.420  22.284  17.356  1.00138.77     0.033 A 
HETATM    9  C15 MIQ B 502      -2.317  23.378  17.178  1.00142.10     0.195 A 
HETATM   10  N17 MIQ B 502      -1.161  22.734  17.178  1.00139.42    -0.288 N 
HETATM   11  O16 MIQ B 502      -2.517  24.752  17.044  1.00148.93    -0.171 OA
ENDROOT
BRANCH  10  12
HETATM   12  C18 MIQ B 502       0.097  23.437  17.015  1.00139.82     0.187 C 
HETATM   13  C19 MIQ B 502       0.853  22.781  15.853  1.00140.06     0.247 C 
HETATM   14  O25 MIQ B 502       0.301  22.624  14.823  1.00143.95    -0.271 OA
HETATM   15  N20 MIQ B 502       2.231  22.354  15.982  1.00140.02    -0.296 N 
HETATM   16  H13 MIQ B 502       2.711  21.921  15.218  1.00142.77     0.171 HD
HETATM   17  C21 MIQ B 502       2.881  22.548  17.253  1.00142.22     0.224 C 
HETATM   18  C22 MIQ B 502       2.011  22.425  18.489  1.00139.52     0.106 C 
HETATM   19  O24 MIQ B 502       4.034  22.796  17.326  1.00146.13    -0.273 OA
HETATM   20  C23 MIQ B 502       0.884  23.429  18.325  1.00139.15     0.045 C 
ENDBRANCH  10  12
BRANCH   5  21
HETATM   21  N6  MIQ B 502      -5.626  18.575  17.866  1.00140.95    -0.377 N 
HETATM   22  C7  MIQ B 502      -5.162  17.629  18.866  1.00142.12     0.149 C 
HETATM   23  C8  MIQ B 502      -5.542  16.197  18.514  1.00144.10     0.187 C 
HETATM   24  O9  MIQ B 502      -6.882  16.066  18.144  1.00148.65    -0.388 OA
HETATM   25  C10 MIQ B 502      -7.667  17.198  17.916  1.00147.44     0.187 C 
HETATM   26  C11 MIQ B 502      -6.992  18.460  17.387  1.00144.08     0.149 C 
ENDBRANCH   5  21
TORSDOF 2
ENDMDL
MODEL 9
REMARK VINA RESULT:      -5.6     28.449     30.134
REMARK  2 active torsions:
REMARK  status: ('A' for Active; 'I' for Inactive)
REMARK    1  A    between atoms: C5_5  and  N6_21 
REMARK    2  A    between atoms: C18_14  and  N17_19 
ROOT
HETATM    1  O1  MIQ B 502     -16.677  16.474  -0.890  1.00142.91    -0.171 OA
HETATM    2  C2  MIQ B 502     -17.160  16.290  -2.188  1.00141.17     0.195 A 
HETATM    3  C3  MIQ B 502     -17.366  17.405  -3.262  1.00141.71     0.035 A 
HETATM    4  C4  MIQ B 502     -17.138  18.870  -3.267  1.00142.86     0.046 A 
HETATM    5  C5  MIQ B 502     -17.425  19.636  -4.424  1.00139.53     0.031 A 
HETATM    6  C12 MIQ B 502     -17.946  18.979  -5.615  1.00139.38     0.030 A 
HETATM    7  C13 MIQ B 502     -18.164  17.575  -5.611  1.00141.18     0.019 A 
HETATM    8  C14 MIQ B 502     -17.858  16.776  -4.393  1.00138.77     0.033 A 
HETATM    9  C15 MIQ B 502     -17.959  15.261  -4.019  1.00142.10     0.195 A 
HETATM   10  N17 MIQ B 502     -17.533  15.164  -2.770  1.00139.42    -0.288 N 
HETATM   11  O16 MIQ B 502     -18.409  14.225  -4.840  1.00148.93    -0.171 OA
ENDROOT
BRANCH  10  12
HETATM   12  C18 MIQ B 502     -17.502  13.889  -2.078  1.00139.82     0.187 C 
HETATM   13  C19 MIQ B 502     -18.268  14.054  -0.759  1.00140.06     0.247 C 
HETATM   14  O25 MIQ B 502     -19.353  14.518  -0.778  1.00143.95    -0.271 OA
HETATM   15  N20 MIQ B 502     -17.700  13.650   0.510  1.00140.02    -0.296 N 
HETATM   16  H13 MIQ B 502     -18.208  13.769   1.364  1.00142.77     0.171 HD
HETATM   17  C21 MIQ B 502     -16.371  13.095   0.508  1.00142.22     0.224 C 
HETATM   18  C22 MIQ B 502     -15.406  13.641  -0.527  1.00139.52     0.106 C 
HETATM   19  O24 MIQ B 502     -16.052  12.252   1.273  1.00146.13    -0.273 OA
HETATM   20  C23 MIQ B 502     -16.059  13.427  -1.880  1.00139.15     0.045 C 
ENDBRANCH  10  12
BRANCH   5  21
HETATM   21  N6  MIQ B 502     -17.211  21.072  -4.410  1.00140.95    -0.377 N 
HETATM   22  C7  MIQ B 502     -17.857  21.860  -3.375  1.00142.12     0.149 C 
HETATM   23  C8  MIQ B 502     -18.095  23.298  -3.819  1.00144.10     0.187 C 
HETATM   24  O9  MIQ B 502     -16.966  23.882  -4.397  1.00148.65    -0.388 OA
HETATM   25  C10 MIQ B 502     -15.851  23.102  -4.716  1.00147.44     0.187 C 
HETATM   26  C11 MIQ B 502     -16.067  21.642  -5.100  1.00144.08     0.149 C 
ENDBRANCH   5  21
TORSDOF 2
ENDMDL
