MODEL 1
REMARK VINA RESULT:      -7.7      0.000      0.000
REMARK  2 active torsions:
REMARK  status: ('A' for Active; 'I' for Inactive)
REMARK    1  A    between atoms: C5_5  and  N6_21 
REMARK    2  A    between atoms: C18_14  and  N17_19 
ROOT
HETATM    1  O1  MIQ B 502      -8.205  -0.864 -16.000  1.00142.91    -0.171 OA
HETATM    2  C2  MIQ B 502      -8.125  -1.943 -15.117  1.00141.17     0.195 A 
HETATM    3  C3  MIQ B 502      -8.428  -1.905 -13.585  1.00141.71     0.035 A 
HETATM    4  C4  MIQ B 502      -8.857  -0.832 -12.657  1.00142.86     0.046 A 
HETATM    5  C5  MIQ B 502      -9.058  -1.112 -11.282  1.00139.53     0.031 A 
HETATM    6  C12 MIQ B 502      -8.841  -2.461 -10.779  1.00139.38     0.030 A 
HETATM    7  C13 MIQ B 502      -8.431  -3.490 -11.669  1.00141.18     0.019 A 
HETATM    8  C14 MIQ B 502      -8.224  -3.192 -13.112  1.00138.77     0.033 A 
HETATM    9  C15 MIQ B 502      -7.793  -4.032 -14.358  1.00142.10     0.195 A 
HETATM   10  N17 MIQ B 502      -7.791  -3.194 -15.381  1.00139.42    -0.288 N 
HETATM   11  O16 MIQ B 502      -7.473  -5.391 -14.379  1.00148.93    -0.171 OA
ENDROOT
BRANCH  10  12
HETATM   12  C18 MIQ B 502      -7.420  -3.629 -16.715  1.00139.82     0.187 C 
HETATM   13  C19 MIQ B 502      -8.304  -4.828 -17.079  1.00140.06     0.247 C 
HETATM   14  O25 MIQ B 502      -9.474  -4.740 -16.954  1.00143.95    -0.271 OA
HETATM   15  N20 MIQ B 502      -7.743  -6.066 -17.579  1.00140.02    -0.296 N 
HETATM   16  H13 MIQ B 502      -8.330  -6.844 -17.807  1.00142.77     0.171 HD
HETATM   17  C21 MIQ B 502      -6.312  -6.153 -17.713  1.00142.22     0.224 C 
HETATM   18  C22 MIQ B 502      -5.485  -5.393 -16.694  1.00139.52     0.106 C 
HETATM   19  O24 MIQ B 502      -5.809  -6.781 -18.579  1.00146.13    -0.273 OA
HETATM   20  C23 MIQ B 502      -5.926  -3.943 -16.776  1.00139.15     0.045 C 
ENDBRANCH  10  12
BRANCH   5  21
HETATM   21  N6  MIQ B 502      -9.464  -0.048 -10.381  1.00140.95    -0.377 N 
HETATM   22  C7  MIQ B 502      -8.552   1.062 -10.162  1.00142.12     0.149 C 
HETATM   23  C8  MIQ B 502      -8.769   1.716  -8.803  1.00144.10     0.187 C 
HETATM   24  O9  MIQ B 502     -10.113   1.986  -8.539  1.00148.65    -0.388 OA
HETATM   25  C10 MIQ B 502     -11.115   1.473  -9.367  1.00147.44     0.187 C 
HETATM   26  C11 MIQ B 502     -10.870   0.141 -10.069  1.00144.08     0.149 C 
ENDBRANCH   5  21
TORSDOF 2
ENDMDL
MODEL 2
REMARK VINA RESULT:      -7.5      1.941      2.524
REMARK  2 active torsions:
REMARK  status: ('A' for Active; 'I' for Inactive)
REMARK    1  A    between atoms: C5_5  and  N6_21 
REMARK    2  A    between atoms: C18_14  and  N17_19 
ROOT
HETATM    1  O1  MIQ B 502     -10.028  -1.323 -15.853  1.00142.91    -0.171 OA
HETATM    2  C2  MIQ B 502      -9.507  -2.230 -14.927  1.00141.17     0.195 A 
HETATM    3  C3  MIQ B 502      -9.365  -1.998 -13.389  1.00141.71     0.035 A 
HETATM    4  C4  MIQ B 502      -9.700  -0.865 -12.494  1.00142.86     0.046 A 
HETATM    5  C5  MIQ B 502      -9.448  -0.953 -11.102  1.00139.53     0.031 A 
HETATM    6  C12 MIQ B 502      -8.858  -2.164 -10.549  1.00139.38     0.030 A 
HETATM    7  C13 MIQ B 502      -8.538  -3.251 -11.407  1.00141.18     0.019 A 
HETATM    8  C14 MIQ B 502      -8.806  -3.153 -12.868  1.00138.77     0.033 A 
HETATM    9  C15 MIQ B 502      -8.601  -4.108 -14.089  1.00142.10     0.195 A 
HETATM   10  N17 MIQ B 502      -9.041  -3.447 -15.147  1.00139.42    -0.288 N 
HETATM   11  O16 MIQ B 502      -8.060  -5.395 -14.062  1.00148.93    -0.171 OA
ENDROOT
BRANCH  10  12
HETATM   12  C18 MIQ B 502      -8.992  -4.027 -16.476  1.00139.82     0.187 C 
HETATM   13  C19 MIQ B 502      -8.266  -3.034 -17.392  1.00140.06     0.247 C 
HETATM   14  O25 MIQ B 502      -7.219  -2.604 -17.060  1.00143.95    -0.271 OA
HETATM   15  N20 MIQ B 502      -8.827  -2.613 -18.660  1.00140.02    -0.296 N 
HETATM   16  H13 MIQ B 502      -8.346  -1.959 -19.246  1.00142.77     0.171 HD
HETATM   17  C21 MIQ B 502     -10.111  -3.144 -19.038  1.00142.22     0.224 C 
HETATM   18  C22 MIQ B 502     -11.093  -3.418 -17.916  1.00139.52     0.106 C 
HETATM   19  O24 MIQ B 502     -10.381  -3.360 -20.168  1.00146.13    -0.273 OA
HETATM   20  C23 MIQ B 502     -10.400  -4.371 -16.959  1.00139.15     0.045 C 
ENDBRANCH  10  12
BRANCH   5  21
HETATM   21  N6  MIQ B 502      -9.768   0.170 -10.239  1.00140.95    -0.377 N 
HETATM   22  C7  MIQ B 502      -8.793   1.238 -10.099  1.00142.12     0.149 C 
HETATM   23  C8  MIQ B 502      -8.929   1.962  -8.766  1.00144.10     0.187 C 
HETATM   24  O9  MIQ B 502     -10.248   2.315  -8.472  1.00148.65    -0.388 OA
HETATM   25  C10 MIQ B 502     -11.302   1.819  -9.243  1.00147.44     0.187 C 
HETATM   26  C11 MIQ B 502     -11.150   0.447  -9.890  1.00144.08     0.149 C 
ENDBRANCH   5  21
TORSDOF 2
ENDMDL
MODEL 3
REMARK VINA RESULT:      -7.5      1.908      2.494
REMARK  2 active torsions:
REMARK  status: ('A' for Active; 'I' for Inactive)
REMARK    1  A    between atoms: C5_5  and  N6_21 
REMARK    2  A    between atoms: C18_14  and  N17_19 
ROOT
HETATM    1  O1  MIQ B 502      -8.075  -2.721 -17.279  1.00142.91    -0.171 OA
HETATM    2  C2  MIQ B 502      -7.955  -3.581 -16.185  1.00141.17     0.195 A 
HETATM    3  C3  MIQ B 502      -8.395  -3.275 -14.718  1.00141.71     0.035 A 
HETATM    4  C4  MIQ B 502      -9.022  -2.101 -14.066  1.00142.86     0.046 A 
HETATM    5  C5  MIQ B 502      -9.311  -2.121 -12.679  1.00139.53     0.031 A 
HETATM    6  C12 MIQ B 502      -8.991  -3.303 -11.891  1.00139.38     0.030 A 
HETATM    7  C13 MIQ B 502      -8.391  -4.430 -12.516  1.00141.18     0.019 A 
HETATM    8  C14 MIQ B 502      -8.092  -4.403 -13.974  1.00138.77     0.033 A 
HETATM    9  C15 MIQ B 502      -7.460  -5.416 -14.984  1.00142.10     0.195 A 
HETATM   10  N17 MIQ B 502      -7.461  -4.807 -16.159  1.00139.42    -0.288 N 
HETATM   11  O16 MIQ B 502      -6.991  -6.699 -14.698  1.00148.93    -0.171 OA
ENDROOT
BRANCH  10  12
HETATM   12  C18 MIQ B 502      -6.927  -5.450 -17.345  1.00139.82     0.187 C 
HETATM   13  C19 MIQ B 502      -5.952  -4.471 -18.009  1.00140.06     0.247 C 
HETATM   14  O25 MIQ B 502      -5.103  -3.973 -17.358  1.00143.95    -0.271 OA
HETATM   15  N20 MIQ B 502      -6.039  -4.143 -19.417  1.00140.02    -0.296 N 
HETATM   16  H13 MIQ B 502      -5.400  -3.497 -19.837  1.00142.77     0.171 HD
HETATM   17  C21 MIQ B 502      -7.090  -4.756 -20.189  1.00142.22     0.224 C 
HETATM   18  C22 MIQ B 502      -8.398  -5.020 -19.468  1.00139.52     0.106 C 
HETATM   19  O24 MIQ B 502      -6.936  -5.042 -21.325  1.00146.13    -0.273 OA
HETATM   20  C23 MIQ B 502      -8.062  -5.888 -18.269  1.00139.15     0.045 C 
ENDBRANCH  10  12
BRANCH   5  21
HETATM   21  N6  MIQ B 502      -9.912  -0.958 -12.050  1.00140.95    -0.377 N 
HETATM   22  C7  MIQ B 502      -9.408  -0.530 -10.757  1.00142.12     0.149 C 
HETATM   23  C8  MIQ B 502     -10.465   0.215  -9.953  1.00144.10     0.187 C 
HETATM   24  O9  MIQ B 502     -11.118   1.201 -10.696  1.00148.65    -0.388 OA
HETATM   25  C10 MIQ B 502     -10.937   1.281 -12.079  1.00147.44     0.187 C 
HETATM   26  C11 MIQ B 502     -10.655  -0.003 -12.853  1.00144.08     0.149 C 
ENDBRANCH   5  21
TORSDOF 2
ENDMDL
MODEL 4
REMARK VINA RESULT:      -7.4     15.117     17.736
REMARK  2 active torsions:
REMARK  status: ('A' for Active; 'I' for Inactive)
REMARK    1  A    between atoms: C5_5  and  N6_21 
REMARK    2  A    between atoms: C18_14  and  N17_19 
ROOT
HETATM    1  O1  MIQ B 502     -20.792  -8.097  -1.176  1.00142.91    -0.171 OA
HETATM    2  C2  MIQ B 502     -19.988  -8.336  -2.292  1.00141.17     0.195 A 
HETATM    3  C3  MIQ B 502     -18.898  -9.448  -2.422  1.00141.71     0.035 A 
HETATM    4  C4  MIQ B 502     -18.408 -10.507  -1.508  1.00142.86     0.046 A 
HETATM    5  C5  MIQ B 502     -17.379 -11.391  -1.921  1.00139.53     0.031 A 
HETATM    6  C12 MIQ B 502     -16.803 -11.257  -3.252  1.00139.38     0.030 A 
HETATM    7  C13 MIQ B 502     -17.273 -10.243  -4.129  1.00141.18     0.019 A 
HETATM    8  C14 MIQ B 502     -18.355  -9.319  -3.690  1.00138.77     0.033 A 
HETATM    9  C15 MIQ B 502     -19.112  -8.121  -4.351  1.00142.10     0.195 A 
HETATM   10  N17 MIQ B 502     -19.980  -7.695  -3.448  1.00139.42    -0.288 N 
HETATM   11  O16 MIQ B 502     -18.909  -7.609  -5.633  1.00148.93    -0.171 OA
ENDROOT
BRANCH  10  12
HETATM   12  C18 MIQ B 502     -20.856  -6.569  -3.712  1.00139.82     0.187 C 
HETATM   13  C19 MIQ B 502     -21.644  -6.879  -4.990  1.00140.06     0.247 C 
HETATM   14  O25 MIQ B 502     -22.211  -7.910  -5.082  1.00143.95    -0.271 OA
HETATM   15  N20 MIQ B 502     -21.717  -5.939  -6.090  1.00140.02    -0.296 N 
HETATM   16  H13 MIQ B 502     -22.229  -6.156  -6.922  1.00142.77     0.171 HD
HETATM   17  C21 MIQ B 502     -21.007  -4.692  -5.959  1.00142.22     0.224 C 
HETATM   18  C22 MIQ B 502     -19.709  -4.726  -5.177  1.00139.52     0.106 C 
HETATM   19  O24 MIQ B 502     -21.422  -3.693  -6.435  1.00146.13    -0.273 OA
HETATM   20  C23 MIQ B 502     -20.048  -5.276  -3.803  1.00139.15     0.045 C 
ENDBRANCH  10  12
BRANCH   5  21
HETATM   21  N6  MIQ B 502     -16.899 -12.414  -1.010  1.00140.95    -0.377 N 
HETATM   22  C7  MIQ B 502     -15.577 -12.975  -1.231  1.00142.12     0.149 C 
HETATM   23  C8  MIQ B 502     -15.460 -14.389  -0.678  1.00144.10     0.187 C 
HETATM   24  O9  MIQ B 502     -15.948 -14.506   0.625  1.00148.65    -0.388 OA
HETATM   25  C10 MIQ B 502     -16.665 -13.458   1.208  1.00147.44     0.187 C 
HETATM   26  C11 MIQ B 502     -17.497 -12.552   0.306  1.00144.08     0.149 C 
ENDBRANCH   5  21
TORSDOF 2
ENDMDL
MODEL 5
REMARK VINA RESULT:      -7.3      2.225      3.191
REMARK  2 active torsions:
REMARK  status: ('A' for Active; 'I' for Inactive)
REMARK    1  A    between atoms: C5_5  and  N6_21 
REMARK    2  A    between atoms: C18_14  and  N17_19 
ROOT
HETATM    1  O1  MIQ B 502      -8.218  -3.097 -14.610  1.00142.91    -0.171 OA
HETATM    2  C2  MIQ B 502      -8.874  -2.181 -15.436  1.00141.17     0.195 A 
HETATM    3  C3  MIQ B 502      -9.785  -1.003 -14.966  1.00141.71     0.035 A 
HETATM    4  C4  MIQ B 502     -10.210  -0.512 -13.633  1.00142.86     0.046 A 
HETATM    5  C5  MIQ B 502     -11.064   0.614 -13.523  1.00139.53     0.031 A 
HETATM    6  C12 MIQ B 502     -11.526   1.291 -14.726  1.00139.38     0.030 A 
HETATM    7  C13 MIQ B 502     -11.118   0.822 -16.003  1.00141.18     0.019 A 
HETATM    8  C14 MIQ B 502     -10.219  -0.359 -16.113  1.00138.77     0.033 A 
HETATM    9  C15 MIQ B 502      -9.573  -1.142 -17.303  1.00142.10     0.195 A 
HETATM   10  N17 MIQ B 502      -8.861  -2.114 -16.756  1.00139.42    -0.288 N 
HETATM   11  O16 MIQ B 502      -9.724  -0.868 -18.663  1.00148.93    -0.171 OA
ENDROOT
BRANCH  10  12
HETATM   12  C18 MIQ B 502      -8.126  -3.063 -17.570  1.00139.82     0.187 C 
HETATM   13  C19 MIQ B 502      -8.508  -4.474 -17.104  1.00140.06     0.247 C 
HETATM   14  O25 MIQ B 502      -9.648  -4.761 -17.014  1.00143.95    -0.271 OA
HETATM   15  N20 MIQ B 502      -7.506  -5.467 -16.776  1.00140.02    -0.296 N 
HETATM   16  H13 MIQ B 502      -7.769  -6.382 -16.466  1.00142.77     0.171 HD
HETATM   17  C21 MIQ B 502      -6.121  -5.089 -16.883  1.00142.22     0.224 C 
HETATM   18  C22 MIQ B 502      -5.781  -3.647 -16.560  1.00139.52     0.106 C 
HETATM   19  O24 MIQ B 502      -5.292  -5.865 -17.212  1.00146.13    -0.273 OA
HETATM   20  C23 MIQ B 502      -6.625  -2.788 -17.484  1.00139.15     0.045 C 
ENDBRANCH  10  12
BRANCH   5  21
HETATM   21  N6  MIQ B 502     -11.484   1.074 -12.212  1.00140.95    -0.377 N 
HETATM   22  C7  MIQ B 502     -10.563   0.932 -11.097  1.00142.12     0.149 C 
HETATM   23  C8  MIQ B 502     -11.293   0.829  -9.765  1.00144.10     0.187 C 
HETATM   24  O9  MIQ B 502     -12.275   1.810  -9.606  1.00148.65    -0.388 OA
HETATM   25  C10 MIQ B 502     -12.653   2.614 -10.685  1.00147.44     0.187 C 
HETATM   26  C11 MIQ B 502     -12.569   2.032 -12.092  1.00144.08     0.149 C 
ENDBRANCH   5  21
TORSDOF 2
ENDMDL
MODEL 6
REMARK VINA RESULT:      -7.2      1.851      2.985
REMARK  2 active torsions:
REMARK  status: ('A' for Active; 'I' for Inactive)
REMARK    1  A    between atoms: C5_5  and  N6_21 
REMARK    2  A    between atoms: C18_14  and  N17_19 
ROOT
HETATM    1  O1  MIQ B 502      -7.675  -3.539 -12.953  1.00142.91    -0.171 OA
HETATM    2  C2  MIQ B 502      -8.283  -2.787 -13.961  1.00141.17     0.195 A 
HETATM    3  C3  MIQ B 502      -9.249  -1.577 -13.754  1.00141.71     0.035 A 
HETATM    4  C4  MIQ B 502      -9.783  -0.894 -12.552  1.00142.86     0.046 A 
HETATM    5  C5  MIQ B 502     -10.665   0.208 -12.686  1.00139.53     0.031 A 
HETATM    6  C12 MIQ B 502     -11.046   0.671 -14.012  1.00139.38     0.030 A 
HETATM    7  C13 MIQ B 502     -10.533   0.018 -15.165  1.00141.18     0.019 A 
HETATM    8  C14 MIQ B 502      -9.606  -1.138 -15.018  1.00138.77     0.033 A 
HETATM    9  C15 MIQ B 502      -8.857  -2.080 -16.016  1.00142.10     0.195 A 
HETATM   10  N17 MIQ B 502      -8.170  -2.930 -15.271  1.00139.42    -0.288 N 
HETATM   11  O16 MIQ B 502      -8.908  -2.030 -17.410  1.00148.93    -0.171 OA
ENDROOT
BRANCH  10  12
HETATM   12  C18 MIQ B 502      -7.357  -3.974 -15.866  1.00139.82     0.187 C 
HETATM   13  C19 MIQ B 502      -6.465  -3.322 -16.929  1.00140.06     0.247 C 
HETATM   14  O25 MIQ B 502      -5.823  -2.375 -16.641  1.00143.95    -0.271 OA
HETATM   15  N20 MIQ B 502      -6.382  -3.841 -18.279  1.00140.02    -0.296 N 
HETATM   16  H13 MIQ B 502      -5.800  -3.403 -18.966  1.00142.77     0.171 HD
HETATM   17  C21 MIQ B 502      -7.182  -4.992 -18.610  1.00142.22     0.224 C 
HETATM   18  C22 MIQ B 502      -8.525  -5.110 -17.916  1.00139.52     0.106 C 
HETATM   19  O24 MIQ B 502      -6.806  -5.806 -19.380  1.00146.13    -0.273 OA
HETATM   20  C23 MIQ B 502      -8.244  -5.085 -16.424  1.00139.15     0.045 C 
ENDBRANCH  10  12
BRANCH   5  21
HETATM   21  N6  MIQ B 502     -11.192   0.858 -11.500  1.00140.95    -0.377 N 
HETATM   22  C7  MIQ B 502     -12.382   1.681 -11.630  1.00142.12     0.149 C 
HETATM   23  C8  MIQ B 502     -12.446   2.762 -10.559  1.00144.10     0.187 C 
HETATM   24  O9  MIQ B 502     -12.198   2.271  -9.276  1.00148.65    -0.388 OA
HETATM   25  C10 MIQ B 502     -11.717   0.971  -9.096  1.00147.44     0.187 C 
HETATM   26  C11 MIQ B 502     -10.836   0.363 -10.182  1.00144.08     0.149 C 
ENDBRANCH   5  21
TORSDOF 2
ENDMDL
MODEL 7
REMARK VINA RESULT:      -7.2      5.063      6.954
REMARK  2 active torsions:
REMARK  status: ('A' for Active; 'I' for Inactive)
REMARK    1  A    between atoms: C5_5  and  N6_21 
REMARK    2  A    between atoms: C18_14  and  N17_19 
ROOT
HETATM    1  O1  MIQ B 502      -9.878  -1.793 -15.950  1.00142.91    -0.171 OA
HETATM    2  C2  MIQ B 502     -10.327  -0.858 -15.015  1.00141.17     0.195 A 
HETATM    3  C3  MIQ B 502     -11.197   0.404 -15.317  1.00141.71     0.035 A 
HETATM    4  C4  MIQ B 502     -11.778   0.968 -16.558  1.00142.86     0.046 A 
HETATM    5  C5  MIQ B 502     -12.545   2.159 -16.513  1.00139.53     0.031 A 
HETATM    6  C12 MIQ B 502     -12.764   2.831 -15.240  1.00139.38     0.030 A 
HETATM    7  C13 MIQ B 502     -12.208   2.290 -14.050  1.00141.18     0.019 A 
HETATM    8  C14 MIQ B 502     -11.405   1.037 -14.102  1.00138.77     0.033 A 
HETATM    9  C15 MIQ B 502     -10.660   0.164 -13.041  1.00142.10     0.195 A 
HETATM   10  N17 MIQ B 502     -10.121  -0.843 -13.709  1.00139.42    -0.288 N 
HETATM   11  O16 MIQ B 502     -10.580   0.404 -11.668  1.00148.93    -0.171 OA
ENDROOT
BRANCH  10  12
HETATM   12  C18 MIQ B 502      -9.331  -1.859 -13.040  1.00139.82     0.187 C 
HETATM   13  C19 MIQ B 502      -8.095  -2.136 -13.906  1.00140.06     0.247 C 
HETATM   14  O25 MIQ B 502      -7.432  -1.230 -14.269  1.00143.95    -0.271 OA
HETATM   15  N20 MIQ B 502      -7.715  -3.481 -14.287  1.00140.02    -0.296 N 
HETATM   16  H13 MIQ B 502      -6.910  -3.647 -14.858  1.00142.77     0.171 HD
HETATM   17  C21 MIQ B 502      -8.547  -4.569 -13.840  1.00142.22     0.224 C 
HETATM   18  C22 MIQ B 502     -10.032  -4.288 -13.724  1.00139.52     0.106 C 
HETATM   19  O24 MIQ B 502      -8.090  -5.625 -13.572  1.00146.13    -0.273 OA
HETATM   20  C23 MIQ B 502     -10.176  -3.106 -12.783  1.00139.15     0.045 C 
ENDBRANCH  10  12
BRANCH   5  21
HETATM   21  N6  MIQ B 502     -13.096   2.709 -17.739  1.00140.95    -0.377 N 
HETATM   22  C7  MIQ B 502     -13.393   4.130 -17.791  1.00142.12     0.149 C 
HETATM   23  C8  MIQ B 502     -14.499   4.443 -18.791  1.00144.10     0.187 C 
HETATM   24  O9  MIQ B 502     -14.301   3.829 -20.030  1.00148.65    -0.388 OA
HETATM   25  C10 MIQ B 502     -13.307   2.860 -20.188  1.00147.44     0.187 C 
HETATM   26  C11 MIQ B 502     -12.939   1.990 -18.991  1.00144.08     0.149 C 
ENDBRANCH   5  21
TORSDOF 2
ENDMDL
MODEL 8
REMARK VINA RESULT:      -7.1      4.292      8.635
REMARK  2 active torsions:
REMARK  status: ('A' for Active; 'I' for Inactive)
REMARK    1  A    between atoms: C5_5  and  N6_21 
REMARK    2  A    between atoms: C18_14  and  N17_19 
ROOT
HETATM    1  O1  MIQ B 502     -11.387   2.147 -11.343  1.00142.91    -0.171 OA
HETATM    2  C2  MIQ B 502     -10.767   0.954 -11.723  1.00141.17     0.195 A 
HETATM    3  C3  MIQ B 502     -10.742   0.345 -13.160  1.00141.71     0.035 A 
HETATM    4  C4  MIQ B 502     -11.302   0.780 -14.462  1.00142.86     0.046 A 
HETATM    5  C5  MIQ B 502     -11.107  -0.006 -15.625  1.00139.53     0.031 A 
HETATM    6  C12 MIQ B 502     -10.351  -1.247 -15.540  1.00139.38     0.030 A 
HETATM    7  C13 MIQ B 502      -9.812  -1.665 -14.293  1.00141.18     0.019 A 
HETATM    8  C14 MIQ B 502     -10.019  -0.834 -13.075  1.00138.77     0.033 A 
HETATM    9  C15 MIQ B 502      -9.592  -0.956 -11.576  1.00142.10     0.195 A 
HETATM   10  N17 MIQ B 502     -10.083   0.111 -10.968  1.00139.42    -0.288 N 
HETATM   11  O16 MIQ B 502      -8.847  -1.987 -11.001  1.00148.93    -0.171 OA
ENDROOT
BRANCH  10  12
HETATM   12  C18 MIQ B 502      -9.894   0.327  -9.546  1.00139.82     0.187 C 
HETATM   13  C19 MIQ B 502     -11.196   0.912  -8.984  1.00140.06     0.247 C 
HETATM   14  O25 MIQ B 502     -12.218   0.369  -9.216  1.00143.95    -0.271 OA
HETATM   15  N20 MIQ B 502     -11.206   2.110  -8.171  1.00140.02    -0.296 N 
HETATM   16  H13 MIQ B 502     -12.064   2.486  -7.816  1.00142.77     0.171 HD
HETATM   17  C21 MIQ B 502      -9.947   2.760  -7.911  1.00142.22     0.224 C 
HETATM   18  C22 MIQ B 502      -8.906   2.692  -9.012  1.00139.52     0.106 C 
HETATM   19  O24 MIQ B 502      -9.737   3.314  -6.889  1.00146.13    -0.273 OA
HETATM   20  C23 MIQ B 502      -8.679   1.220  -9.300  1.00139.15     0.045 C 
ENDBRANCH  10  12
BRANCH   5  21
HETATM   21  N6  MIQ B 502     -11.674   0.425 -16.890  1.00140.95    -0.377 N 
HETATM   22  C7  MIQ B 502     -12.685  -0.408 -17.518  1.00142.12     0.149 C 
HETATM   23  C8  MIQ B 502     -12.713  -0.227 -19.030  1.00144.10     0.187 C 
HETATM   24  O9  MIQ B 502     -12.721   1.115 -19.416  1.00148.65    -0.388 OA
HETATM   25  C10 MIQ B 502     -12.488   2.123 -18.477  1.00147.44     0.187 C 
HETATM   26  C11 MIQ B 502     -11.581   1.818 -17.289  1.00144.08     0.149 C 
ENDBRANCH   5  21
TORSDOF 2
ENDMDL
MODEL 9
REMARK VINA RESULT:      -7.1     15.385     18.101
REMARK  2 active torsions:
REMARK  status: ('A' for Active; 'I' for Inactive)
REMARK    1  A    between atoms: C5_5  and  N6_21 
REMARK    2  A    between atoms: C18_14  and  N17_19 
ROOT
HETATM    1  O1  MIQ B 502     -21.225  -7.641  -2.150  1.00142.91    -0.171 OA
HETATM    2  C2  MIQ B 502     -20.386  -7.960  -3.220  1.00141.17     0.195 A 
HETATM    3  C3  MIQ B 502     -19.265  -9.048  -3.220  1.00141.71     0.035 A 
HETATM    4  C4  MIQ B 502     -18.772 -10.003  -2.200  1.00142.86     0.046 A 
HETATM    5  C5  MIQ B 502     -17.711 -10.893  -2.504  1.00139.53     0.031 A 
HETATM    6  C12 MIQ B 502     -17.104 -10.867  -3.827  1.00139.38     0.030 A 
HETATM    7  C13 MIQ B 502     -17.577  -9.952  -4.806  1.00141.18     0.019 A 
HETATM    8  C14 MIQ B 502     -18.692  -9.022  -4.481  1.00138.77     0.033 A 
HETATM    9  C15 MIQ B 502     -19.462  -7.912  -5.269  1.00142.10     0.195 A 
HETATM   10  N17 MIQ B 502     -20.364  -7.428  -4.430  1.00139.42    -0.288 N 
HETATM   11  O16 MIQ B 502     -19.238  -7.515  -6.588  1.00148.93    -0.171 OA
ENDROOT
BRANCH  10  12
HETATM   12  C18 MIQ B 502     -21.261  -6.356  -4.819  1.00139.82     0.187 C 
HETATM   13  C19 MIQ B 502     -21.100  -5.219  -3.803  1.00140.06     0.247 C 
HETATM   14  O25 MIQ B 502     -20.019  -4.819  -3.553  1.00143.95    -0.271 OA
HETATM   15  N20 MIQ B 502     -22.240  -4.616  -3.143  1.00140.02    -0.296 N 
HETATM   16  H13 MIQ B 502     -22.121  -3.879  -2.477  1.00142.77     0.171 HD
HETATM   17  C21 MIQ B 502     -23.549  -5.129  -3.457  1.00142.22     0.224 C 
HETATM   18  C22 MIQ B 502     -23.645  -6.611  -3.764  1.00139.52     0.106 C 
HETATM   19  O24 MIQ B 502     -24.499  -4.426  -3.478  1.00146.13    -0.273 OA
HETATM   20  C23 MIQ B 502     -22.695  -6.874  -4.919  1.00139.15     0.045 C 
ENDBRANCH  10  12
BRANCH   5  21
HETATM   21  N6  MIQ B 502     -17.229 -11.813  -1.490  1.00140.95    -0.377 N 
HETATM   22  C7  MIQ B 502     -15.863 -12.297  -1.585  1.00142.12     0.149 C 
HETATM   23  C8  MIQ B 502     -15.694 -13.658  -0.921  1.00144.10     0.187 C 
HETATM   24  O9  MIQ B 502     -16.259 -13.714   0.354  1.00148.65    -0.388 OA
HETATM   25  C10 MIQ B 502     -17.079 -12.679   0.811  1.00147.44     0.187 C 
HETATM   26  C11 MIQ B 502     -17.904 -11.898  -0.207  1.00144.08     0.149 C 
ENDBRANCH   5  21
TORSDOF 2
ENDMDL
