MODEL 1
REMARK VINA RESULT:      -6.9      0.000      0.000
REMARK  2 active torsions:
REMARK  status: ('A' for Active; 'I' for Inactive)
REMARK    1  A    between atoms: C5_5  and  N6_21 
REMARK    2  A    between atoms: C18_14  and  N17_19 
ROOT
HETATM    1  O1  MIQ B 502     -21.312   2.059  -5.777  1.00142.91    -0.171 OA
HETATM    2  C2  MIQ B 502     -20.251   1.152  -5.798  1.00141.17     0.195 A 
HETATM    3  C3  MIQ B 502     -19.632   0.486  -7.069  1.00141.71     0.035 A 
HETATM    4  C4  MIQ B 502     -19.927   0.585  -8.518  1.00142.86     0.046 A 
HETATM    5  C5  MIQ B 502     -19.171  -0.161  -9.456  1.00139.53     0.031 A 
HETATM    6  C12 MIQ B 502     -18.097  -1.028  -8.993  1.00139.38     0.030 A 
HETATM    7  C13 MIQ B 502     -17.813  -1.123  -7.604  1.00141.18     0.019 A 
HETATM    8  C14 MIQ B 502     -18.609  -0.335  -6.623  1.00138.77     0.033 A 
HETATM    9  C15 MIQ B 502     -18.593  -0.178  -5.067  1.00142.10     0.195 A 
HETATM   10  N17 MIQ B 502     -19.558   0.678  -4.777  1.00139.42    -0.288 N 
HETATM   11  O16 MIQ B 502     -17.734  -0.817  -4.172  1.00148.93    -0.171 OA
ENDROOT
BRANCH  10  12
HETATM   12  C18 MIQ B 502     -19.849   1.056  -3.406  1.00139.82     0.187 C 
HETATM   13  C19 MIQ B 502     -21.341   0.803  -3.157  1.00140.06     0.247 C 
HETATM   14  O25 MIQ B 502     -21.800  -0.248  -3.431  1.00143.95    -0.271 OA
HETATM   15  N20 MIQ B 502     -22.203   1.819  -2.589  1.00140.02    -0.296 N 
HETATM   16  H13 MIQ B 502     -23.177   1.644  -2.437  1.00142.77     0.171 HD
HETATM   17  C21 MIQ B 502     -21.621   3.098  -2.272  1.00142.22     0.224 C 
HETATM   18  C22 MIQ B 502     -20.504   3.581  -3.178  1.00139.52     0.106 C 
HETATM   19  O24 MIQ B 502     -21.993   3.734  -1.349  1.00146.13    -0.273 OA
HETATM   20  C23 MIQ B 502     -19.434   2.504  -3.154  1.00139.15     0.045 C 
ENDBRANCH  10  12
BRANCH   5  21
HETATM   21  N6  MIQ B 502     -19.480  -0.065 -10.871  1.00140.95    -0.377 N 
HETATM   22  C7  MIQ B 502     -18.559  -0.657 -11.825  1.00142.12     0.149 C 
HETATM   23  C8  MIQ B 502     -18.626   0.032 -13.183  1.00144.10     0.187 C 
HETATM   24  O9  MIQ B 502     -19.933   0.202 -13.642  1.00148.65    -0.388 OA
HETATM   25  C10 MIQ B 502     -21.018  -0.041 -12.795  1.00147.44     0.187 C 
HETATM   26  C11 MIQ B 502     -20.843   0.199 -11.299  1.00144.08     0.149 C 
ENDBRANCH   5  21
TORSDOF 2
ENDMDL
MODEL 2
REMARK VINA RESULT:      -6.7     12.907     13.900
REMARK  2 active torsions:
REMARK  status: ('A' for Active; 'I' for Inactive)
REMARK    1  A    between atoms: C5_5  and  N6_21 
REMARK    2  A    between atoms: C18_14  and  N17_19 
ROOT
HETATM    1  O1  MIQ B 502     -24.245 -10.947 -10.069  1.00142.91    -0.171 OA
HETATM    2  C2  MIQ B 502     -23.539 -11.539 -11.118  1.00141.17     0.195 A 
HETATM    3  C3  MIQ B 502     -23.395 -10.975 -12.568  1.00141.71     0.035 A 
HETATM    4  C4  MIQ B 502     -23.900  -9.755 -13.241  1.00142.86     0.046 A 
HETATM    5  C5  MIQ B 502     -23.593  -9.509 -14.603  1.00139.53     0.031 A 
HETATM    6  C12 MIQ B 502     -22.777 -10.461 -15.343  1.00139.38     0.030 A 
HETATM    7  C13 MIQ B 502     -22.291 -11.630 -14.697  1.00141.18     0.019 A 
HETATM    8  C14 MIQ B 502     -22.615 -11.882 -13.266  1.00138.77     0.033 A 
HETATM    9  C15 MIQ B 502     -22.272 -13.015 -12.245  1.00142.10     0.195 A 
HETATM   10  N17 MIQ B 502     -22.856 -12.671 -11.109  1.00139.42    -0.288 N 
HETATM   11  O16 MIQ B 502     -21.507 -14.157 -12.489  1.00148.93    -0.171 OA
ENDROOT
BRANCH  10  12
HETATM   12  C18 MIQ B 502     -22.764 -13.507  -9.927  1.00139.82     0.187 C 
HETATM   13  C19 MIQ B 502     -24.190 -13.771  -9.428  1.00140.06     0.247 C 
HETATM   14  O25 MIQ B 502     -25.001 -14.169 -10.187  1.00143.95    -0.271 OA
HETATM   15  N20 MIQ B 502     -24.570 -13.551  -8.047  1.00140.02    -0.296 N 
HETATM   16  H13 MIQ B 502     -25.506 -13.721  -7.736  1.00142.77     0.171 HD
HETATM   17  C21 MIQ B 502     -23.565 -13.055  -7.143  1.00142.22     0.224 C 
HETATM   18  C22 MIQ B 502     -22.531 -12.110  -7.724  1.00139.52     0.106 C 
HETATM   19  O24 MIQ B 502     -23.546 -13.375  -6.005  1.00146.13    -0.273 OA
HETATM   20  C23 MIQ B 502     -21.872 -12.847  -8.876  1.00139.15     0.045 C 
ENDBRANCH  10  12
BRANCH   5  21
HETATM   21  N6  MIQ B 502     -24.107  -8.318 -15.254  1.00140.95    -0.377 N 
HETATM   22  C7  MIQ B 502     -23.878  -8.152 -16.679  1.00142.12     0.149 C 
HETATM   23  C8  MIQ B 502     -23.865  -6.684 -17.086  1.00144.10     0.187 C 
HETATM   24  O9  MIQ B 502     -24.944  -5.967 -16.567  1.00148.65    -0.388 OA
HETATM   25  C10 MIQ B 502     -25.774  -6.538 -15.599  1.00147.44     0.187 C 
HETATM   26  C11 MIQ B 502     -25.175  -7.555 -14.633  1.00144.08     0.149 C 
ENDBRANCH   5  21
TORSDOF 2
ENDMDL
MODEL 3
REMARK VINA RESULT:      -6.6     15.863     17.969
REMARK  2 active torsions:
REMARK  status: ('A' for Active; 'I' for Inactive)
REMARK    1  A    between atoms: C5_5  and  N6_21 
REMARK    2  A    between atoms: C18_14  and  N17_19 
ROOT
HETATM    1  O1  MIQ B 502     -13.761 -15.549   1.870  1.00142.91    -0.171 OA
HETATM    2  C2  MIQ B 502     -13.923 -14.230   1.440  1.00141.17     0.195 A 
HETATM    3  C3  MIQ B 502     -15.068 -13.693   0.522  1.00141.71     0.035 A 
HETATM    4  C4  MIQ B 502     -16.238 -14.331  -0.126  1.00142.86     0.046 A 
HETATM    5  C5  MIQ B 502     -17.124 -13.562  -0.922  1.00139.53     0.031 A 
HETATM    6  C12 MIQ B 502     -16.883 -12.137  -1.101  1.00139.38     0.030 A 
HETATM    7  C13 MIQ B 502     -15.762 -11.525  -0.479  1.00141.18     0.019 A 
HETATM    8  C14 MIQ B 502     -14.836 -12.337   0.357  1.00138.77     0.033 A 
HETATM    9  C15 MIQ B 502     -13.541 -12.031   1.178  1.00142.10     0.195 A 
HETATM   10  N17 MIQ B 502     -13.167 -13.181   1.714  1.00139.42    -0.288 N 
HETATM   11  O16 MIQ B 502     -12.909 -10.793   1.311  1.00148.93    -0.171 OA
ENDROOT
BRANCH  10  12
HETATM   12  C18 MIQ B 502     -11.978 -13.281   2.540  1.00139.82     0.187 C 
HETATM   13  C19 MIQ B 502     -11.095 -14.390   1.956  1.00140.06     0.247 C 
HETATM   14  O25 MIQ B 502     -10.832 -14.372   0.806  1.00143.95    -0.271 OA
HETATM   15  N20 MIQ B 502     -10.568 -15.459   2.779  1.00140.02    -0.296 N 
HETATM   16  H13 MIQ B 502      -9.998 -16.181   2.384  1.00142.77     0.171 HD
HETATM   17  C21 MIQ B 502     -10.912 -15.466   4.177  1.00142.22     0.224 C 
HETATM   18  C22 MIQ B 502     -12.285 -14.938   4.544  1.00139.52     0.106 C 
HETATM   19  O24 MIQ B 502     -10.157 -15.859   4.997  1.00146.13    -0.273 OA
HETATM   20  C23 MIQ B 502     -12.363 -13.524   3.998  1.00139.15     0.045 C 
ENDBRANCH  10  12
BRANCH   5  21
HETATM   21  N6  MIQ B 502     -18.258 -14.203  -1.563  1.00140.95    -0.377 N 
HETATM   22  C7  MIQ B 502     -18.955 -13.487  -2.618  1.00142.12     0.149 C 
HETATM   23  C8  MIQ B 502     -20.409 -13.926  -2.739  1.00144.10     0.187 C 
HETATM   24  O9  MIQ B 502     -20.557 -15.315  -2.760  1.00148.65    -0.388 OA
HETATM   25  C10 MIQ B 502     -19.475 -16.147  -2.461  1.00147.44     0.187 C 
HETATM   26  C11 MIQ B 502     -18.417 -15.644  -1.485  1.00144.08     0.149 C 
ENDBRANCH   5  21
TORSDOF 2
ENDMDL
MODEL 4
REMARK VINA RESULT:      -6.6      3.534      9.659
REMARK  2 active torsions:
REMARK  status: ('A' for Active; 'I' for Inactive)
REMARK    1  A    between atoms: C5_5  and  N6_21 
REMARK    2  A    between atoms: C18_14  and  N17_19 
ROOT
HETATM    1  O1  MIQ B 502     -18.790   2.804  -3.646  1.00142.91    -0.171 OA
HETATM    2  C2  MIQ B 502     -20.071   2.648  -3.113  1.00141.17     0.195 A 
HETATM    3  C3  MIQ B 502     -20.575   3.208  -1.744  1.00141.71     0.035 A 
HETATM    4  C4  MIQ B 502     -19.934   4.007  -0.672  1.00142.86     0.046 A 
HETATM    5  C5  MIQ B 502     -20.668   4.373   0.484  1.00139.53     0.031 A 
HETATM    6  C12 MIQ B 502     -22.059   3.963   0.617  1.00139.38     0.030 A 
HETATM    7  C13 MIQ B 502     -22.673   3.198  -0.411  1.00141.18     0.019 A 
HETATM    8  C14 MIQ B 502     -21.898   2.818  -1.623  1.00138.77     0.033 A 
HETATM    9  C15 MIQ B 502     -22.219   2.012  -2.924  1.00142.10     0.195 A 
HETATM   10  N17 MIQ B 502     -21.106   2.015  -3.639  1.00139.42    -0.288 N 
HETATM   11  O16 MIQ B 502     -23.434   1.412  -3.258  1.00148.93    -0.171 OA
ENDROOT
BRANCH  10  12
HETATM   12  C18 MIQ B 502     -21.027   1.339  -4.921  1.00139.82     0.187 C 
HETATM   13  C19 MIQ B 502     -19.769   0.462  -4.910  1.00140.06     0.247 C 
HETATM   14  O25 MIQ B 502     -19.591  -0.279  -4.010  1.00143.95    -0.271 OA
HETATM   15  N20 MIQ B 502     -18.793   0.513  -5.979  1.00140.02    -0.296 N 
HETATM   16  H13 MIQ B 502     -17.973  -0.060  -5.957  1.00142.77     0.171 HD
HETATM   17  C21 MIQ B 502     -19.027   1.433  -7.062  1.00142.22     0.224 C 
HETATM   18  C22 MIQ B 502     -19.723   2.734  -6.712  1.00139.52     0.106 C 
HETATM   19  O24 MIQ B 502     -18.696   1.182  -8.169  1.00146.13    -0.273 OA
HETATM   20  C23 MIQ B 502     -21.040   2.357  -6.060  1.00139.15     0.045 C 
ENDBRANCH  10  12
BRANCH   5  21
HETATM   21  N6  MIQ B 502     -20.024   5.143   1.532  1.00140.95    -0.377 N 
HETATM   22  C7  MIQ B 502     -20.751   6.253   2.126  1.00142.12     0.149 C 
HETATM   23  C8  MIQ B 502     -19.812   7.315   2.683  1.00144.10     0.187 C 
HETATM   24  O9  MIQ B 502     -18.792   6.779   3.472  1.00148.65    -0.388 OA
HETATM   25  C10 MIQ B 502     -18.578   5.399   3.510  1.00147.44     0.187 C 
HETATM   26  C11 MIQ B 502     -18.910   4.575   2.270  1.00144.08     0.149 C 
ENDBRANCH   5  21
TORSDOF 2
ENDMDL
MODEL 5
REMARK VINA RESULT:      -6.4      3.139      5.152
REMARK  2 active torsions:
REMARK  status: ('A' for Active; 'I' for Inactive)
REMARK    1  A    between atoms: C5_5  and  N6_21 
REMARK    2  A    between atoms: C18_14  and  N17_19 
ROOT
HETATM    1  O1  MIQ B 502     -19.417  -0.516  -0.754  1.00142.91    -0.171 OA
HETATM    2  C2  MIQ B 502     -19.573   0.796  -1.206  1.00141.17     0.195 A 
HETATM    3  C3  MIQ B 502     -19.452   1.283  -2.685  1.00141.71     0.035 A 
HETATM    4  C4  MIQ B 502     -19.167   0.592  -3.965  1.00142.86     0.046 A 
HETATM    5  C5  MIQ B 502     -19.123   1.322  -5.179  1.00139.53     0.031 A 
HETATM    6  C12 MIQ B 502     -19.361   2.758  -5.168  1.00139.38     0.030 A 
HETATM    7  C13 MIQ B 502     -19.636   3.421  -3.941  1.00141.18     0.019 A 
HETATM    8  C14 MIQ B 502     -19.683   2.649  -2.669  1.00138.77     0.033 A 
HETATM    9  C15 MIQ B 502     -19.949   3.012  -1.172  1.00142.10     0.195 A 
HETATM   10  N17 MIQ B 502     -19.854   1.877  -0.499  1.00139.42    -0.288 N 
HETATM   11  O16 MIQ B 502     -20.228   4.279  -0.656  1.00148.93    -0.171 OA
ENDROOT
BRANCH  10  12
HETATM   12  C18 MIQ B 502     -20.029   1.834   0.941  1.00139.82     0.187 C 
HETATM   13  C19 MIQ B 502     -21.347   2.545   1.274  1.00140.06     0.247 C 
HETATM   14  O25 MIQ B 502     -22.330   2.233   0.701  1.00143.95    -0.271 OA
HETATM   15  N20 MIQ B 502     -21.421   3.587   2.277  1.00140.02    -0.296 N 
HETATM   16  H13 MIQ B 502     -22.286   4.048   2.480  1.00142.77     0.171 HD
HETATM   17  C21 MIQ B 502     -20.205   3.958   2.955  1.00142.22     0.224 C 
HETATM   18  C22 MIQ B 502     -18.924   3.879   2.148  1.00139.52     0.106 C 
HETATM   19  O24 MIQ B 502     -20.209   4.301   4.086  1.00146.13    -0.273 OA
HETATM   20  C23 MIQ B 502     -18.820   2.451   1.642  1.00139.15     0.045 C 
ENDBRANCH  10  12
BRANCH   5  21
HETATM   21  N6  MIQ B 502     -18.827   0.635  -6.423  1.00140.95    -0.377 N 
HETATM   22  C7  MIQ B 502     -18.585  -0.797  -6.385  1.00142.12     0.149 C 
HETATM   23  C8  MIQ B 502     -17.696  -1.254  -7.535  1.00144.10     0.187 C 
HETATM   24  O9  MIQ B 502     -18.104  -0.750  -8.771  1.00148.65    -0.388 OA
HETATM   25  C10 MIQ B 502     -19.083   0.245  -8.842  1.00147.44     0.187 C 
HETATM   26  C11 MIQ B 502     -19.195   1.240  -7.691  1.00144.08     0.149 C 
ENDBRANCH   5  21
TORSDOF 2
ENDMDL
MODEL 6
REMARK VINA RESULT:      -6.4     15.929     18.564
REMARK  2 active torsions:
REMARK  status: ('A' for Active; 'I' for Inactive)
REMARK    1  A    between atoms: C5_5  and  N6_21 
REMARK    2  A    between atoms: C18_14  and  N17_19 
ROOT
HETATM    1  O1  MIQ B 502     -14.204 -13.950   0.747  1.00142.91    -0.171 OA
HETATM    2  C2  MIQ B 502     -14.086 -13.532   2.074  1.00141.17     0.195 A 
HETATM    3  C3  MIQ B 502     -14.796 -12.300   2.720  1.00141.71     0.035 A 
HETATM    4  C4  MIQ B 502     -15.734 -11.276   2.201  1.00142.86     0.046 A 
HETATM    5  C5  MIQ B 502     -16.222 -10.254   3.053  1.00139.53     0.031 A 
HETATM    6  C12 MIQ B 502     -15.800 -10.211   4.446  1.00139.38     0.030 A 
HETATM    7  C13 MIQ B 502     -14.903 -11.193   4.944  1.00141.18     0.019 A 
HETATM    8  C14 MIQ B 502     -14.395 -12.265   4.046  1.00138.77     0.033 A 
HETATM    9  C15 MIQ B 502     -13.430 -13.483   4.224  1.00142.10     0.195 A 
HETATM   10  N17 MIQ B 502     -13.370 -14.077   3.043  1.00139.42    -0.288 N 
HETATM   11  O16 MIQ B 502     -12.766 -13.860   5.392  1.00148.93    -0.171 OA
ENDROOT
BRANCH  10  12
HETATM   12  C18 MIQ B 502     -12.545 -15.251   2.827  1.00139.82     0.187 C 
HETATM   13  C19 MIQ B 502     -12.874 -16.263   3.931  1.00140.06     0.247 C 
HETATM   14  O25 MIQ B 502     -14.000 -16.548   4.135  1.00143.95    -0.271 OA
HETATM   15  N20 MIQ B 502     -11.837 -16.886   4.730  1.00140.02    -0.296 N 
HETATM   16  H13 MIQ B 502     -12.065 -17.540   5.452  1.00142.77     0.171 HD
HETATM   17  C21 MIQ B 502     -10.471 -16.514   4.469  1.00142.22     0.224 C 
HETATM   18  C22 MIQ B 502     -10.226 -15.083   4.031  1.00139.52     0.106 C 
HETATM   19  O24 MIQ B 502      -9.586 -17.289   4.587  1.00146.13    -0.273 OA
HETATM   20  C23 MIQ B 502     -11.068 -14.863   2.787  1.00139.15     0.045 C 
ENDBRANCH  10  12
BRANCH   5  21
HETATM   21  N6  MIQ B 502     -17.128  -9.249   2.527  1.00140.95    -0.377 N 
HETATM   22  C7  MIQ B 502     -16.863  -7.852   2.823  1.00142.12     0.149 C 
HETATM   23  C8  MIQ B 502     -18.135  -7.014   2.799  1.00144.10     0.187 C 
HETATM   24  O9  MIQ B 502     -18.918  -7.246   1.667  1.00148.65    -0.388 OA
HETATM   25  C10 MIQ B 502     -18.626  -8.312   0.811  1.00147.44     0.187 C 
HETATM   26  C11 MIQ B 502     -17.987  -9.565   1.399  1.00144.08     0.149 C 
ENDBRANCH   5  21
TORSDOF 2
ENDMDL
MODEL 7
REMARK VINA RESULT:      -6.3      3.530      5.506
REMARK  2 active torsions:
REMARK  status: ('A' for Active; 'I' for Inactive)
REMARK    1  A    between atoms: C5_5  and  N6_21 
REMARK    2  A    between atoms: C18_14  and  N17_19 
ROOT
HETATM    1  O1  MIQ B 502     -19.739  -0.773  -0.727  1.00142.91    -0.171 OA
HETATM    2  C2  MIQ B 502     -19.822   0.562  -1.126  1.00141.17     0.195 A 
HETATM    3  C3  MIQ B 502     -19.596   1.108  -2.572  1.00141.71     0.035 A 
HETATM    4  C4  MIQ B 502     -19.257   0.464  -3.863  1.00142.86     0.046 A 
HETATM    5  C5  MIQ B 502     -19.115   1.245  -5.038  1.00139.53     0.031 A 
HETATM    6  C12 MIQ B 502     -19.304   2.687  -4.975  1.00139.38     0.030 A 
HETATM    7  C13 MIQ B 502     -19.630   3.305  -3.738  1.00141.18     0.019 A 
HETATM    8  C14 MIQ B 502     -19.780   2.480  -2.508  1.00138.77     0.033 A 
HETATM    9  C15 MIQ B 502     -20.124   2.787  -1.014  1.00142.10     0.195 A 
HETATM   10  N17 MIQ B 502     -20.109   1.621  -0.388  1.00139.42    -0.288 N 
HETATM   11  O16 MIQ B 502     -20.390   4.039  -0.457  1.00148.93    -0.171 OA
ENDROOT
BRANCH  10  12
HETATM   12  C18 MIQ B 502     -20.371   1.522   1.035  1.00139.82     0.187 C 
HETATM   13  C19 MIQ B 502     -19.208   0.753   1.673  1.00140.06     0.247 C 
HETATM   14  O25 MIQ B 502     -18.101   1.097   1.453  1.00143.95    -0.271 OA
HETATM   15  N20 MIQ B 502     -19.429  -0.382   2.546  1.00140.02    -0.296 N 
HETATM   16  H13 MIQ B 502     -18.661  -0.879   2.951  1.00142.77     0.171 HD
HETATM   17  C21 MIQ B 502     -20.789  -0.789   2.791  1.00142.22     0.224 C 
HETATM   18  C22 MIQ B 502     -21.772  -0.604   1.651  1.00139.52     0.106 C 
HETATM   19  O24 MIQ B 502     -21.121  -1.239   3.832  1.00146.13    -0.273 OA
HETATM   20  C23 MIQ B 502     -21.730   0.868   1.281  1.00139.15     0.045 C 
ENDBRANCH  10  12
BRANCH   5  21
HETATM   21  N6  MIQ B 502     -18.768   0.602  -6.293  1.00140.95    -0.377 N 
HETATM   22  C7  MIQ B 502     -18.517  -0.829  -6.294  1.00142.12     0.149 C 
HETATM   23  C8  MIQ B 502     -17.582  -1.241  -7.425  1.00144.10     0.187 C 
HETATM   24  O9  MIQ B 502     -17.948  -0.698  -8.658  1.00148.65    -0.388 OA
HETATM   25  C10 MIQ B 502     -18.931   0.293  -8.731  1.00147.44     0.187 C 
HETATM   26  C11 MIQ B 502     -19.093   1.248  -7.553  1.00144.08     0.149 C 
ENDBRANCH   5  21
TORSDOF 2
ENDMDL
MODEL 8
REMARK VINA RESULT:      -6.3      3.098      5.194
REMARK  2 active torsions:
REMARK  status: ('A' for Active; 'I' for Inactive)
REMARK    1  A    between atoms: C5_5  and  N6_21 
REMARK    2  A    between atoms: C18_14  and  N17_19 
ROOT
HETATM    1  O1  MIQ B 502     -19.572   3.883  -1.568  1.00142.91    -0.171 OA
HETATM    2  C2  MIQ B 502     -19.943   2.555  -1.350  1.00141.17     0.195 A 
HETATM    3  C3  MIQ B 502     -19.811   1.380  -2.371  1.00141.71     0.035 A 
HETATM    4  C4  MIQ B 502     -19.300   1.290  -3.759  1.00142.86     0.046 A 
HETATM    5  C5  MIQ B 502     -19.307   0.050  -4.447  1.00139.53     0.031 A 
HETATM    6  C12 MIQ B 502     -19.819  -1.140  -3.784  1.00139.38     0.030 A 
HETATM    7  C13 MIQ B 502     -20.308  -1.055  -2.453  1.00141.18     0.019 A 
HETATM    8  C14 MIQ B 502     -20.296   0.249  -1.735  1.00138.77     0.033 A 
HETATM    9  C15 MIQ B 502     -20.732   0.724  -0.310  1.00142.10     0.195 A 
HETATM   10  N17 MIQ B 502     -20.468   2.019  -0.260  1.00139.42    -0.288 N 
HETATM   11  O16 MIQ B 502     -21.288  -0.063   0.699  1.00148.93    -0.171 OA
ENDROOT
BRANCH  10  12
HETATM   12  C18 MIQ B 502     -20.761   2.807   0.923  1.00139.82     0.187 C 
HETATM   13  C19 MIQ B 502     -21.494   4.076   0.470  1.00140.06     0.247 C 
HETATM   14  O25 MIQ B 502     -22.433   3.977  -0.237  1.00143.95    -0.271 OA
HETATM   15  N20 MIQ B 502     -21.069   5.395   0.891  1.00140.02    -0.296 N 
HETATM   16  H13 MIQ B 502     -21.552   6.216   0.583  1.00142.77     0.171 HD
HETATM   17  C21 MIQ B 502     -19.913   5.490   1.746  1.00142.22     0.224 C 
HETATM   18  C22 MIQ B 502     -18.823   4.458   1.535  1.00139.52     0.106 C 
HETATM   19  O24 MIQ B 502     -19.825   6.329   2.574  1.00146.13    -0.273 OA
HETATM   20  C23 MIQ B 502     -19.477   3.099   1.699  1.00139.15     0.045 C 
ENDBRANCH  10  12
BRANCH   5  21
HETATM   21  N6  MIQ B 502     -18.817  -0.020  -5.812  1.00140.95    -0.377 N 
HETATM   22  C7  MIQ B 502     -18.537  -1.326  -6.382  1.00142.12     0.149 C 
HETATM   23  C8  MIQ B 502     -17.481  -1.254  -7.477  1.00144.10     0.187 C 
HETATM   24  O9  MIQ B 502     -17.727  -0.238  -8.403  1.00148.65    -0.388 OA
HETATM   25  C10 MIQ B 502     -18.717   0.717  -8.160  1.00147.44     0.187 C 
HETATM   26  C11 MIQ B 502     -19.023   1.098  -6.715  1.00144.08     0.149 C 
ENDBRANCH   5  21
TORSDOF 2
ENDMDL
MODEL 9
REMARK VINA RESULT:      -6.3     13.340     16.131
REMARK  2 active torsions:
REMARK  status: ('A' for Active; 'I' for Inactive)
REMARK    1  A    between atoms: C5_5  and  N6_21 
REMARK    2  A    between atoms: C18_14  and  N17_19 
ROOT
HETATM    1  O1  MIQ B 502     -15.416 -10.255   4.623  1.00142.91    -0.171 OA
HETATM    2  C2  MIQ B 502     -15.536 -10.695   3.303  1.00141.17     0.195 A 
HETATM    3  C3  MIQ B 502     -16.619 -10.239   2.274  1.00141.71     0.035 A 
HETATM    4  C4  MIQ B 502     -17.755  -9.290   2.344  1.00142.86     0.046 A 
HETATM    5  C5  MIQ B 502     -18.584  -9.080   1.213  1.00139.53     0.031 A 
HETATM    6  C12 MIQ B 502     -18.316  -9.801  -0.023  1.00139.38     0.030 A 
HETATM    7  C13 MIQ B 502     -17.226 -10.710  -0.091  1.00141.18     0.019 A 
HETATM    8  C14 MIQ B 502     -16.358 -10.924   1.099  1.00138.77     0.033 A 
HETATM    9  C15 MIQ B 502     -15.105 -11.810   1.400  1.00142.10     0.195 A 
HETATM   10  N17 MIQ B 502     -14.776 -11.563   2.657  1.00139.42    -0.288 N 
HETATM   11  O16 MIQ B 502     -14.468 -12.685   0.518  1.00148.93    -0.171 OA
ENDROOT
BRANCH  10  12
HETATM   12  C18 MIQ B 502     -13.654 -12.229   3.291  1.00139.82     0.187 C 
HETATM   13  C19 MIQ B 502     -12.446 -12.104   2.356  1.00140.06     0.247 C 
HETATM   14  O25 MIQ B 502     -12.148 -11.041   1.938  1.00143.95    -0.271 OA
HETATM   15  N20 MIQ B 502     -11.653 -13.254   1.973  1.00140.02    -0.296 N 
HETATM   16  H13 MIQ B 502     -10.871 -13.160   1.356  1.00142.77     0.171 HD
HETATM   17  C21 MIQ B 502     -12.042 -14.542   2.487  1.00142.22     0.224 C 
HETATM   18  C22 MIQ B 502     -13.527 -14.774   2.690  1.00139.52     0.106 C 
HETATM   19  O24 MIQ B 502     -11.242 -15.373   2.743  1.00146.13    -0.273 OA
HETATM   20  C23 MIQ B 502     -14.012 -13.677   3.620  1.00139.15     0.045 C 
ENDBRANCH  10  12
BRANCH   5  21
HETATM   21  N6  MIQ B 502     -19.702  -8.159   1.300  1.00140.95    -0.377 N 
HETATM   22  C7  MIQ B 502     -20.567  -8.004   0.143  1.00142.12     0.149 C 
HETATM   23  C8  MIQ B 502     -21.237  -6.637   0.112  1.00144.10     0.187 C 
HETATM   24  O9  MIQ B 502     -21.809  -6.284   1.336  1.00148.65    -0.388 OA
HETATM   25  C10 MIQ B 502     -21.553  -7.041   2.481  1.00147.44     0.187 C 
HETATM   26  C11 MIQ B 502     -20.209  -7.753   2.600  1.00144.08     0.149 C 
ENDBRANCH   5  21
TORSDOF 2
ENDMDL
