MODEL 1
REMARK VINA RESULT:      -6.5      0.000      0.000
REMARK  2 active torsions:
REMARK  status: ('A' for Active; 'I' for Inactive)
REMARK    1  A    between atoms: C5_5  and  N6_21 
REMARK    2  A    between atoms: C18_14  and  N17_19 
ROOT
HETATM    1  O1  MIQ B 502      21.998  -5.293  -9.501  1.00142.91    -0.171 OA
HETATM    2  C2  MIQ B 502      23.306  -4.807  -9.452  1.00141.17     0.195 A 
HETATM    3  C3  MIQ B 502      23.763  -3.450  -8.827  1.00141.71     0.035 A 
HETATM    4  C4  MIQ B 502      23.043  -2.347  -8.148  1.00142.86     0.046 A 
HETATM    5  C5  MIQ B 502      23.751  -1.214  -7.674  1.00139.53     0.031 A 
HETATM    6  C12 MIQ B 502      25.193  -1.135  -7.856  1.00139.38     0.030 A 
HETATM    7  C13 MIQ B 502      25.884  -2.193  -8.506  1.00141.18     0.019 A 
HETATM    8  C14 MIQ B 502      25.136  -3.381  -8.999  1.00138.77     0.033 A 
HETATM    9  C15 MIQ B 502      25.533  -4.702  -9.735  1.00142.10     0.195 A 
HETATM   10  N17 MIQ B 502      24.409  -5.377  -9.907  1.00139.42    -0.288 N 
HETATM   11  O16 MIQ B 502      26.816  -5.085 -10.130  1.00148.93    -0.171 OA
ENDROOT
BRANCH  10  12
HETATM   12  C18 MIQ B 502      24.392  -6.663 -10.580  1.00139.82     0.187 C 
HETATM   13  C19 MIQ B 502      23.378  -6.577 -11.727  1.00140.06     0.247 C 
HETATM   14  O25 MIQ B 502      23.448  -5.681 -12.492  1.00143.95    -0.271 OA
HETATM   15  N20 MIQ B 502      22.339  -7.570 -11.903  1.00140.02    -0.296 N 
HETATM   16  H13 MIQ B 502      21.679  -7.500 -12.653  1.00142.77     0.171 HD
HETATM   17  C21 MIQ B 502      22.268  -8.649 -10.951  1.00142.22     0.224 C 
HETATM   18  C22 MIQ B 502      22.666  -8.325  -9.524  1.00139.52     0.106 C 
HETATM   19  O24 MIQ B 502      21.921  -9.733 -11.270  1.00146.13    -0.273 OA
HETATM   20  C23 MIQ B 502      24.081  -7.779  -9.584  1.00139.15     0.045 C 
ENDBRANCH  10  12
BRANCH   5  21
HETATM   21  N6  MIQ B 502      23.031  -0.134  -7.024  1.00140.95    -0.377 N 
HETATM   22  C7  MIQ B 502      23.506   0.341  -5.736  1.00142.12     0.149 C 
HETATM   23  C8  MIQ B 502      22.384   0.952  -4.906  1.00144.10     0.187 C 
HETATM   24  O9  MIQ B 502      21.607   1.860  -5.627  1.00148.65    -0.388 OA
HETATM   25  C10 MIQ B 502      21.749   1.969  -7.012  1.00147.44     0.187 C 
HETATM   26  C11 MIQ B 502      22.165   0.733  -7.803  1.00144.08     0.149 C 
ENDBRANCH   5  21
TORSDOF 2
ENDMDL
MODEL 2
REMARK VINA RESULT:      -6.1     21.221     22.512
REMARK  2 active torsions:
REMARK  status: ('A' for Active; 'I' for Inactive)
REMARK    1  A    between atoms: C5_5  and  N6_21 
REMARK    2  A    between atoms: C18_14  and  N17_19 
ROOT
HETATM    1  O1  MIQ B 502       2.824  -2.368 -14.904  1.00142.91    -0.171 OA
HETATM    2  C2  MIQ B 502       2.842  -1.932 -16.231  1.00141.17     0.195 A 
HETATM    3  C3  MIQ B 502       2.576  -0.475 -16.726  1.00141.71     0.035 A 
HETATM    4  C4  MIQ B 502       2.254   0.794 -16.032  1.00142.86     0.046 A 
HETATM    5  C5  MIQ B 502       2.065   1.988 -16.773  1.00139.53     0.031 A 
HETATM    6  C12 MIQ B 502       2.188   1.966 -18.224  1.00139.38     0.030 A 
HETATM    7  C13 MIQ B 502       2.498   0.749 -18.889  1.00141.18     0.019 A 
HETATM    8  C14 MIQ B 502       2.698  -0.501 -18.106  1.00138.77     0.033 A 
HETATM    9  C15 MIQ B 502       3.042  -1.982 -18.469  1.00142.10     0.195 A 
HETATM   10  N17 MIQ B 502       3.087  -2.638 -17.321  1.00139.42    -0.288 N 
HETATM   11  O16 MIQ B 502       3.255  -2.502 -19.747  1.00148.93    -0.171 OA
ENDROOT
BRANCH  10  12
HETATM   12  C18 MIQ B 502       3.368  -4.061 -17.273  1.00139.82     0.187 C 
HETATM   13  C19 MIQ B 502       2.306  -4.718 -16.383  1.00140.06     0.247 C 
HETATM   14  O25 MIQ B 502       1.165  -4.502 -16.592  1.00143.95    -0.271 OA
HETATM   15  N20 MIQ B 502       2.664  -5.603 -15.293  1.00140.02    -0.296 N 
HETATM   16  H13 MIQ B 502       1.961  -6.021 -14.715  1.00142.77     0.171 HD
HETATM   17  C21 MIQ B 502       4.063  -5.844 -15.051  1.00142.22     0.224 C 
HETATM   18  C22 MIQ B 502       5.011  -4.694 -15.334  1.00139.52     0.106 C 
HETATM   19  O24 MIQ B 502       4.451  -6.888 -14.657  1.00146.13    -0.273 OA
HETATM   20  C23 MIQ B 502       4.795  -4.304 -16.785  1.00139.15     0.045 C 
ENDBRANCH  10  12
BRANCH   5  21
HETATM   21  N6  MIQ B 502       1.736   3.221 -16.082  1.00140.95    -0.377 N 
HETATM   22  C7  MIQ B 502       2.294   3.447 -14.760  1.00142.12     0.149 C 
HETATM   23  C8  MIQ B 502       1.419   4.371 -13.923  1.00144.10     0.187 C 
HETATM   24  O9  MIQ B 502       1.031   5.522 -14.611  1.00148.65    -0.388 OA
HETATM   25  C10 MIQ B 502       1.258   5.636 -15.985  1.00147.44     0.187 C 
HETATM   26  C11 MIQ B 502       1.253   4.367 -16.832  1.00144.08     0.149 C 
ENDBRANCH   5  21
TORSDOF 2
ENDMDL
MODEL 3
REMARK VINA RESULT:      -6.1      2.402      8.097
REMARK  2 active torsions:
REMARK  status: ('A' for Active; 'I' for Inactive)
REMARK    1  A    between atoms: C5_5  and  N6_21 
REMARK    2  A    between atoms: C18_14  and  N17_19 
ROOT
HETATM    1  O1  MIQ B 502      22.355  -1.000  -7.473  1.00142.91    -0.171 OA
HETATM    2  C2  MIQ B 502      23.656  -0.767  -7.922  1.00141.17     0.195 A 
HETATM    3  C3  MIQ B 502      24.411  -1.579  -9.023  1.00141.71     0.035 A 
HETATM    4  C4  MIQ B 502      24.040  -2.738  -9.868  1.00142.86     0.046 A 
HETATM    5  C5  MIQ B 502      24.964  -3.268 -10.804  1.00139.53     0.031 A 
HETATM    6  C12 MIQ B 502      26.284  -2.668 -10.935  1.00139.38     0.030 A 
HETATM    7  C13 MIQ B 502      26.640  -1.555 -10.126  1.00141.18     0.019 A 
HETATM    8  C14 MIQ B 502      25.665  -1.003  -9.146  1.00138.77     0.033 A 
HETATM    9  C15 MIQ B 502      25.688   0.174  -8.117  1.00142.10     0.195 A 
HETATM   10  N17 MIQ B 502      24.504   0.168  -7.528  1.00139.42    -0.288 N 
HETATM   11  O16 MIQ B 502      26.748   1.049  -7.872  1.00148.93    -0.171 OA
ENDROOT
BRANCH  10  12
HETATM   12  C18 MIQ B 502      24.169   1.125  -6.490  1.00139.82     0.187 C 
HETATM   13  C19 MIQ B 502      23.674   0.338  -5.270  1.00140.06     0.247 C 
HETATM   14  O25 MIQ B 502      24.328  -0.551  -4.854  1.00143.95    -0.271 OA
HETATM   15  N20 MIQ B 502      22.427   0.660  -4.608  1.00140.02    -0.296 N 
HETATM   16  H13 MIQ B 502      22.111   0.135  -3.816  1.00142.77     0.171 HD
HETATM   17  C21 MIQ B 502      21.641   1.743  -5.141  1.00142.22     0.224 C 
HETATM   18  C22 MIQ B 502      21.686   1.944  -6.643  1.00139.52     0.106 C 
HETATM   19  O24 MIQ B 502      20.997   2.443  -4.439  1.00146.13    -0.273 OA
HETATM   20  C23 MIQ B 502      23.147   2.135  -7.008  1.00139.15     0.045 C 
ENDBRANCH  10  12
BRANCH   5  21
HETATM   21  N6  MIQ B 502      24.592  -4.413 -11.616  1.00140.95    -0.377 N 
HETATM   22  C7  MIQ B 502      24.846  -5.745 -11.094  1.00142.12     0.149 C 
HETATM   23  C8  MIQ B 502      25.028  -6.767 -12.209  1.00144.10     0.187 C 
HETATM   24  O9  MIQ B 502      24.034  -6.688 -13.186  1.00148.65    -0.388 OA
HETATM   25  C10 MIQ B 502      23.140  -5.614 -13.201  1.00147.44     0.187 C 
HETATM   26  C11 MIQ B 502      23.615  -4.262 -12.679  1.00144.08     0.149 C 
ENDBRANCH   5  21
TORSDOF 2
ENDMDL
MODEL 4
REMARK VINA RESULT:      -6.0     16.411     18.642
REMARK  2 active torsions:
REMARK  status: ('A' for Active; 'I' for Inactive)
REMARK    1  A    between atoms: C5_5  and  N6_21 
REMARK    2  A    between atoms: C18_14  and  N17_19 
ROOT
HETATM    1  O1  MIQ B 502       9.658  -1.198 -18.936  1.00142.91    -0.171 OA
HETATM    2  C2  MIQ B 502       9.887  -2.504 -19.373  1.00141.17     0.195 A 
HETATM    3  C3  MIQ B 502       9.022  -3.758 -19.026  1.00141.71     0.035 A 
HETATM    4  C4  MIQ B 502       7.801  -3.959 -18.210  1.00142.86     0.046 A 
HETATM    5  C5  MIQ B 502       7.231  -5.251 -18.080  1.00139.53     0.031 A 
HETATM    6  C12 MIQ B 502       7.849  -6.384 -18.753  1.00139.38     0.030 A 
HETATM    7  C13 MIQ B 502       9.019  -6.191 -19.536  1.00141.18     0.019 A 
HETATM    8  C14 MIQ B 502       9.612  -4.833 -19.671  1.00138.77     0.033 A 
HETATM    9  C15 MIQ B 502      10.849  -4.243 -20.423  1.00142.10     0.195 A 
HETATM   10  N17 MIQ B 502      10.856  -2.948 -20.157  1.00139.42    -0.288 N 
HETATM   11  O16 MIQ B 502      11.761  -4.947 -21.212  1.00148.93    -0.171 OA
ENDROOT
BRANCH  10  12
HETATM   12  C18 MIQ B 502      11.886  -2.071 -20.682  1.00139.82     0.187 C 
HETATM   13  C19 MIQ B 502      12.514  -1.326 -19.499  1.00140.06     0.247 C 
HETATM   14  O25 MIQ B 502      12.894  -1.941 -18.566  1.00143.95    -0.271 OA
HETATM   15  N20 MIQ B 502      12.662   0.115 -19.495  1.00140.02    -0.296 N 
HETATM   16  H13 MIQ B 502      13.068   0.591 -18.713  1.00142.77     0.171 HD
HETATM   17  C21 MIQ B 502      12.182   0.845 -20.640  1.00142.22     0.224 C 
HETATM   18  C22 MIQ B 502      10.957   0.288 -21.339  1.00139.52     0.106 C 
HETATM   19  O24 MIQ B 502      12.721   1.827 -21.017  1.00146.13    -0.273 OA
HETATM   20  C23 MIQ B 502      11.300  -1.136 -21.739  1.00139.15     0.045 C 
ENDBRANCH  10  12
BRANCH   5  21
HETATM   21  N6  MIQ B 502       6.044  -5.436 -17.266  1.00140.95    -0.377 N 
HETATM   22  C7  MIQ B 502       5.568  -4.319 -16.468  1.00142.12     0.149 C 
HETATM   23  C8  MIQ B 502       4.790  -4.786 -15.244  1.00144.10     0.187 C 
HETATM   24  O9  MIQ B 502       3.831  -5.754 -15.547  1.00148.65    -0.388 OA
HETATM   25  C10 MIQ B 502       3.805  -6.355 -16.808  1.00147.44     0.187 C 
HETATM   26  C11 MIQ B 502       5.118  -6.513 -17.568  1.00144.08     0.149 C 
ENDBRANCH   5  21
TORSDOF 2
ENDMDL
MODEL 5
REMARK VINA RESULT:      -6.0      2.385      3.233
REMARK  2 active torsions:
REMARK  status: ('A' for Active; 'I' for Inactive)
REMARK    1  A    between atoms: C5_5  and  N6_21 
REMARK    2  A    between atoms: C18_14  and  N17_19 
ROOT
HETATM    1  O1  MIQ B 502      24.095  -7.019  -7.866  1.00142.91    -0.171 OA
HETATM    2  C2  MIQ B 502      24.331  -6.552  -9.161  1.00141.17     0.195 A 
HETATM    3  C3  MIQ B 502      24.311  -5.059  -9.621  1.00141.71     0.035 A 
HETATM    4  C4  MIQ B 502      24.067  -3.779  -8.915  1.00142.86     0.046 A 
HETATM    5  C5  MIQ B 502      24.120  -2.550  -9.621  1.00139.53     0.031 A 
HETATM    6  C12 MIQ B 502      24.417  -2.548 -11.046  1.00139.38     0.030 A 
HETATM    7  C13 MIQ B 502      24.653  -3.775 -11.722  1.00141.18     0.019 A 
HETATM    8  C14 MIQ B 502      24.598  -5.061 -10.976  1.00138.77     0.033 A 
HETATM    9  C15 MIQ B 502      24.797  -6.564 -11.360  1.00142.10     0.195 A 
HETATM   10  N17 MIQ B 502      24.618  -7.253 -10.244  1.00139.42    -0.288 N 
HETATM   11  O16 MIQ B 502      25.100  -7.071 -12.625  1.00148.93    -0.171 OA
ENDROOT
BRANCH  10  12
HETATM   12  C18 MIQ B 502      24.712  -8.700 -10.225  1.00139.82     0.187 C 
HETATM   13  C19 MIQ B 502      23.458  -9.241  -9.527  1.00140.06     0.247 C 
HETATM   14  O25 MIQ B 502      22.396  -8.874  -9.886  1.00143.95    -0.271 OA
HETATM   15  N20 MIQ B 502      23.540 -10.197  -8.442  1.00140.02    -0.296 N 
HETATM   16  H13 MIQ B 502      22.714 -10.537  -7.990  1.00142.77     0.171 HD
HETATM   17  C21 MIQ B 502      24.848 -10.622  -8.015  1.00142.22     0.224 C 
HETATM   18  C22 MIQ B 502      25.961  -9.596  -8.104  1.00139.52     0.106 C 
HETATM   19  O24 MIQ B 502      25.043 -11.719  -7.620  1.00146.13    -0.273 OA
HETATM   20  C23 MIQ B 502      26.011  -9.140  -9.551  1.00139.15     0.045 C 
ENDBRANCH  10  12
BRANCH   5  21
HETATM   21  N6  MIQ B 502      23.864  -1.305  -8.921  1.00140.95    -0.377 N 
HETATM   22  C7  MIQ B 502      24.223  -0.056  -9.570  1.00142.12     0.149 C 
HETATM   23  C8  MIQ B 502      24.513   1.047  -8.560  1.00144.10     0.187 C 
HETATM   24  O9  MIQ B 502      23.534   1.150  -7.571  1.00148.65    -0.388 OA
HETATM   25  C10 MIQ B 502      22.550   0.166  -7.445  1.00147.44     0.187 C 
HETATM   26  C11 MIQ B 502      22.896  -1.267  -7.838  1.00144.08     0.149 C 
ENDBRANCH   5  21
TORSDOF 2
ENDMDL
MODEL 6
REMARK VINA RESULT:      -6.0     19.186     21.325
REMARK  2 active torsions:
REMARK  status: ('A' for Active; 'I' for Inactive)
REMARK    1  A    between atoms: C5_5  and  N6_21 
REMARK    2  A    between atoms: C18_14  and  N17_19 
ROOT
HETATM    1  O1  MIQ B 502       4.902  -7.658 -14.903  1.00142.91    -0.171 OA
HETATM    2  C2  MIQ B 502       3.988  -6.783 -15.496  1.00141.17     0.195 A 
HETATM    3  C3  MIQ B 502       4.319  -5.678 -16.549  1.00141.71     0.035 A 
HETATM    4  C4  MIQ B 502       5.574  -5.237 -17.203  1.00142.86     0.046 A 
HETATM    5  C5  MIQ B 502       5.557  -4.177 -18.145  1.00139.53     0.031 A 
HETATM    6  C12 MIQ B 502       4.300  -3.521 -18.471  1.00139.38     0.030 A 
HETATM    7  C13 MIQ B 502       3.096  -3.944 -17.846  1.00141.18     0.019 A 
HETATM    8  C14 MIQ B 502       3.120  -5.058 -16.859  1.00138.77     0.033 A 
HETATM    9  C15 MIQ B 502       2.038  -5.784 -15.994  1.00142.10     0.195 A 
HETATM   10  N17 MIQ B 502       2.682  -6.709 -15.303  1.00139.42    -0.288 N 
HETATM   11  O16 MIQ B 502       0.670  -5.505 -15.960  1.00148.93    -0.171 OA
ENDROOT
BRANCH  10  12
HETATM   12  C18 MIQ B 502       1.990  -7.577 -14.369  1.00139.82     0.187 C 
HETATM   13  C19 MIQ B 502       2.737  -7.515 -13.031  1.00140.06     0.247 C 
HETATM   14  O25 MIQ B 502       2.982  -6.464 -12.556  1.00143.95    -0.271 OA
HETATM   15  N20 MIQ B 502       3.146  -8.715 -12.329  1.00140.02    -0.296 N 
HETATM   16  H13 MIQ B 502       3.639  -8.661 -11.460  1.00142.77     0.171 HD
HETATM   17  C21 MIQ B 502       2.845  -9.986 -12.934  1.00142.22     0.224 C 
HETATM   18  C22 MIQ B 502       2.868 -10.042 -14.449  1.00139.52     0.106 C 
HETATM   19  O24 MIQ B 502       2.587 -10.936 -12.280  1.00146.13    -0.273 OA
HETATM   20  C23 MIQ B 502       1.886  -8.992 -14.935  1.00139.15     0.045 C 
ENDBRANCH  10  12
BRANCH   5  21
HETATM   21  N6  MIQ B 502       6.796  -3.746 -18.767  1.00140.95    -0.377 N 
HETATM   22  C7  MIQ B 502       8.026  -3.833 -17.998  1.00142.12     0.149 C 
HETATM   23  C8  MIQ B 502       9.058  -2.813 -18.461  1.00144.10     0.187 C 
HETATM   24  O9  MIQ B 502       9.221  -2.794 -19.847  1.00148.65    -0.388 OA
HETATM   25  C10 MIQ B 502       8.334  -3.490 -20.673  1.00147.44     0.187 C 
HETATM   26  C11 MIQ B 502       6.890  -3.660 -20.214  1.00144.08     0.149 C 
ENDBRANCH   5  21
TORSDOF 2
ENDMDL
MODEL 7
REMARK VINA RESULT:      -6.0      2.141      2.642
REMARK  2 active torsions:
REMARK  status: ('A' for Active; 'I' for Inactive)
REMARK    1  A    between atoms: C5_5  and  N6_21 
REMARK    2  A    between atoms: C18_14  and  N17_19 
ROOT
HETATM    1  O1  MIQ B 502      22.209  -5.014  -9.258  1.00142.91    -0.171 OA
HETATM    2  C2  MIQ B 502      23.146  -4.131  -9.800  1.00141.17     0.195 A 
HETATM    3  C3  MIQ B 502      23.455  -2.687  -9.293  1.00141.71     0.035 A 
HETATM    4  C4  MIQ B 502      22.918  -1.860  -8.186  1.00142.86     0.046 A 
HETATM    5  C5  MIQ B 502      23.412  -0.548  -7.967  1.00139.53     0.031 A 
HETATM    6  C12 MIQ B 502      24.451  -0.013  -8.834  1.00139.38     0.030 A 
HETATM    7  C13 MIQ B 502      24.966  -0.807  -9.895  1.00141.18     0.019 A 
HETATM    8  C14 MIQ B 502      24.446  -2.183 -10.119  1.00138.77     0.033 A 
HETATM    9  C15 MIQ B 502      24.756  -3.322 -11.144  1.00142.10     0.195 A 
HETATM   10  N17 MIQ B 502      23.955  -4.326 -10.828  1.00139.42    -0.288 N 
HETATM   11  O16 MIQ B 502      25.687  -3.280 -12.183  1.00148.93    -0.171 OA
ENDROOT
BRANCH  10  12
HETATM   12  C18 MIQ B 502      23.955  -5.563 -11.586  1.00139.82     0.187 C 
HETATM   13  C19 MIQ B 502      25.394  -6.095 -11.613  1.00140.06     0.247 C 
HETATM   14  O25 MIQ B 502      25.988  -6.199 -10.600  1.00143.95    -0.271 OA
HETATM   15  N20 MIQ B 502      26.043  -6.478 -12.850  1.00140.02    -0.296 N 
HETATM   16  H13 MIQ B 502      26.985  -6.818 -12.855  1.00142.77     0.171 HD
HETATM   17  C21 MIQ B 502      25.300  -6.332 -14.075  1.00142.22     0.224 C 
HETATM   18  C22 MIQ B 502      24.329  -5.170 -14.148  1.00139.52     0.106 C 
HETATM   19  O24 MIQ B 502      25.439  -7.084 -14.976  1.00146.13    -0.273 OA
HETATM   20  C23 MIQ B 502      23.373  -5.333 -12.980  1.00139.15     0.045 C 
ENDBRANCH  10  12
BRANCH   5  21
HETATM   21  N6  MIQ B 502      22.867   0.256  -6.888  1.00140.95    -0.377 N 
HETATM   22  C7  MIQ B 502      23.551   0.254  -5.607  1.00142.12     0.149 C 
HETATM   23  C8  MIQ B 502      22.602   0.563  -4.455  1.00144.10     0.187 C 
HETATM   24  O9  MIQ B 502      21.796   1.676  -4.700  1.00148.65    -0.388 OA
HETATM   25  C10 MIQ B 502      21.748   2.250  -5.973  1.00147.44     0.187 C 
HETATM   26  C11 MIQ B 502      21.962   1.352  -7.187  1.00144.08     0.149 C 
ENDBRANCH   5  21
TORSDOF 2
ENDMDL
MODEL 8
REMARK VINA RESULT:      -6.0      2.310      3.202
REMARK  2 active torsions:
REMARK  status: ('A' for Active; 'I' for Inactive)
REMARK    1  A    between atoms: C5_5  and  N6_21 
REMARK    2  A    between atoms: C18_14  and  N17_19 
ROOT
HETATM    1  O1  MIQ B 502      25.769  -1.569 -11.662  1.00142.91    -0.171 OA
HETATM    2  C2  MIQ B 502      24.895  -1.959 -10.645  1.00141.17     0.195 A 
HETATM    3  C3  MIQ B 502      24.301  -1.034  -9.534  1.00141.71     0.035 A 
HETATM    4  C4  MIQ B 502      24.447   0.407  -9.223  1.00142.86     0.046 A 
HETATM    5  C5  MIQ B 502      23.763   0.975  -8.119  1.00139.53     0.031 A 
HETATM    6  C12 MIQ B 502      22.911   0.136  -7.288  1.00139.38     0.030 A 
HETATM    7  C13 MIQ B 502      22.770  -1.246  -7.587  1.00141.18     0.019 A 
HETATM    8  C14 MIQ B 502      23.489  -1.836  -8.748  1.00138.77     0.033 A 
HETATM    9  C15 MIQ B 502      23.578  -3.265  -9.375  1.00142.10     0.195 A 
HETATM   10  N17 MIQ B 502      24.391  -3.159 -10.413  1.00139.42    -0.288 N 
HETATM   11  O16 MIQ B 502      22.932  -4.417  -8.924  1.00148.93    -0.171 OA
ENDROOT
BRANCH  10  12
HETATM   12  C18 MIQ B 502      24.724  -4.307 -11.235  1.00139.82     0.187 C 
HETATM   13  C19 MIQ B 502      23.410  -4.961 -11.680  1.00140.06     0.247 C 
HETATM   14  O25 MIQ B 502      22.573  -4.293 -12.175  1.00143.95    -0.271 OA
HETATM   15  N20 MIQ B 502      23.169  -6.380 -11.514  1.00140.02    -0.296 N 
HETATM   16  H13 MIQ B 502      22.304  -6.793 -11.803  1.00142.77     0.171 HD
HETATM   17  C21 MIQ B 502      24.201  -7.172 -10.898  1.00142.22     0.224 C 
HETATM   18  C22 MIQ B 502      25.034  -6.494  -9.827  1.00139.52     0.106 C 
HETATM   19  O24 MIQ B 502      24.392  -8.294 -11.217  1.00146.13    -0.273 OA
HETATM   20  C23 MIQ B 502      25.641  -5.261 -10.471  1.00139.15     0.045 C 
ENDBRANCH  10  12
BRANCH   5  21
HETATM   21  N6  MIQ B 502      23.927   2.385  -7.817  1.00140.95    -0.377 N 
HETATM   22  C7  MIQ B 502      22.811   3.103  -7.224  1.00142.12     0.149 C 
HETATM   23  C8  MIQ B 502      22.855   4.591  -7.549  1.00144.10     0.187 C 
HETATM   24  O9  MIQ B 502      24.112   5.158  -7.332  1.00148.65    -0.388 OA
HETATM   25  C10 MIQ B 502      25.220   4.346  -7.074  1.00147.44     0.187 C 
HETATM   26  C11 MIQ B 502      25.259   2.949  -7.685  1.00144.08     0.149 C 
ENDBRANCH   5  21
TORSDOF 2
ENDMDL
MODEL 9
REMARK VINA RESULT:      -6.0     19.923     21.090
REMARK  2 active torsions:
REMARK  status: ('A' for Active; 'I' for Inactive)
REMARK    1  A    between atoms: C5_5  and  N6_21 
REMARK    2  A    between atoms: C18_14  and  N17_19 
ROOT
HETATM    1  O1  MIQ B 502       4.039  -4.661 -13.741  1.00142.91    -0.171 OA
HETATM    2  C2  MIQ B 502       4.195  -5.724 -14.633  1.00141.17     0.195 A 
HETATM    3  C3  MIQ B 502       4.619  -5.614 -16.132  1.00141.71     0.035 A 
HETATM    4  C4  MIQ B 502       4.962  -4.473 -17.014  1.00142.86     0.046 A 
HETATM    5  C5  MIQ B 502       5.318  -4.695 -18.368  1.00139.53     0.031 A 
HETATM    6  C12 MIQ B 502       5.347  -6.052 -18.894  1.00139.38     0.030 A 
HETATM    7  C13 MIQ B 502       5.020  -7.146 -18.049  1.00141.18     0.019 A 
HETATM    8  C14 MIQ B 502       4.649  -6.908 -16.628  1.00138.77     0.033 A 
HETATM    9  C15 MIQ B 502       4.242  -7.825 -15.429  1.00142.10     0.195 A 
HETATM   10  N17 MIQ B 502       4.029  -7.015 -14.405  1.00139.42    -0.288 N 
HETATM   11  O16 MIQ B 502       4.127  -9.216 -15.443  1.00148.93    -0.171 OA
ENDROOT
BRANCH  10  12
HETATM   12  C18 MIQ B 502       3.614  -7.524 -13.111  1.00139.82     0.187 C 
HETATM   13  C19 MIQ B 502       4.604  -8.621 -12.700  1.00140.06     0.247 C 
HETATM   14  O25 MIQ B 502       5.761  -8.396 -12.735  1.00143.95    -0.271 OA
HETATM   15  N20 MIQ B 502       4.157  -9.929 -12.266  1.00140.02    -0.296 N 
HETATM   16  H13 MIQ B 502       4.813 -10.639 -12.007  1.00142.77     0.171 HD
HETATM   17  C21 MIQ B 502       2.739 -10.184 -12.242  1.00142.22     0.224 C 
HETATM   18  C22 MIQ B 502       1.906  -9.499 -13.309  1.00139.52     0.106 C 
HETATM   19  O24 MIQ B 502       2.251 -10.888 -11.428  1.00146.13    -0.273 OA
HETATM   20  C23 MIQ B 502       2.167  -8.010 -13.169  1.00139.15     0.045 C 
ENDBRANCH  10  12
BRANCH   5  21
HETATM   21  N6  MIQ B 502       5.637  -3.567 -19.224  1.00140.95    -0.377 N 
HETATM   22  C7  MIQ B 502       6.891  -3.583 -19.957  1.00142.12     0.149 C 
HETATM   23  C8  MIQ B 502       7.391  -2.177 -20.261  1.00144.10     0.187 C 
HETATM   24  O9  MIQ B 502       6.399  -1.351 -20.794  1.00148.65    -0.388 OA
HETATM   25  C10 MIQ B 502       5.063  -1.762 -20.799  1.00147.44     0.187 C 
HETATM   26  C11 MIQ B 502       4.579  -2.684 -19.684  1.00144.08     0.149 C 
ENDBRANCH   5  21
TORSDOF 2
ENDMDL
