MODEL 1
REMARK VINA RESULT:      -7.6      0.000      0.000
REMARK  2 active torsions:
REMARK  status: ('A' for Active; 'I' for Inactive)
REMARK    1  A    between atoms: C5_5  and  N6_21 
REMARK    2  A    between atoms: C18_14  and  N17_19 
ROOT
HETATM    1  O1  MIQ B 502      -4.022   0.397  13.096  1.00142.91    -0.171 OA
HETATM    2  C2  MIQ B 502      -3.099  -0.487  13.659  1.00141.17     0.195 A 
HETATM    3  C3  MIQ B 502      -3.314  -2.015  13.902  1.00141.71     0.035 A 
HETATM    4  C4  MIQ B 502      -4.443  -2.939  13.642  1.00142.86     0.046 A 
HETATM    5  C5  MIQ B 502      -4.338  -4.312  13.980  1.00139.53     0.031 A 
HETATM    6  C12 MIQ B 502      -3.113  -4.816  14.584  1.00139.38     0.030 A 
HETATM    7  C13 MIQ B 502      -2.029  -3.930  14.832  1.00141.18     0.019 A 
HETATM    8  C14 MIQ B 502      -2.145  -2.490  14.473  1.00138.77     0.033 A 
HETATM    9  C15 MIQ B 502      -1.198  -1.251  14.585  1.00142.10     0.195 A 
HETATM   10  N17 MIQ B 502      -1.876  -0.228  14.090  1.00139.42    -0.288 N 
HETATM   11  O16 MIQ B 502       0.097  -1.232  15.106  1.00148.93    -0.171 OA
ENDROOT
BRANCH  10  12
HETATM   12  C18 MIQ B 502      -1.308   1.107  14.046  1.00139.82     0.187 C 
HETATM   13  C19 MIQ B 502      -2.264   2.046  14.792  1.00140.06     0.247 C 
HETATM   14  O25 MIQ B 502      -2.626   1.757  15.877  1.00143.95    -0.271 OA
HETATM   15  N20 MIQ B 502      -2.732   3.284  14.203  1.00140.02    -0.296 N 
HETATM   16  H13 MIQ B 502      -3.361   3.886  14.697  1.00142.77     0.171 HD
HETATM   17  C21 MIQ B 502      -2.284   3.610  12.874  1.00142.22     0.224 C 
HETATM   18  C22 MIQ B 502      -2.059   2.448  11.926  1.00139.52     0.106 C 
HETATM   19  O24 MIQ B 502      -2.097   4.729  12.542  1.00146.13    -0.273 OA
HETATM   20  C23 MIQ B 502      -1.056   1.530  12.600  1.00139.15     0.045 C 
ENDBRANCH  10  12
BRANCH   5  21
HETATM   21  N6  MIQ B 502      -5.458  -5.202  13.734  1.00140.95    -0.377 N 
HETATM   22  C7  MIQ B 502      -6.696  -4.637  13.227  1.00142.12     0.149 C 
HETATM   23  C8  MIQ B 502      -7.906  -5.478  13.616  1.00144.10     0.187 C 
HETATM   24  O9  MIQ B 502      -7.725  -6.839  13.367  1.00148.65    -0.388 OA
HETATM   25  C10 MIQ B 502      -6.465  -7.334  13.020  1.00147.44     0.187 C 
HETATM   26  C11 MIQ B 502      -5.228  -6.627  13.566  1.00144.08     0.149 C 
ENDBRANCH   5  21
TORSDOF 2
ENDMDL
MODEL 2
REMARK VINA RESULT:      -6.8      1.774      2.975
REMARK  2 active torsions:
REMARK  status: ('A' for Active; 'I' for Inactive)
REMARK    1  A    between atoms: C5_5  and  N6_21 
REMARK    2  A    between atoms: C18_14  and  N17_19 
ROOT
HETATM    1  O1  MIQ B 502       0.098  -1.381  15.150  1.00142.91    -0.171 OA
HETATM    2  C2  MIQ B 502      -1.198  -1.378  14.632  1.00141.17     0.195 A 
HETATM    3  C3  MIQ B 502      -2.144  -2.615  14.506  1.00141.71     0.035 A 
HETATM    4  C4  MIQ B 502      -2.000  -4.048  14.859  1.00142.86     0.046 A 
HETATM    5  C5  MIQ B 502      -3.063  -4.955  14.620  1.00139.53     0.031 A 
HETATM    6  C12 MIQ B 502      -4.302  -4.475  14.025  1.00139.38     0.030 A 
HETATM    7  C13 MIQ B 502      -4.441  -3.102  13.688  1.00141.18     0.019 A 
HETATM    8  C14 MIQ B 502      -3.322  -2.154  13.943  1.00138.77     0.033 A 
HETATM    9  C15 MIQ B 502      -3.108  -0.621  13.719  1.00142.10     0.195 A 
HETATM   10  N17 MIQ B 502      -1.887  -0.356  14.154  1.00139.42    -0.288 N 
HETATM   11  O16 MIQ B 502      -4.021   0.279  13.168  1.00148.93    -0.171 OA
ENDROOT
BRANCH  10  12
HETATM   12  C18 MIQ B 502      -1.333   0.984  14.086  1.00139.82     0.187 C 
HETATM   13  C19 MIQ B 502      -2.311   1.930  14.795  1.00140.06     0.247 C 
HETATM   14  O25 MIQ B 502      -2.686   1.662  15.881  1.00143.95    -0.271 OA
HETATM   15  N20 MIQ B 502      -2.783   3.148  14.169  1.00140.02    -0.296 N 
HETATM   16  H13 MIQ B 502      -3.426   3.754  14.640  1.00142.77     0.171 HD
HETATM   17  C21 MIQ B 502      -2.319   3.447  12.839  1.00142.22     0.224 C 
HETATM   18  C22 MIQ B 502      -2.067   2.265  11.924  1.00139.52     0.106 C 
HETATM   19  O24 MIQ B 502      -2.139   4.560  12.483  1.00146.13    -0.273 OA
HETATM   20  C23 MIQ B 502      -1.063   1.375  12.634  1.00139.15     0.045 C 
ENDBRANCH  10  12
BRANCH   5  21
HETATM   21  N6  MIQ B 502      -2.903  -6.358  14.957  1.00140.95    -0.377 N 
HETATM   22  C7  MIQ B 502      -3.559  -7.351  14.125  1.00142.12     0.149 C 
HETATM   23  C8  MIQ B 502      -3.858  -8.631  14.895  1.00144.10     0.187 C 
HETATM   24  O9  MIQ B 502      -2.762  -9.094  15.626  1.00148.65    -0.388 OA
HETATM   25  C10 MIQ B 502      -1.625  -8.297  15.777  1.00147.44     0.187 C 
HETATM   26  C11 MIQ B 502      -1.793  -6.781  15.793  1.00144.08     0.149 C 
ENDBRANCH   5  21
TORSDOF 2
ENDMDL
MODEL 3
REMARK VINA RESULT:      -6.8      2.171      8.059
REMARK  2 active torsions:
REMARK  status: ('A' for Active; 'I' for Inactive)
REMARK    1  A    between atoms: C5_5  and  N6_21 
REMARK    2  A    between atoms: C18_14  and  N17_19 
ROOT
HETATM    1  O1  MIQ B 502      -5.694  -3.208  12.768  1.00142.91    -0.171 OA
HETATM    2  C2  MIQ B 502      -4.535  -3.373  13.529  1.00141.17     0.195 A 
HETATM    3  C3  MIQ B 502      -3.478  -2.268  13.851  1.00141.71     0.035 A 
HETATM    4  C4  MIQ B 502      -3.365  -0.833  13.498  1.00142.86     0.046 A 
HETATM    5  C5  MIQ B 502      -2.260  -0.069  13.952  1.00139.53     0.031 A 
HETATM    6  C12 MIQ B 502      -1.232  -0.698  14.768  1.00139.38     0.030 A 
HETATM    7  C13 MIQ B 502      -1.341  -2.074  15.107  1.00141.18     0.019 A 
HETATM    8  C14 MIQ B 502      -2.504  -2.871  14.630  1.00138.77     0.033 A 
HETATM    9  C15 MIQ B 502      -2.959  -4.358  14.793  1.00142.10     0.195 A 
HETATM   10  N17 MIQ B 502      -4.097  -4.467  14.128  1.00139.42    -0.288 N 
HETATM   11  O16 MIQ B 502      -2.293  -5.363  15.497  1.00148.93    -0.171 OA
ENDROOT
BRANCH  10  12
HETATM   12  C18 MIQ B 502      -4.809  -5.729  14.047  1.00139.82     0.187 C 
HETATM   13  C19 MIQ B 502      -4.948  -6.279  15.472  1.00140.06     0.247 C 
HETATM   14  O25 MIQ B 502      -5.382  -5.582  16.319  1.00143.95    -0.271 OA
HETATM   15  N20 MIQ B 502      -4.567  -7.636  15.807  1.00140.02    -0.296 N 
HETATM   16  H13 MIQ B 502      -4.657  -7.981  16.743  1.00142.77     0.171 HD
HETATM   17  C21 MIQ B 502      -4.030  -8.464  14.759  1.00142.22     0.224 C 
HETATM   18  C22 MIQ B 502      -3.203  -7.767  13.695  1.00139.52     0.106 C 
HETATM   19  O24 MIQ B 502      -4.230  -9.628  14.727  1.00146.13    -0.273 OA
HETATM   20  C23 MIQ B 502      -4.088  -6.687  13.101  1.00139.15     0.045 C 
ENDBRANCH  10  12
BRANCH   5  21
HETATM   21  N6  MIQ B 502      -2.155   1.332  13.587  1.00140.95    -0.377 N 
HETATM   22  C7  MIQ B 502      -2.610   1.743  12.270  1.00142.12     0.149 C 
HETATM   23  C8  MIQ B 502      -1.890   2.995  11.784  1.00144.10     0.187 C 
HETATM   24  O9  MIQ B 502      -1.852   4.007  12.746  1.00148.65    -0.388 OA
HETATM   25  C10 MIQ B 502      -2.239   3.748  14.063  1.00147.44     0.187 C 
HETATM   26  C11 MIQ B 502      -2.030   2.344  14.622  1.00144.08     0.149 C 
ENDBRANCH   5  21
TORSDOF 2
ENDMDL
MODEL 4
REMARK VINA RESULT:      -6.6      2.044      8.085
REMARK  2 active torsions:
REMARK  status: ('A' for Active; 'I' for Inactive)
REMARK    1  A    between atoms: C5_5  and  N6_21 
REMARK    2  A    between atoms: C18_14  and  N17_19 
ROOT
HETATM    1  O1  MIQ B 502      -5.407  -4.263  13.208  1.00142.91    -0.171 OA
HETATM    2  C2  MIQ B 502      -4.449  -4.232  14.223  1.00141.17     0.195 A 
HETATM    3  C3  MIQ B 502      -3.514  -3.030  14.573  1.00141.71     0.035 A 
HETATM    4  C4  MIQ B 502      -3.350  -1.669  14.009  1.00142.86     0.046 A 
HETATM    5  C5  MIQ B 502      -2.392  -0.778  14.555  1.00139.53     0.031 A 
HETATM    6  C12 MIQ B 502      -1.566  -1.203  15.675  1.00139.38     0.030 A 
HETATM    7  C13 MIQ B 502      -1.723  -2.508  16.217  1.00141.18     0.019 A 
HETATM    8  C14 MIQ B 502      -2.733  -3.438  15.641  1.00138.77     0.033 A 
HETATM    9  C15 MIQ B 502      -3.185  -4.901  15.958  1.00142.10     0.195 A 
HETATM   10  N17 MIQ B 502      -4.140  -5.184  15.086  1.00139.42    -0.288 N 
HETATM   11  O16 MIQ B 502      -2.679  -5.735  16.956  1.00148.93    -0.171 OA
ENDROOT
BRANCH  10  12
HETATM   12  C18 MIQ B 502      -4.791  -6.481  15.072  1.00139.82     0.187 C 
HETATM   13  C19 MIQ B 502      -4.677  -7.046  13.651  1.00140.06     0.247 C 
HETATM   14  O25 MIQ B 502      -3.620  -7.079  13.128  1.00143.95    -0.271 OA
HETATM   15  N20 MIQ B 502      -5.831  -7.548  12.933  1.00140.02    -0.296 N 
HETATM   16  H13 MIQ B 502      -5.743  -7.908  12.004  1.00142.77     0.171 HD
HETATM   17  C21 MIQ B 502      -7.111  -7.488  13.589  1.00142.22     0.224 C 
HETATM   18  C22 MIQ B 502      -7.346  -6.313  14.520  1.00139.52     0.106 C 
HETATM   19  O24 MIQ B 502      -7.935  -8.317  13.413  1.00146.13    -0.273 OA
HETATM   20  C23 MIQ B 502      -6.236  -6.355  15.554  1.00139.15     0.045 C 
ENDBRANCH  10  12
BRANCH   5  21
HETATM   21  N6  MIQ B 502      -2.232   0.547  13.983  1.00140.95    -0.377 N 
HETATM   22  C7  MIQ B 502      -0.912   0.953  13.532  1.00142.12     0.149 C 
HETATM   23  C8  MIQ B 502      -0.737   2.466  13.575  1.00144.10     0.187 C 
HETATM   24  O9  MIQ B 502      -1.805   3.153  12.994  1.00148.65    -0.388 OA
HETATM   25  C10 MIQ B 502      -2.977   2.477  12.646  1.00147.44     0.187 C 
HETATM   26  C11 MIQ B 502      -3.388   1.259  13.468  1.00144.08     0.149 C 
ENDBRANCH   5  21
TORSDOF 2
ENDMDL
MODEL 5
REMARK VINA RESULT:      -6.5     16.989     19.290
REMARK  2 active torsions:
REMARK  status: ('A' for Active; 'I' for Inactive)
REMARK    1  A    between atoms: C5_5  and  N6_21 
REMARK    2  A    between atoms: C18_14  and  N17_19 
ROOT
HETATM    1  O1  MIQ B 502     -21.223  -5.186   6.189  1.00142.91    -0.171 OA
HETATM    2  C2  MIQ B 502     -19.873  -5.312   5.851  1.00141.17     0.195 A 
HETATM    3  C3  MIQ B 502     -18.971  -4.200   5.228  1.00141.71     0.035 A 
HETATM    4  C4  MIQ B 502     -19.214  -2.793   4.833  1.00142.86     0.046 A 
HETATM    5  C5  MIQ B 502     -18.168  -2.012   4.281  1.00139.53     0.031 A 
HETATM    6  C12 MIQ B 502     -16.847  -2.597   4.102  1.00139.38     0.030 A 
HETATM    7  C13 MIQ B 502     -16.613  -3.947   4.481  1.00141.18     0.019 A 
HETATM    8  C14 MIQ B 502     -17.715  -4.761   5.063  1.00138.77     0.033 A 
HETATM    9  C15 MIQ B 502     -17.838  -6.229   5.587  1.00142.10     0.195 A 
HETATM   10  N17 MIQ B 502     -19.091  -6.369   5.987  1.00139.42    -0.288 N 
HETATM   11  O16 MIQ B 502     -16.828  -7.192   5.620  1.00148.93    -0.171 OA
ENDROOT
BRANCH  10  12
HETATM   12  C18 MIQ B 502     -19.577  -7.626   6.526  1.00139.82     0.187 C 
HETATM   13  C19 MIQ B 502     -18.627  -8.051   7.652  1.00140.06     0.247 C 
HETATM   14  O25 MIQ B 502     -18.363  -7.279   8.505  1.00143.95    -0.271 OA
HETATM   15  N20 MIQ B 502     -18.048  -9.378   7.703  1.00140.02    -0.296 N 
HETATM   16  H13 MIQ B 502     -17.425  -9.641   8.441  1.00142.77     0.171 HD
HETATM   17  C21 MIQ B 502     -18.378 -10.298   6.646  1.00142.22     0.224 C 
HETATM   18  C22 MIQ B 502     -18.597  -9.703   5.268  1.00139.52     0.106 C 
HETATM   19  O24 MIQ B 502     -18.476 -11.459   6.845  1.00146.13    -0.273 OA
HETATM   20  C23 MIQ B 502     -19.698  -8.669   5.416  1.00139.15     0.045 C 
ENDBRANCH  10  12
BRANCH   5  21
HETATM   21  N6  MIQ B 502     -18.424  -0.639   3.885  1.00140.95    -0.377 N 
HETATM   22  C7  MIQ B 502     -17.295   0.261   3.729  1.00142.12     0.149 C 
HETATM   23  C8  MIQ B 502     -17.691   1.715   3.955  1.00144.10     0.187 C 
HETATM   24  O9  MIQ B 502     -18.845   2.078   3.259  1.00148.65    -0.388 OA
HETATM   25  C10 MIQ B 502     -19.630   1.106   2.634  1.00147.44     0.187 C 
HETATM   26  C11 MIQ B 502     -19.678  -0.293   3.239  1.00144.08     0.149 C 
ENDBRANCH   5  21
TORSDOF 2
ENDMDL
MODEL 6
REMARK VINA RESULT:      -6.4      3.841      9.495
REMARK  2 active torsions:
REMARK  status: ('A' for Active; 'I' for Inactive)
REMARK    1  A    between atoms: C5_5  and  N6_21 
REMARK    2  A    between atoms: C18_14  and  N17_19 
ROOT
HETATM    1  O1  MIQ B 502      -4.498  -8.547  14.611  1.00142.91    -0.171 OA
HETATM    2  C2  MIQ B 502      -5.033  -7.378  14.066  1.00141.17     0.195 A 
HETATM    3  C3  MIQ B 502      -4.397  -5.953  14.137  1.00141.71     0.035 A 
HETATM    4  C4  MIQ B 502      -3.150  -5.422  14.737  1.00142.86     0.046 A 
HETATM    5  C5  MIQ B 502      -2.835  -4.044  14.634  1.00139.53     0.031 A 
HETATM    6  C12 MIQ B 502      -3.742  -3.146  13.933  1.00139.38     0.030 A 
HETATM    7  C13 MIQ B 502      -4.937  -3.654  13.357  1.00141.18     0.019 A 
HETATM    8  C14 MIQ B 502      -5.261  -5.103  13.466  1.00138.77     0.033 A 
HETATM    9  C15 MIQ B 502      -6.440  -6.006  12.976  1.00142.10     0.195 A 
HETATM   10  N17 MIQ B 502      -6.157  -7.231  13.387  1.00139.42    -0.288 N 
HETATM   11  O16 MIQ B 502      -7.562  -5.596  12.253  1.00148.93    -0.171 OA
ENDROOT
BRANCH  10  12
HETATM   12  C18 MIQ B 502      -7.050  -8.343  13.121  1.00139.82     0.187 C 
HETATM   13  C19 MIQ B 502      -7.281  -9.084  14.444  1.00140.06     0.247 C 
HETATM   14  O25 MIQ B 502      -7.613  -8.471  15.396  1.00143.95    -0.271 OA
HETATM   15  N20 MIQ B 502      -7.110 -10.518  14.557  1.00140.02    -0.296 N 
HETATM   16  H13 MIQ B 502      -7.258 -10.988  15.428  1.00142.77     0.171 HD
HETATM   17  C21 MIQ B 502      -6.695 -11.242  13.383  1.00142.22     0.224 C 
HETATM   18  C22 MIQ B 502      -5.765 -10.518  12.430  1.00139.52     0.106 C 
HETATM   19  O24 MIQ B 502      -7.067 -12.344  13.174  1.00146.13    -0.273 OA
HETATM   20  C23 MIQ B 502      -6.473  -9.238  12.025  1.00139.15     0.045 C 
ENDBRANCH  10  12
BRANCH   5  21
HETATM   21  N6  MIQ B 502      -1.618  -3.535  15.239  1.00140.95    -0.377 N 
HETATM   22  C7  MIQ B 502      -0.757  -4.462  15.953  1.00142.12     0.149 C 
HETATM   23  C8  MIQ B 502       0.064  -3.763  17.028  1.00144.10     0.187 C 
HETATM   24  O9  MIQ B 502       0.690  -2.603  16.566  1.00148.65    -0.388 OA
HETATM   25  C10 MIQ B 502       0.364  -2.074  15.315  1.00147.44     0.187 C 
HETATM   26  C11 MIQ B 502      -1.051  -2.278  14.782  1.00144.08     0.149 C 
ENDBRANCH   5  21
TORSDOF 2
ENDMDL
MODEL 7
REMARK VINA RESULT:      -6.3      1.958      8.712
REMARK  2 active torsions:
REMARK  status: ('A' for Active; 'I' for Inactive)
REMARK    1  A    between atoms: C5_5  and  N6_21 
REMARK    2  A    between atoms: C18_14  and  N17_19 
ROOT
HETATM    1  O1  MIQ B 502      -7.086  -4.077  12.725  1.00142.91    -0.171 OA
HETATM    2  C2  MIQ B 502      -6.050  -4.761  13.366  1.00141.17     0.195 A 
HETATM    3  C3  MIQ B 502      -4.693  -4.148  13.838  1.00141.71     0.035 A 
HETATM    4  C4  MIQ B 502      -4.114  -2.785  13.775  1.00142.86     0.046 A 
HETATM    5  C5  MIQ B 502      -2.824  -2.530  14.304  1.00139.53     0.031 A 
HETATM    6  C12 MIQ B 502      -2.065  -3.613  14.913  1.00139.38     0.030 A 
HETATM    7  C13 MIQ B 502      -2.621  -4.919  14.975  1.00141.18     0.019 A 
HETATM    8  C14 MIQ B 502      -3.977  -5.181  14.420  1.00138.77     0.033 A 
HETATM    9  C15 MIQ B 502      -4.894  -6.442  14.309  1.00142.10     0.195 A 
HETATM   10  N17 MIQ B 502      -6.000  -6.038  13.706  1.00139.42    -0.288 N 
HETATM   11  O16 MIQ B 502      -4.600  -7.732  14.756  1.00148.93    -0.171 OA
ENDROOT
BRANCH  10  12
HETATM   12  C18 MIQ B 502      -7.085  -6.957  13.418  1.00139.82     0.187 C 
HETATM   13  C19 MIQ B 502      -7.405  -7.722  14.708  1.00140.06     0.247 C 
HETATM   14  O25 MIQ B 502      -7.593  -7.119  15.704  1.00143.95    -0.271 OA
HETATM   15  N20 MIQ B 502      -7.490  -9.168  14.737  1.00140.02    -0.296 N 
HETATM   16  H13 MIQ B 502      -7.694  -9.656  15.587  1.00142.77     0.171 HD
HETATM   17  C21 MIQ B 502      -7.247  -9.883  13.511  1.00142.22     0.224 C 
HETATM   18  C22 MIQ B 502      -6.231  -9.280  12.560  1.00139.52     0.106 C 
HETATM   19  O24 MIQ B 502      -7.817 -10.887  13.258  1.00146.13    -0.273 OA
HETATM   20  C23 MIQ B 502      -6.711  -7.873  12.253  1.00139.15     0.045 C 
ENDBRANCH  10  12
BRANCH   5  21
HETATM   21  N6  MIQ B 502      -2.263  -1.193  14.222  1.00140.95    -0.377 N 
HETATM   22  C7  MIQ B 502      -3.138  -0.095  13.851  1.00142.12     0.149 C 
HETATM   23  C8  MIQ B 502      -2.371   1.045  13.191  1.00144.10     0.187 C 
HETATM   24  O9  MIQ B 502      -1.223   1.408  13.898  1.00148.65    -0.388 OA
HETATM   25  C10 MIQ B 502      -0.762   0.617  14.953  1.00147.44     0.187 C 
HETATM   26  C11 MIQ B 502      -1.019  -0.886  14.905  1.00144.08     0.149 C 
ENDBRANCH   5  21
TORSDOF 2
ENDMDL
MODEL 8
REMARK VINA RESULT:      -6.3     20.762     24.214
REMARK  2 active torsions:
REMARK  status: ('A' for Active; 'I' for Inactive)
REMARK    1  A    between atoms: C5_5  and  N6_21 
REMARK    2  A    between atoms: C18_14  and  N17_19 
ROOT
HETATM    1  O1  MIQ B 502     -10.703  20.912  16.414  1.00142.91    -0.171 OA
HETATM    2  C2  MIQ B 502     -10.605  20.348  15.140  1.00141.17     0.195 A 
HETATM    3  C3  MIQ B 502      -9.685  20.845  13.980  1.00141.71     0.035 A 
HETATM    4  C4  MIQ B 502      -8.712  21.956  13.856  1.00142.86     0.046 A 
HETATM    5  C5  MIQ B 502      -8.008  22.161  12.642  1.00139.53     0.031 A 
HETATM    6  C12 MIQ B 502      -8.243  21.273  11.512  1.00139.38     0.030 A 
HETATM    7  C13 MIQ B 502      -9.175  20.206  11.631  1.00141.18     0.019 A 
HETATM    8  C14 MIQ B 502      -9.909  19.996  12.909  1.00138.77     0.033 A 
HETATM    9  C15 MIQ B 502     -10.974  18.965  13.407  1.00142.10     0.195 A 
HETATM   10  N17 MIQ B 502     -11.248  19.299  14.658  1.00139.42    -0.288 N 
HETATM   11  O16 MIQ B 502     -11.522  17.910  12.676  1.00148.93    -0.171 OA
ENDROOT
BRANCH  10  12
HETATM   12  C18 MIQ B 502     -12.220  18.561  15.443  1.00139.82     0.187 C 
HETATM   13  C19 MIQ B 502     -11.952  17.065  15.233  1.00140.06     0.247 C 
HETATM   14  O25 MIQ B 502     -10.859  16.650  15.382  1.00143.95    -0.271 OA
HETATM   15  N20 MIQ B 502     -13.008  16.145  14.861  1.00140.02    -0.296 N 
HETATM   16  H13 MIQ B 502     -12.819  15.173  14.721  1.00142.77     0.171 HD
HETATM   17  C21 MIQ B 502     -14.333  16.679  14.675  1.00142.22     0.224 C 
HETATM   18  C22 MIQ B 502     -14.428  18.086  14.118  1.00139.52     0.106 C 
HETATM   19  O24 MIQ B 502     -15.296  16.051  14.948  1.00146.13    -0.273 OA
HETATM   20  C23 MIQ B 502     -13.639  18.977  15.060  1.00139.15     0.045 C 
ENDBRANCH  10  12
BRANCH   5  21
HETATM   21  N6  MIQ B 502      -7.069  23.262  12.530  1.00140.95    -0.377 N 
HETATM   22  C7  MIQ B 502      -5.962  23.329  13.468  1.00142.12     0.149 C 
HETATM   23  C8  MIQ B 502      -5.476  24.758  13.673  1.00144.10     0.187 C 
HETATM   24  O9  MIQ B 502      -5.284  25.444  12.472  1.00148.65    -0.388 OA
HETATM   25  C10 MIQ B 502      -5.732  24.900  11.266  1.00147.44     0.187 C 
HETATM   26  C11 MIQ B 502      -6.966  24.003  11.285  1.00144.08     0.149 C 
ENDBRANCH   5  21
TORSDOF 2
ENDMDL
MODEL 9
REMARK VINA RESULT:      -6.3     20.748     23.899
REMARK  2 active torsions:
REMARK  status: ('A' for Active; 'I' for Inactive)
REMARK    1  A    between atoms: C5_5  and  N6_21 
REMARK    2  A    between atoms: C18_14  and  N17_19 
ROOT
HETATM    1  O1  MIQ B 502     -11.667  18.389  12.837  1.00142.91    -0.171 OA
HETATM    2  C2  MIQ B 502     -11.129  19.259  13.787  1.00141.17     0.195 A 
HETATM    3  C3  MIQ B 502     -10.065  20.372  13.521  1.00141.71     0.035 A 
HETATM    4  C4  MIQ B 502      -9.353  20.830  12.305  1.00142.86     0.046 A 
HETATM    5  C5  MIQ B 502      -8.420  21.895  12.380  1.00139.53     0.031 A 
HETATM    6  C12 MIQ B 502      -8.162  22.542  13.659  1.00139.38     0.030 A 
HETATM    7  C13 MIQ B 502      -8.846  22.104  14.824  1.00141.18     0.019 A 
HETATM    8  C14 MIQ B 502      -9.826  20.987  14.739  1.00138.77     0.033 A 
HETATM    9  C15 MIQ B 502     -10.746  20.251  15.768  1.00142.10     0.195 A 
HETATM   10  N17 MIQ B 502     -11.399  19.329  15.080  1.00139.42    -0.288 N 
HETATM   11  O16 MIQ B 502     -10.851  20.516  17.134  1.00148.93    -0.171 OA
ENDROOT
BRANCH  10  12
HETATM   12  C18 MIQ B 502     -12.344  18.433  15.720  1.00139.82     0.187 C 
HETATM   13  C19 MIQ B 502     -12.031  17.008  15.247  1.00140.06     0.247 C 
HETATM   14  O25 MIQ B 502     -10.924  16.607  15.320  1.00143.95    -0.271 OA
HETATM   15  N20 MIQ B 502     -13.060  16.137  14.717  1.00140.02    -0.296 N 
HETATM   16  H13 MIQ B 502     -12.842  15.211  14.406  1.00142.77     0.171 HD
HETATM   17  C21 MIQ B 502     -14.401  16.653  14.628  1.00142.22     0.224 C 
HETATM   18  C22 MIQ B 502     -14.543  18.133  14.331  1.00139.52     0.106 C 
HETATM   19  O24 MIQ B 502     -15.343  15.956  14.785  1.00146.13    -0.273 OA
HETATM   20  C23 MIQ B 502     -13.777  18.867  15.417  1.00139.15     0.045 C 
ENDBRANCH  10  12
BRANCH   5  21
HETATM   21  N6  MIQ B 502      -7.718  22.324  11.184  1.00140.95    -0.377 N 
HETATM   22  C7  MIQ B 502      -6.367  22.842  11.319  1.00142.12     0.149 C 
HETATM   23  C8  MIQ B 502      -6.013  23.807  10.195  1.00144.10     0.187 C 
HETATM   24  O9  MIQ B 502      -6.339  23.312   8.931  1.00148.65    -0.388 OA
HETATM   25  C10 MIQ B 502      -7.116  22.158   8.801  1.00147.44     0.187 C 
HETATM   26  C11 MIQ B 502      -8.148  21.849   9.880  1.00144.08     0.149 C 
ENDBRANCH   5  21
TORSDOF 2
ENDMDL
