MODEL 1
REMARK VINA RESULT:      -7.7      0.000      0.000
REMARK  2 active torsions:
REMARK  status: ('A' for Active; 'I' for Inactive)
REMARK    1  A    between atoms: C5_5  and  N6_21 
REMARK    2  A    between atoms: C18_14  and  N17_19 
ROOT
HETATM    1  O1  MIQ B 502       5.751  20.735   1.117  1.00142.91    -0.171 OA
HETATM    2  C2  MIQ B 502       6.919  21.351   0.662  1.00141.17     0.195 A 
HETATM    3  C3  MIQ B 502       7.038  22.806   0.106  1.00141.71     0.035 A 
HETATM    4  C4  MIQ B 502       6.061  23.901  -0.100  1.00142.86     0.046 A 
HETATM    5  C5  MIQ B 502       6.480  25.145  -0.637  1.00139.53     0.031 A 
HETATM    6  C12 MIQ B 502       7.879  25.346  -0.987  1.00139.38     0.030 A 
HETATM    7  C13 MIQ B 502       8.817  24.296  -0.788  1.00141.18     0.019 A 
HETATM    8  C14 MIQ B 502       8.371  22.994  -0.222  1.00138.77     0.033 A 
HETATM    9  C15 MIQ B 502       9.084  21.648   0.133  1.00142.10     0.195 A 
HETATM   10  N17 MIQ B 502       8.142  20.851   0.611  1.00139.42    -0.288 N 
HETATM   11  O16 MIQ B 502      10.438  21.352  -0.027  1.00148.93    -0.171 OA
ENDROOT
BRANCH  10  12
HETATM   12  C18 MIQ B 502       8.440  19.495   1.033  1.00139.82     0.187 C 
HETATM   13  C19 MIQ B 502       9.351  19.579   2.264  1.00140.06     0.247 C 
HETATM   14  O25 MIQ B 502       9.032  20.263   3.171  1.00143.95    -0.271 OA
HETATM   15  N20 MIQ B 502      10.591  18.836   2.349  1.00140.02    -0.296 N 
HETATM   16  H13 MIQ B 502      11.180  18.904   3.155  1.00142.77     0.171 HD
HETATM   17  C21 MIQ B 502      10.964  18.016   1.225  1.00142.22     0.224 C 
HETATM   18  C22 MIQ B 502      10.563  18.519  -0.149  1.00139.52     0.106 C 
HETATM   19  O24 MIQ B 502      11.548  16.998   1.369  1.00146.13    -0.273 OA
HETATM   20  C23 MIQ B 502       9.057  18.703  -0.118  1.00139.15     0.045 C 
ENDBRANCH  10  12
BRANCH   5  21
HETATM   21  N6  MIQ B 502       5.510  26.203  -0.847  1.00140.95    -0.377 N 
HETATM   22  C7  MIQ B 502       5.985  27.505  -1.285  1.00142.12     0.149 C 
HETATM   23  C8  MIQ B 502       5.048  28.626  -0.855  1.00144.10     0.187 C 
HETATM   24  O9  MIQ B 502       3.709  28.354  -1.139  1.00148.65    -0.388 OA
HETATM   25  C10 MIQ B 502       3.318  27.078  -1.554  1.00147.44     0.187 C 
HETATM   26  C11 MIQ B 502       4.110  25.874  -1.053  1.00144.08     0.149 C 
ENDBRANCH   5  21
TORSDOF 2
ENDMDL
MODEL 2
REMARK VINA RESULT:      -7.2      3.732      7.753
REMARK  2 active torsions:
REMARK  status: ('A' for Active; 'I' for Inactive)
REMARK    1  A    between atoms: C5_5  and  N6_21 
REMARK    2  A    between atoms: C18_14  and  N17_19 
ROOT
HETATM    1  O1  MIQ B 502       5.387  19.812   0.925  1.00142.91    -0.171 OA
HETATM    2  C2  MIQ B 502       6.774  19.787   0.760  1.00141.17     0.195 A 
HETATM    3  C3  MIQ B 502       7.574  18.827  -0.177  1.00141.71     0.035 A 
HETATM    4  C4  MIQ B 502       7.175  17.743  -1.106  1.00142.86     0.046 A 
HETATM    5  C5  MIQ B 502       8.156  17.031  -1.841  1.00139.53     0.031 A 
HETATM    6  C12 MIQ B 502       9.563  17.370  -1.683  1.00139.38     0.030 A 
HETATM    7  C13 MIQ B 502       9.946  18.410  -0.795  1.00141.18     0.019 A 
HETATM    8  C14 MIQ B 502       8.911  19.155  -0.027  1.00138.77     0.033 A 
HETATM    9  C15 MIQ B 502       8.942  20.326   1.009  1.00142.10     0.195 A 
HETATM   10  N17 MIQ B 502       7.682  20.553   1.340  1.00139.42    -0.288 N 
HETATM   11  O16 MIQ B 502      10.073  20.990   1.487  1.00148.93    -0.171 OA
ENDROOT
BRANCH  10  12
HETATM   12  C18 MIQ B 502       7.325  21.576   2.306  1.00139.82     0.187 C 
HETATM   13  C19 MIQ B 502       7.945  22.898   1.837  1.00140.06     0.247 C 
HETATM   14  O25 MIQ B 502       7.764  23.258   0.728  1.00143.95    -0.271 OA
HETATM   15  N20 MIQ B 502       8.742  23.724   2.721  1.00140.02    -0.296 N 
HETATM   16  H13 MIQ B 502       9.147  24.581   2.400  1.00142.77     0.171 HD
HETATM   17  C21 MIQ B 502       8.958  23.258   4.067  1.00142.22     0.224 C 
HETATM   18  C22 MIQ B 502       9.058  21.758   4.261  1.00139.52     0.106 C 
HETATM   19  O24 MIQ B 502       9.046  24.011   4.974  1.00146.13    -0.273 OA
HETATM   20  C23 MIQ B 502       7.776  21.165   3.707  1.00139.15     0.045 C 
ENDBRANCH  10  12
BRANCH   5  21
HETATM   21  N6  MIQ B 502       7.752  15.962  -2.735  1.00140.95    -0.377 N 
HETATM   22  C7  MIQ B 502       6.820  16.267  -3.807  1.00142.12     0.149 C 
HETATM   23  C8  MIQ B 502       6.012  15.045  -4.224  1.00144.10     0.187 C 
HETATM   24  O9  MIQ B 502       6.804  13.913  -4.426  1.00148.65    -0.388 OA
HETATM   25  C10 MIQ B 502       8.148  13.911  -4.042  1.00147.44     0.187 C 
HETATM   26  C11 MIQ B 502       8.566  14.764  -2.848  1.00144.08     0.149 C 
ENDBRANCH   5  21
TORSDOF 2
ENDMDL
MODEL 3
REMARK VINA RESULT:      -7.1      1.589      2.627
REMARK  2 active torsions:
REMARK  status: ('A' for Active; 'I' for Inactive)
REMARK    1  A    between atoms: C5_5  and  N6_21 
REMARK    2  A    between atoms: C18_14  and  N17_19 
ROOT
HETATM    1  O1  MIQ B 502      10.711  24.506   0.840  1.00142.91    -0.171 OA
HETATM    2  C2  MIQ B 502       9.608  23.726   0.485  1.00141.17     0.195 A 
HETATM    3  C3  MIQ B 502       8.199  24.256   0.071  1.00141.71     0.035 A 
HETATM    4  C4  MIQ B 502       7.623  25.615  -0.073  1.00142.86     0.046 A 
HETATM    5  C5  MIQ B 502       6.275  25.782  -0.479  1.00139.53     0.031 A 
HETATM    6  C12 MIQ B 502       5.453  24.613  -0.756  1.00139.38     0.030 A 
HETATM    7  C13 MIQ B 502       6.005  23.311  -0.619  1.00141.18     0.019 A 
HETATM    8  C14 MIQ B 502       7.421  23.141  -0.195  1.00138.77     0.033 A 
HETATM    9  C15 MIQ B 502       8.354  21.911   0.055  1.00142.10     0.195 A 
HETATM   10  N17 MIQ B 502       9.524  22.408   0.421  1.00139.42    -0.288 N 
HETATM   11  O16 MIQ B 502       8.014  20.564  -0.080  1.00148.93    -0.171 OA
ENDROOT
BRANCH  10  12
HETATM   12  C18 MIQ B 502      10.642  21.546   0.753  1.00139.82     0.187 C 
HETATM   13  C19 MIQ B 502      10.783  20.509  -0.368  1.00140.06     0.247 C 
HETATM   14  O25 MIQ B 502      10.826  20.874  -1.488  1.00143.95    -0.271 OA
HETATM   15  N20 MIQ B 502      10.869  19.090  -0.089  1.00140.02    -0.296 N 
HETATM   16  H13 MIQ B 502      10.954  18.422  -0.830  1.00142.77     0.171 HD
HETATM   17  C21 MIQ B 502      10.803  18.667   1.287  1.00142.22     0.224 C 
HETATM   18  C22 MIQ B 502       9.927  19.491   2.211  1.00139.52     0.106 C 
HETATM   19  O24 MIQ B 502      11.407  17.728   1.674  1.00146.13    -0.273 OA
HETATM   20  C23 MIQ B 502      10.439  20.918   2.131  1.00139.15     0.045 C 
ENDBRANCH  10  12
BRANCH   5  21
HETATM   21  N6  MIQ B 502       5.720  27.118  -0.601  1.00140.95    -0.377 N 
HETATM   22  C7  MIQ B 502       6.397  28.076  -1.458  1.00142.12     0.149 C 
HETATM   23  C8  MIQ B 502       6.141  29.512  -1.019  1.00144.10     0.187 C 
HETATM   24  O9  MIQ B 502       4.790  29.775  -0.781  1.00148.65    -0.388 OA
HETATM   25  C10 MIQ B 502       3.863  28.730  -0.739  1.00147.44     0.187 C 
HETATM   26  C11 MIQ B 502       4.329  27.360  -0.259  1.00144.08     0.149 C 
ENDBRANCH   5  21
TORSDOF 2
ENDMDL
MODEL 4
REMARK VINA RESULT:      -7.0     18.518     20.215
REMARK  2 active torsions:
REMARK  status: ('A' for Active; 'I' for Inactive)
REMARK    1  A    between atoms: C5_5  and  N6_21 
REMARK    2  A    between atoms: C18_14  and  N17_19 
ROOT
HETATM    1  O1  MIQ B 502      -3.159  12.088 -14.733  1.00142.91    -0.171 OA
HETATM    2  C2  MIQ B 502      -3.081  12.823 -13.548  1.00141.17     0.195 A 
HETATM    3  C3  MIQ B 502      -1.784  13.422 -12.917  1.00141.71     0.035 A 
HETATM    4  C4  MIQ B 502      -0.358  13.416 -13.321  1.00142.86     0.046 A 
HETATM    5  C5  MIQ B 502       0.617  14.065 -12.522  1.00139.53     0.031 A 
HETATM    6  C12 MIQ B 502       0.213  14.742 -11.298  1.00139.38     0.030 A 
HETATM    7  C13 MIQ B 502      -1.154  14.749 -10.911  1.00141.18     0.019 A 
HETATM    8  C14 MIQ B 502      -2.173  14.068 -11.755  1.00138.77     0.033 A 
HETATM    9  C15 MIQ B 502      -3.722  13.869 -11.664  1.00142.10     0.195 A 
HETATM   10  N17 MIQ B 502      -4.063  13.165 -12.730  1.00139.42    -0.288 N 
HETATM   11  O16 MIQ B 502      -4.567  14.340 -10.658  1.00148.93    -0.171 OA
ENDROOT
BRANCH  10  12
HETATM   12  C18 MIQ B 502      -5.439  12.774 -12.971  1.00139.82     0.187 C 
HETATM   13  C19 MIQ B 502      -5.451  11.272 -13.282  1.00140.06     0.247 C 
HETATM   14  O25 MIQ B 502      -4.904  10.528 -12.549  1.00143.95    -0.271 OA
HETATM   15  N20 MIQ B 502      -6.122  10.739 -14.451  1.00140.02    -0.296 N 
HETATM   16  H13 MIQ B 502      -6.117   9.758 -14.646  1.00142.77     0.171 HD
HETATM   17  C21 MIQ B 502      -6.774  11.669 -15.336  1.00142.22     0.224 C 
HETATM   18  C22 MIQ B 502      -6.132  13.035 -15.483  1.00139.52     0.106 C 
HETATM   19  O24 MIQ B 502      -7.764  11.381 -15.915  1.00146.13    -0.273 OA
HETATM   20  C23 MIQ B 502      -6.046  13.623 -14.087  1.00139.15     0.045 C 
ENDBRANCH  10  12
BRANCH   5  21
HETATM   21  N6  MIQ B 502       2.012  14.038 -12.922  1.00140.95    -0.377 N 
HETATM   22  C7  MIQ B 502       2.338  14.266 -14.319  1.00142.12     0.149 C 
HETATM   23  C8  MIQ B 502       3.651  13.600 -14.712  1.00144.10     0.187 C 
HETATM   24  O9  MIQ B 502       4.683  13.860 -13.808  1.00148.65    -0.388 OA
HETATM   25  C10 MIQ B 502       4.413  14.470 -12.581  1.00147.44     0.187 C 
HETATM   26  C11 MIQ B 502       3.055  14.228 -11.929  1.00144.08     0.149 C 
ENDBRANCH   5  21
TORSDOF 2
ENDMDL
MODEL 5
REMARK VINA RESULT:      -6.8     21.517     23.156
REMARK  2 active torsions:
REMARK  status: ('A' for Active; 'I' for Inactive)
REMARK    1  A    between atoms: C5_5  and  N6_21 
REMARK    2  A    between atoms: C18_14  and  N17_19 
ROOT
HETATM    1  O1  MIQ B 502      -6.572  10.709 -15.267  1.00142.91    -0.171 OA
HETATM    2  C2  MIQ B 502      -6.912  11.788 -14.448  1.00141.17     0.195 A 
HETATM    3  C3  MIQ B 502      -5.935  12.600 -13.540  1.00141.71     0.035 A 
HETATM    4  C4  MIQ B 502      -4.480  12.512 -13.274  1.00142.86     0.046 A 
HETATM    5  C5  MIQ B 502      -3.859  13.415 -12.375  1.00139.53     0.031 A 
HETATM    6  C12 MIQ B 502      -4.657  14.436 -11.710  1.00139.38     0.030 A 
HETATM    7  C13 MIQ B 502      -6.052  14.521 -11.965  1.00141.18     0.019 A 
HETATM    8  C14 MIQ B 502      -6.698  13.572 -12.912  1.00138.77     0.033 A 
HETATM    9  C15 MIQ B 502      -8.157  13.361 -13.434  1.00142.10     0.195 A 
HETATM   10  N17 MIQ B 502      -8.100  12.341 -14.274  1.00139.42    -0.288 N 
HETATM   11  O16 MIQ B 502      -9.286  14.102 -13.080  1.00148.93    -0.171 OA
ENDROOT
BRANCH  10  12
HETATM   12  C18 MIQ B 502      -9.288  11.848 -14.947  1.00139.82     0.187 C 
HETATM   13  C19 MIQ B 502      -9.363  10.334 -14.713  1.00140.06     0.247 C 
HETATM   14  O25 MIQ B 502      -9.275   9.916 -13.613  1.00143.95    -0.271 OA
HETATM   15  N20 MIQ B 502      -9.546   9.400 -15.805  1.00140.02    -0.296 N 
HETATM   16  H13 MIQ B 502      -9.587   8.414 -15.640  1.00142.77     0.171 HD
HETATM   17  C21 MIQ B 502      -9.641   9.934 -17.140  1.00142.22     0.224 C 
HETATM   18  C22 MIQ B 502      -8.825  11.177 -17.436  1.00139.52     0.106 C 
HETATM   19  O24 MIQ B 502     -10.325   9.429 -17.960  1.00146.13    -0.273 OA
HETATM   20  C23 MIQ B 502      -9.256  12.226 -16.427  1.00139.15     0.045 C 
ENDBRANCH  10  12
BRANCH   5  21
HETATM   21  N6  MIQ B 502      -2.435  13.308 -12.113  1.00140.95    -0.377 N 
HETATM   22  C7  MIQ B 502      -1.804  14.317 -11.280  1.00142.12     0.149 C 
HETATM   23  C8  MIQ B 502      -0.324  14.475 -11.601  1.00144.10     0.187 C 
HETATM   24  O9  MIQ B 502       0.350  13.254 -11.673  1.00148.65    -0.388 OA
HETATM   25  C10 MIQ B 502      -0.362  12.052 -11.675  1.00147.44     0.187 C 
HETATM   26  C11 MIQ B 502      -1.760  12.034 -12.285  1.00144.08     0.149 C 
ENDBRANCH   5  21
TORSDOF 2
ENDMDL
MODEL 6
REMARK VINA RESULT:      -6.7      2.060      2.936
REMARK  2 active torsions:
REMARK  status: ('A' for Active; 'I' for Inactive)
REMARK    1  A    between atoms: C5_5  and  N6_21 
REMARK    2  A    between atoms: C18_14  and  N17_19 
ROOT
HETATM    1  O1  MIQ B 502       9.520  22.990   2.468  1.00142.91    -0.171 OA
HETATM    2  C2  MIQ B 502       8.422  22.820   1.621  1.00141.17     0.195 A 
HETATM    3  C3  MIQ B 502       7.716  23.938   0.790  1.00141.71     0.035 A 
HETATM    4  C4  MIQ B 502       7.950  25.393   0.634  1.00142.86     0.046 A 
HETATM    5  C5  MIQ B 502       7.120  26.165  -0.217  1.00139.53     0.031 A 
HETATM    6  C12 MIQ B 502       6.033  25.524  -0.942  1.00139.38     0.030 A 
HETATM    7  C13 MIQ B 502       5.809  24.128  -0.794  1.00141.18     0.019 A 
HETATM    8  C14 MIQ B 502       6.685  23.322   0.099  1.00138.77     0.033 A 
HETATM    9  C15 MIQ B 502       6.752  21.813   0.504  1.00142.10     0.195 A 
HETATM   10  N17 MIQ B 502       7.766  21.705   1.346  1.00139.42    -0.288 N 
HETATM   11  O16 MIQ B 502       5.908  20.792   0.064  1.00148.93    -0.171 OA
ENDROOT
BRANCH  10  12
HETATM   12  C18 MIQ B 502       8.120  20.433   1.947  1.00139.82     0.187 C 
HETATM   13  C19 MIQ B 502       8.315  20.664   3.450  1.00140.06     0.247 C 
HETATM   14  O25 MIQ B 502       7.473  21.221   4.061  1.00143.95    -0.271 OA
HETATM   15  N20 MIQ B 502       9.503  20.211   4.145  1.00140.02    -0.296 N 
HETATM   16  H13 MIQ B 502       9.621  20.374   5.125  1.00142.77     0.171 HD
HETATM   17  C21 MIQ B 502      10.520  19.543   3.375  1.00142.22     0.224 C 
HETATM   18  C22 MIQ B 502      10.703  20.004   1.942  1.00139.52     0.106 C 
HETATM   19  O24 MIQ B 502      11.176  18.676   3.839  1.00146.13    -0.273 OA
HETATM   20  C23 MIQ B 502       9.354  19.847   1.264  1.00139.15     0.045 C 
ENDBRANCH  10  12
BRANCH   5  21
HETATM   21  N6  MIQ B 502       7.351  27.592  -0.349  1.00140.95    -0.377 N 
HETATM   22  C7  MIQ B 502       6.311  28.412  -0.947  1.00142.12     0.149 C 
HETATM   23  C8  MIQ B 502       6.880  29.666  -1.598  1.00144.10     0.187 C 
HETATM   24  O9  MIQ B 502       7.777  30.348  -0.773  1.00148.65    -0.388 OA
HETATM   25  C10 MIQ B 502       8.236  29.762   0.409  1.00147.44     0.187 C 
HETATM   26  C11 MIQ B 502       8.357  28.243   0.472  1.00144.08     0.149 C 
ENDBRANCH   5  21
TORSDOF 2
ENDMDL
MODEL 7
REMARK VINA RESULT:      -6.7      2.867      4.394
REMARK  2 active torsions:
REMARK  status: ('A' for Active; 'I' for Inactive)
REMARK    1  A    between atoms: C5_5  and  N6_21 
REMARK    2  A    between atoms: C18_14  and  N17_19 
ROOT
HETATM    1  O1  MIQ B 502       9.206  24.540   2.310  1.00142.91    -0.171 OA
HETATM    2  C2  MIQ B 502       8.256  24.561   1.287  1.00141.17     0.195 A 
HETATM    3  C3  MIQ B 502       7.775  25.822   0.500  1.00141.71     0.035 A 
HETATM    4  C4  MIQ B 502       8.129  27.260   0.566  1.00142.86     0.046 A 
HETATM    5  C5  MIQ B 502       7.506  28.191  -0.303  1.00139.53     0.031 A 
HETATM    6  C12 MIQ B 502       6.514  27.731  -1.264  1.00139.38     0.030 A 
HETATM    7  C13 MIQ B 502       6.176  26.353  -1.328  1.00141.18     0.019 A 
HETATM    8  C14 MIQ B 502       6.834  25.379  -0.415  1.00138.77     0.033 A 
HETATM    9  C15 MIQ B 502       6.731  23.834  -0.197  1.00142.10     0.195 A 
HETATM   10  N17 MIQ B 502       7.582  23.545   0.775  1.00139.42    -0.288 N 
HETATM   11  O16 MIQ B 502       5.906  22.946  -0.887  1.00148.93    -0.171 OA
ENDROOT
BRANCH  10  12
HETATM   12  C18 MIQ B 502       7.744  22.188   1.261  1.00139.82     0.187 C 
HETATM   13  C19 MIQ B 502       8.239  21.328   0.091  1.00140.06     0.247 C 
HETATM   14  O25 MIQ B 502       9.174  21.687  -0.532  1.00143.95    -0.271 OA
HETATM   15  N20 MIQ B 502       7.593  20.082  -0.268  1.00140.02    -0.296 N 
HETATM   16  H13 MIQ B 502       7.922  19.534  -1.038  1.00142.77     0.171 HD
HETATM   17  C21 MIQ B 502       6.447  19.670   0.501  1.00142.22     0.224 C 
HETATM   18  C22 MIQ B 502       5.552  20.772   1.033  1.00139.52     0.106 C 
HETATM   19  O24 MIQ B 502       6.221  18.529   0.710  1.00146.13    -0.273 OA
HETATM   20  C23 MIQ B 502       6.437  21.681   1.868  1.00139.15     0.045 C 
ENDBRANCH  10  12
BRANCH   5  21
HETATM   21  N6  MIQ B 502       7.851  29.599  -0.218  1.00140.95    -0.377 N 
HETATM   22  C7  MIQ B 502       8.966  29.990   0.627  1.00142.12     0.149 C 
HETATM   23  C8  MIQ B 502       8.823  31.421   1.131  1.00144.10     0.187 C 
HETATM   24  O9  MIQ B 502       8.496  32.324   0.117  1.00148.65    -0.388 OA
HETATM   25  C10 MIQ B 502       8.124  31.863  -1.148  1.00147.44     0.187 C 
HETATM   26  C11 MIQ B 502       7.414  30.517  -1.254  1.00144.08     0.149 C 
ENDBRANCH   5  21
TORSDOF 2
ENDMDL
MODEL 8
REMARK VINA RESULT:      -6.7     20.940     22.627
REMARK  2 active torsions:
REMARK  status: ('A' for Active; 'I' for Inactive)
REMARK    1  A    between atoms: C5_5  and  N6_21 
REMARK    2  A    between atoms: C18_14  and  N17_19 
ROOT
HETATM    1  O1  MIQ B 502      -5.751  14.839 -15.847  1.00142.91    -0.171 OA
HETATM    2  C2  MIQ B 502      -5.827  13.713 -15.025  1.00141.17     0.195 A 
HETATM    3  C3  MIQ B 502      -4.751  13.252 -13.990  1.00141.71     0.035 A 
HETATM    4  C4  MIQ B 502      -3.436  13.797 -13.576  1.00142.86     0.046 A 
HETATM    5  C5  MIQ B 502      -2.669  13.139 -12.582  1.00139.53     0.031 A 
HETATM    6  C12 MIQ B 502      -3.176  11.922 -11.965  1.00139.38     0.030 A 
HETATM    7  C13 MIQ B 502      -4.437  11.400 -12.361  1.00141.18     0.019 A 
HETATM    8  C14 MIQ B 502      -5.240  12.096 -13.403  1.00138.77     0.033 A 
HETATM    9  C15 MIQ B 502      -6.627  11.838 -14.077  1.00142.10     0.195 A 
HETATM   10  N17 MIQ B 502      -6.801  12.822 -14.944  1.00139.42    -0.288 N 
HETATM   11  O16 MIQ B 502      -7.500  10.781 -13.814  1.00148.93    -0.171 OA
ENDROOT
BRANCH  10  12
HETATM   12  C18 MIQ B 502      -7.989  12.900 -15.774  1.00139.82     0.187 C 
HETATM   13  C19 MIQ B 502      -9.209  12.900 -14.845  1.00140.06     0.247 C 
HETATM   14  O25 MIQ B 502      -9.248  13.663 -13.946  1.00143.95    -0.271 OA
HETATM   15  N20 MIQ B 502     -10.319  11.991 -15.042  1.00140.02    -0.296 N 
HETATM   16  H13 MIQ B 502     -11.107  11.997 -14.425  1.00142.77     0.171 HD
HETATM   17  C21 MIQ B 502     -10.243  11.062 -16.140  1.00142.22     0.224 C 
HETATM   18  C22 MIQ B 502      -8.864  10.540 -16.496  1.00139.52     0.106 C 
HETATM   19  O24 MIQ B 502     -11.208  10.728 -16.735  1.00146.13    -0.273 OA
HETATM   20  C23 MIQ B 502      -8.005  11.757 -16.787  1.00139.15     0.045 C 
ENDBRANCH  10  12
BRANCH   5  21
HETATM   21  N6  MIQ B 502      -1.376  13.675 -12.197  1.00140.95    -0.377 N 
HETATM   22  C7  MIQ B 502      -0.256  13.509 -13.107  1.00142.12     0.149 C 
HETATM   23  C8  MIQ B 502       1.078  13.507 -12.373  1.00144.10     0.187 C 
HETATM   24  O9  MIQ B 502       1.200  14.559 -11.463  1.00148.65    -0.388 OA
HETATM   25  C10 MIQ B 502       0.092  15.347 -11.141  1.00147.44     0.187 C 
HETATM   26  C11 MIQ B 502      -1.293  14.711 -11.182  1.00144.08     0.149 C 
ENDBRANCH   5  21
TORSDOF 2
ENDMDL
MODEL 9
REMARK VINA RESULT:      -6.6      2.239      2.941
REMARK  2 active torsions:
REMARK  status: ('A' for Active; 'I' for Inactive)
REMARK    1  A    between atoms: C5_5  and  N6_21 
REMARK    2  A    between atoms: C18_14  and  N17_19 
ROOT
HETATM    1  O1  MIQ B 502       7.282  21.812  -0.289  1.00142.91    -0.171 OA
HETATM    2  C2  MIQ B 502       8.359  22.394   0.384  1.00141.17     0.195 A 
HETATM    3  C3  MIQ B 502       8.519  23.908   0.733  1.00141.71     0.035 A 
HETATM    4  C4  MIQ B 502       7.676  25.103   0.496  1.00142.86     0.046 A 
HETATM    5  C5  MIQ B 502       8.100  26.380   0.944  1.00139.53     0.031 A 
HETATM    6  C12 MIQ B 502       9.370  26.516   1.642  1.00139.38     0.030 A 
HETATM    7  C13 MIQ B 502      10.179  25.370   1.870  1.00141.18     0.019 A 
HETATM    8  C14 MIQ B 502       9.728  24.032   1.399  1.00138.77     0.033 A 
HETATM    9  C15 MIQ B 502      10.320  22.586   1.465  1.00142.10     0.195 A 
HETATM   10  N17 MIQ B 502       9.440  21.803   0.863  1.00139.42    -0.288 N 
HETATM   11  O16 MIQ B 502      11.533  22.205   2.042  1.00148.93    -0.171 OA
ENDROOT
BRANCH  10  12
HETATM   12  C18 MIQ B 502       9.668  20.377   0.720  1.00139.82     0.187 C 
HETATM   13  C19 MIQ B 502       9.900  20.087  -0.768  1.00140.06     0.247 C 
HETATM   14  O25 MIQ B 502      10.698  20.722  -1.361  1.00143.95    -0.271 OA
HETATM   15  N20 MIQ B 502       9.170  19.050  -1.467  1.00140.02    -0.296 N 
HETATM   16  H13 MIQ B 502       9.326  18.875  -2.440  1.00142.77     0.171 HD
HETATM   17  C21 MIQ B 502       8.194  18.295  -0.724  1.00142.22     0.224 C 
HETATM   18  C22 MIQ B 502       7.447  19.036   0.368  1.00139.52     0.106 C 
HETATM   19  O24 MIQ B 502       7.991  17.153  -0.953  1.00146.13    -0.273 OA
HETATM   20  C23 MIQ B 502       8.500  19.590   1.311  1.00139.15     0.045 C 
ENDBRANCH  10  12
BRANCH   5  21
HETATM   21  N6  MIQ B 502       7.270  27.544   0.692  1.00140.95    -0.377 N 
HETATM   22  C7  MIQ B 502       6.602  27.656  -0.593  1.00142.12     0.149 C 
HETATM   23  C8  MIQ B 502       6.334  29.107  -0.971  1.00144.10     0.187 C 
HETATM   24  O9  MIQ B 502       5.759  29.842   0.067  1.00148.65    -0.388 OA
HETATM   25  C10 MIQ B 502       5.683  29.307   1.356  1.00147.44     0.187 C 
HETATM   26  C11 MIQ B 502       6.764  28.329   1.804  1.00144.08     0.149 C 
ENDBRANCH   5  21
TORSDOF 2
ENDMDL
