MODEL 1
REMARK VINA RESULT:      -8.3      0.000      0.000
REMARK  2 active torsions:
REMARK  status: ('A' for Active; 'I' for Inactive)
REMARK    1  A    between atoms: C5_5  and  N6_21 
REMARK    2  A    between atoms: C18_14  and  N17_19 
ROOT
HETATM    1  O1  MIQ B 502       5.569   0.317 -20.507  1.00142.91    -0.171 OA
HETATM    2  C2  MIQ B 502       6.178   0.502 -21.750  1.00141.17     0.195 A 
HETATM    3  C3  MIQ B 502       5.446   0.726 -23.111  1.00141.71     0.035 A 
HETATM    4  C4  MIQ B 502       4.018   0.809 -23.498  1.00142.86     0.046 A 
HETATM    5  C5  MIQ B 502       3.653   1.027 -24.851  1.00139.53     0.031 A 
HETATM    6  C12 MIQ B 502       4.689   1.169 -25.864  1.00139.38     0.030 A 
HETATM    7  C13 MIQ B 502       6.058   1.090 -25.494  1.00141.18     0.019 A 
HETATM    8  C14 MIQ B 502       6.435   0.864 -24.071  1.00138.77     0.033 A 
HETATM    9  C15 MIQ B 502       7.789   0.726 -23.301  1.00142.10     0.195 A 
HETATM   10  N17 MIQ B 502       7.469   0.534 -22.032  1.00139.42    -0.288 N 
HETATM   11  O16 MIQ B 502       9.072   0.791 -23.848  1.00148.93    -0.171 OA
ENDROOT
BRANCH  10  12
HETATM   12  C18 MIQ B 502       8.487   0.346 -21.015  1.00139.82     0.187 C 
HETATM   13  C19 MIQ B 502       9.385   1.589 -21.017  1.00140.06     0.247 C 
HETATM   14  O25 MIQ B 502       8.890   2.658 -20.953  1.00143.95    -0.271 OA
HETATM   15  N20 MIQ B 502      10.829   1.488 -21.091  1.00140.02    -0.296 N 
HETATM   16  H13 MIQ B 502      11.404   2.308 -21.098  1.00142.77     0.171 HD
HETATM   17  C21 MIQ B 502      11.409   0.173 -21.180  1.00142.22     0.224 C 
HETATM   18  C22 MIQ B 502      10.614  -0.873 -21.936  1.00139.52     0.106 C 
HETATM   19  O24 MIQ B 502      12.452  -0.077 -20.682  1.00146.13    -0.273 OA
HETATM   20  C23 MIQ B 502       9.255  -0.951 -21.264  1.00139.15     0.045 C 
ENDBRANCH  10  12
BRANCH   5  21
HETATM   21  N6  MIQ B 502       2.251   1.092 -25.218  1.00140.95    -0.377 N 
HETATM   22  C7  MIQ B 502       1.253   1.045 -24.163  1.00142.12     0.149 C 
HETATM   23  C8  MIQ B 502      -0.073   0.485 -24.658  1.00144.10     0.187 C 
HETATM   24  O9  MIQ B 502      -0.497   1.067 -25.854  1.00148.65    -0.388 OA
HETATM   25  C10 MIQ B 502       0.363   1.894 -26.582  1.00147.44     0.187 C 
HETATM   26  C11 MIQ B 502       1.863   1.629 -26.511  1.00144.08     0.149 C 
ENDBRANCH   5  21
TORSDOF 2
ENDMDL
MODEL 2
REMARK VINA RESULT:      -8.0      5.379      8.420
REMARK  2 active torsions:
REMARK  status: ('A' for Active; 'I' for Inactive)
REMARK    1  A    between atoms: C5_5  and  N6_21 
REMARK    2  A    between atoms: C18_14  and  N17_19 
ROOT
HETATM    1  O1  MIQ B 502       5.237   0.301 -18.430  1.00142.91    -0.171 OA
HETATM    2  C2  MIQ B 502       6.177   1.300 -18.697  1.00141.17     0.195 A 
HETATM    3  C3  MIQ B 502       6.588   2.461 -17.737  1.00141.71     0.035 A 
HETATM    4  C4  MIQ B 502       6.168   2.849 -16.369  1.00142.86     0.046 A 
HETATM    5  C5  MIQ B 502       6.737   3.985 -15.740  1.00139.53     0.031 A 
HETATM    6  C12 MIQ B 502       7.740   4.773 -16.442  1.00139.38     0.030 A 
HETATM    7  C13 MIQ B 502       8.144   4.400 -17.752  1.00141.18     0.019 A 
HETATM    8  C14 MIQ B 502       7.544   3.206 -18.407  1.00138.77     0.033 A 
HETATM    9  C15 MIQ B 502       7.729   2.502 -19.791  1.00142.10     0.195 A 
HETATM   10  N17 MIQ B 502       6.904   1.468 -19.789  1.00139.42    -0.288 N 
HETATM   11  O16 MIQ B 502       8.589   2.893 -20.819  1.00148.93    -0.171 OA
ENDROOT
BRANCH  10  12
HETATM   12  C18 MIQ B 502       6.794   0.584 -20.934  1.00139.82     0.187 C 
HETATM   13  C19 MIQ B 502       8.215   0.233 -21.392  1.00140.06     0.247 C 
HETATM   14  O25 MIQ B 502       8.993  -0.166 -20.600  1.00143.95    -0.271 OA
HETATM   15  N20 MIQ B 502       8.629   0.373 -22.773  1.00140.02    -0.296 N 
HETATM   16  H13 MIQ B 502       9.561   0.147 -23.058  1.00142.77     0.171 HD
HETATM   17  C21 MIQ B 502       7.664   0.872 -23.719  1.00142.22     0.224 C 
HETATM   18  C22 MIQ B 502       6.665   1.889 -23.200  1.00139.52     0.106 C 
HETATM   19  O24 MIQ B 502       7.651   0.502 -24.841  1.00146.13    -0.273 OA
HETATM   20  C23 MIQ B 502       5.953   1.236 -22.030  1.00139.15     0.045 C 
ENDBRANCH  10  12
BRANCH   5  21
HETATM   21  N6  MIQ B 502       6.305   4.362 -14.406  1.00140.95    -0.377 N 
HETATM   22  C7  MIQ B 502       6.938   5.503 -13.768  1.00142.12     0.149 C 
HETATM   23  C8  MIQ B 502       6.895   5.401 -12.249  1.00144.10     0.187 C 
HETATM   24  O9  MIQ B 502       5.628   5.072 -11.762  1.00148.65    -0.388 OA
HETATM   25  C10 MIQ B 502       4.618   4.663 -12.637  1.00147.44     0.187 C 
HETATM   26  C11 MIQ B 502       5.012   3.923 -13.911  1.00144.08     0.149 C 
ENDBRANCH   5  21
TORSDOF 2
ENDMDL
MODEL 3
REMARK VINA RESULT:      -7.7     10.763     12.399
REMARK  2 active torsions:
REMARK  status: ('A' for Active; 'I' for Inactive)
REMARK    1  A    between atoms: C5_5  and  N6_21 
REMARK    2  A    between atoms: C18_14  and  N17_19 
ROOT
HETATM    1  O1  MIQ B 502       5.347   7.292 -16.141  1.00142.91    -0.171 OA
HETATM    2  C2  MIQ B 502       5.235   6.552 -14.962  1.00141.17     0.195 A 
HETATM    3  C3  MIQ B 502       4.511   7.005 -13.654  1.00141.71     0.035 A 
HETATM    4  C4  MIQ B 502       3.777   8.234 -13.270  1.00142.86     0.046 A 
HETATM    5  C5  MIQ B 502       3.212   8.356 -11.975  1.00139.53     0.031 A 
HETATM    6  C12 MIQ B 502       3.355   7.267 -11.019  1.00139.38     0.030 A 
HETATM    7  C13 MIQ B 502       4.058   6.089 -11.387  1.00141.18     0.019 A 
HETATM    8  C14 MIQ B 502       4.646   5.965 -12.749  1.00138.77     0.033 A 
HETATM    9  C15 MIQ B 502       5.459   4.860 -13.499  1.00142.10     0.195 A 
HETATM   10  N17 MIQ B 502       5.702   5.342 -14.707  1.00139.42    -0.288 N 
HETATM   11  O16 MIQ B 502       5.849   3.620 -12.991  1.00148.93    -0.171 OA
ENDROOT
BRANCH  10  12
HETATM   12  C18 MIQ B 502       6.458   4.584 -15.687  1.00139.82     0.187 C 
HETATM   13  C19 MIQ B 502       5.838   3.184 -15.776  1.00140.06     0.247 C 
HETATM   14  O25 MIQ B 502       4.675   3.079 -15.941  1.00143.95    -0.271 OA
HETATM   15  N20 MIQ B 502       6.643   1.985 -15.669  1.00140.02    -0.296 N 
HETATM   16  H13 MIQ B 502       6.225   1.077 -15.722  1.00142.77     0.171 HD
HETATM   17  C21 MIQ B 502       8.059   2.139 -15.457  1.00142.22     0.224 C 
HETATM   18  C22 MIQ B 502       8.498   3.330 -14.627  1.00139.52     0.106 C 
HETATM   19  O24 MIQ B 502       8.839   1.377 -15.913  1.00146.13    -0.273 OA
HETATM   20  C23 MIQ B 502       7.940   4.563 -15.313  1.00139.15     0.045 C 
ENDBRANCH  10  12
BRANCH   5  21
HETATM   21  N6  MIQ B 502       2.509   9.571 -11.606  1.00140.95    -0.377 N 
HETATM   22  C7  MIQ B 502       3.281  10.781 -11.384  1.00142.12     0.149 C 
HETATM   23  C8  MIQ B 502       2.580  11.737 -10.427  1.00144.10     0.187 C 
HETATM   24  O9  MIQ B 502       1.236  11.937 -10.748  1.00148.65    -0.388 OA
HETATM   25  C10 MIQ B 502       0.610  11.137 -11.708  1.00147.44     0.187 C 
HETATM   26  C11 MIQ B 502       1.089   9.700 -11.884  1.00144.08     0.149 C 
ENDBRANCH   5  21
TORSDOF 2
ENDMDL
MODEL 4
REMARK VINA RESULT:      -7.7     10.516     13.041
REMARK  2 active torsions:
REMARK  status: ('A' for Active; 'I' for Inactive)
REMARK    1  A    between atoms: C5_5  and  N6_21 
REMARK    2  A    between atoms: C18_14  and  N17_19 
ROOT
HETATM    1  O1  MIQ B 502       4.830   8.723 -15.274  1.00142.91    -0.171 OA
HETATM    2  C2  MIQ B 502       4.701   7.753 -14.276  1.00141.17     0.195 A 
HETATM    3  C3  MIQ B 502       5.303   6.313 -14.308  1.00141.71     0.035 A 
HETATM    4  C4  MIQ B 502       6.125   5.573 -15.295  1.00142.86     0.046 A 
HETATM    5  C5  MIQ B 502       6.531   4.240 -15.034  1.00139.53     0.031 A 
HETATM    6  C12 MIQ B 502       6.139   3.595 -13.789  1.00139.38     0.030 A 
HETATM    7  C13 MIQ B 502       5.352   4.305 -12.842  1.00141.18     0.019 A 
HETATM    8  C14 MIQ B 502       4.930   5.705 -13.120  1.00138.77     0.033 A 
HETATM    9  C15 MIQ B 502       4.092   6.775 -12.347  1.00142.10     0.195 A 
HETATM   10  N17 MIQ B 502       4.064   7.846 -13.122  1.00139.42    -0.288 N 
HETATM   11  O16 MIQ B 502       3.495   6.623 -11.094  1.00148.93    -0.171 OA
ENDROOT
BRANCH  10  12
HETATM   12  C18 MIQ B 502       3.352   9.048 -12.727  1.00139.82     0.187 C 
HETATM   13  C19 MIQ B 502       3.850   9.450 -11.334  1.00140.06     0.247 C 
HETATM   14  O25 MIQ B 502       5.010   9.543 -11.141  1.00143.95    -0.271 OA
HETATM   15  N20 MIQ B 502       2.935   9.727 -10.246  1.00140.02    -0.296 N 
HETATM   16  H13 MIQ B 502       3.273   9.982  -9.339  1.00142.77     0.171 HD
HETATM   17  C21 MIQ B 502       1.523   9.597 -10.503  1.00142.22     0.224 C 
HETATM   18  C22 MIQ B 502       1.106   8.522 -11.488  1.00139.52     0.106 C 
HETATM   19  O24 MIQ B 502       0.732  10.298  -9.974  1.00146.13    -0.273 OA
HETATM   20  C23 MIQ B 502       1.844   8.814 -12.782  1.00139.15     0.045 C 
ENDBRANCH  10  12
BRANCH   5  21
HETATM   21  N6  MIQ B 502       7.324   3.522 -16.016  1.00140.95    -0.377 N 
HETATM   22  C7  MIQ B 502       7.273   2.070 -16.023  1.00142.12     0.149 C 
HETATM   23  C8  MIQ B 502       8.547   1.459 -16.592  1.00144.10     0.187 C 
HETATM   24  O9  MIQ B 502       8.942   2.048 -17.794  1.00148.65    -0.388 OA
HETATM   25  C10 MIQ B 502       8.326   3.219 -18.245  1.00147.44     0.187 C 
HETATM   26  C11 MIQ B 502       7.786   4.203 -17.213  1.00144.08     0.149 C 
ENDBRANCH   5  21
TORSDOF 2
ENDMDL
MODEL 5
REMARK VINA RESULT:      -7.7      4.821      8.736
REMARK  2 active torsions:
REMARK  status: ('A' for Active; 'I' for Inactive)
REMARK    1  A    between atoms: C5_5  and  N6_21 
REMARK    2  A    between atoms: C18_14  and  N17_19 
ROOT
HETATM    1  O1  MIQ B 502       8.521   2.575 -20.527  1.00142.91    -0.171 OA
HETATM    2  C2  MIQ B 502       7.535   2.037 -19.698  1.00141.17     0.195 A 
HETATM    3  C3  MIQ B 502       7.236   2.463 -18.225  1.00141.71     0.035 A 
HETATM    4  C4  MIQ B 502       7.829   3.471 -17.315  1.00142.86     0.046 A 
HETATM    5  C5  MIQ B 502       7.328   3.631 -15.998  1.00139.53     0.031 A 
HETATM    6  C12 MIQ B 502       6.225   2.800 -15.539  1.00139.38     0.030 A 
HETATM    7  C13 MIQ B 502       5.655   1.834 -16.411  1.00141.18     0.019 A 
HETATM    8  C14 MIQ B 502       6.184   1.672 -17.793  1.00138.77     0.033 A 
HETATM    9  C15 MIQ B 502       5.827   0.750 -19.005  1.00142.10     0.195 A 
HETATM   10  N17 MIQ B 502       6.664   1.081 -19.974  1.00139.42    -0.288 N 
HETATM   11  O16 MIQ B 502       4.829  -0.225 -19.048  1.00148.93    -0.171 OA
ENDROOT
BRANCH  10  12
HETATM   12  C18 MIQ B 502       6.635   0.412 -21.261  1.00139.82     0.187 C 
HETATM   13  C19 MIQ B 502       8.078   0.042 -21.629  1.00140.06     0.247 C 
HETATM   14  O25 MIQ B 502       8.741  -0.539 -20.845  1.00143.95    -0.271 OA
HETATM   15  N20 MIQ B 502       8.649   0.382 -22.916  1.00140.02    -0.296 N 
HETATM   16  H13 MIQ B 502       9.594   0.141 -23.141  1.00142.77     0.171 HD
HETATM   17  C21 MIQ B 502       7.823   1.101 -23.852  1.00142.22     0.224 C 
HETATM   18  C22 MIQ B 502       6.828   2.085 -23.267  1.00139.52     0.106 C 
HETATM   19  O24 MIQ B 502       7.915   0.926 -25.017  1.00146.13    -0.273 OA
HETATM   20  C23 MIQ B 502       5.957   1.297 -22.306  1.00139.15     0.045 C 
ENDBRANCH  10  12
BRANCH   5  21
HETATM   21  N6  MIQ B 502       7.929   4.613 -15.113  1.00140.95    -0.377 N 
HETATM   22  C7  MIQ B 502       8.276   5.916 -15.655  1.00142.12     0.149 C 
HETATM   23  C8  MIQ B 502       9.417   6.566 -14.883  1.00144.10     0.187 C 
HETATM   24  O9  MIQ B 502       9.230   6.525 -13.499  1.00148.65    -0.388 OA
HETATM   25  C10 MIQ B 502       8.207   5.750 -12.946  1.00147.44     0.187 C 
HETATM   26  C11 MIQ B 502       7.779   4.480 -13.675  1.00144.08     0.149 C 
ENDBRANCH   5  21
TORSDOF 2
ENDMDL
MODEL 6
REMARK VINA RESULT:      -7.6      7.572     10.246
REMARK  2 active torsions:
REMARK  status: ('A' for Active; 'I' for Inactive)
REMARK    1  A    between atoms: C5_5  and  N6_21 
REMARK    2  A    between atoms: C18_14  and  N17_19 
ROOT
HETATM    1  O1  MIQ B 502       6.695   6.829 -16.244  1.00142.91    -0.171 OA
HETATM    2  C2  MIQ B 502       6.870   5.595 -15.616  1.00141.17     0.195 A 
HETATM    3  C3  MIQ B 502       7.378   4.281 -16.291  1.00141.71     0.035 A 
HETATM    4  C4  MIQ B 502       7.801   3.941 -17.670  1.00142.86     0.046 A 
HETATM    5  C5  MIQ B 502       8.225   2.625 -17.987  1.00139.53     0.031 A 
HETATM    6  C12 MIQ B 502       8.245   1.604 -16.950  1.00139.38     0.030 A 
HETATM    7  C13 MIQ B 502       7.841   1.929 -15.627  1.00141.18     0.019 A 
HETATM    8  C14 MIQ B 502       7.399   3.313 -15.300  1.00138.77     0.033 A 
HETATM    9  C15 MIQ B 502       6.902   4.030 -14.003  1.00142.10     0.195 A 
HETATM   10  N17 MIQ B 502       6.656   5.283 -14.349  1.00139.42    -0.288 N 
HETATM   11  O16 MIQ B 502       6.748   3.459 -12.738  1.00148.93    -0.171 OA
ENDROOT
BRANCH  10  12
HETATM   12  C18 MIQ B 502       6.156   6.250 -13.390  1.00139.82     0.187 C 
HETATM   13  C19 MIQ B 502       7.005   6.129 -12.119  1.00140.06     0.247 C 
HETATM   14  O25 MIQ B 502       8.181   6.162 -12.206  1.00143.95    -0.271 OA
HETATM   15  N20 MIQ B 502       6.403   5.980 -10.810  1.00140.02    -0.296 N 
HETATM   16  H13 MIQ B 502       6.969   5.896  -9.988  1.00142.77     0.171 HD
HETATM   17  C21 MIQ B 502       4.966   5.932 -10.730  1.00142.22     0.224 C 
HETATM   18  C22 MIQ B 502       4.241   5.280 -11.891  1.00139.52     0.106 C 
HETATM   19  O24 MIQ B 502       4.383   6.383  -9.806  1.00146.13    -0.273 OA
HETATM   20  C23 MIQ B 502       4.665   6.030 -13.140  1.00139.15     0.045 C 
ENDBRANCH  10  12
BRANCH   5  21
HETATM   21  N6  MIQ B 502       8.622   2.303 -19.345  1.00140.95    -0.377 N 
HETATM   22  C7  MIQ B 502       7.872   1.289 -20.066  1.00142.12     0.149 C 
HETATM   23  C8  MIQ B 502       8.718   0.608 -21.134  1.00144.10     0.187 C 
HETATM   24  O9  MIQ B 502       9.416   1.515 -21.934  1.00148.65    -0.388 OA
HETATM   25  C10 MIQ B 502       9.473   2.867 -21.587  1.00147.44     0.187 C 
HETATM   26  C11 MIQ B 502       9.422   3.244 -20.109  1.00144.08     0.149 C 
ENDBRANCH   5  21
TORSDOF 2
ENDMDL
MODEL 7
REMARK VINA RESULT:      -7.6     11.061     13.377
REMARK  2 active torsions:
REMARK  status: ('A' for Active; 'I' for Inactive)
REMARK    1  A    between atoms: C5_5  and  N6_21 
REMARK    2  A    between atoms: C18_14  and  N17_19 
ROOT
HETATM    1  O1  MIQ B 502       3.455   8.597 -13.747  1.00142.91    -0.171 OA
HETATM    2  C2  MIQ B 502       4.039   7.650 -12.904  1.00141.17     0.195 A 
HETATM    3  C3  MIQ B 502       4.886   6.416 -13.350  1.00141.71     0.035 A 
HETATM    4  C4  MIQ B 502       5.310   5.894 -14.671  1.00142.86     0.046 A 
HETATM    5  C5  MIQ B 502       6.098   4.719 -14.758  1.00139.53     0.031 A 
HETATM    6  C12 MIQ B 502       6.493   4.022 -13.543  1.00139.38     0.030 A 
HETATM    7  C13 MIQ B 502       6.088   4.522 -12.276  1.00141.18     0.019 A 
HETATM    8  C14 MIQ B 502       5.262   5.758 -12.190  1.00138.77     0.033 A 
HETATM    9  C15 MIQ B 502       4.646   6.589 -11.018  1.00142.10     0.195 A 
HETATM   10  N17 MIQ B 502       4.006   7.599 -11.583  1.00139.42    -0.288 N 
HETATM   11  O16 MIQ B 502       4.750   6.314  -9.653  1.00148.93    -0.171 OA
ENDROOT
BRANCH  10  12
HETATM   12  C18 MIQ B 502       3.291   8.581 -10.790  1.00139.82     0.187 C 
HETATM   13  C19 MIQ B 502       1.859   8.668 -11.333  1.00140.06     0.247 C 
HETATM   14  O25 MIQ B 502       1.235   7.677 -11.474  1.00143.95    -0.271 OA
HETATM   15  N20 MIQ B 502       1.247   9.937 -11.674  1.00140.02    -0.296 N 
HETATM   16  H13 MIQ B 502       0.314   9.979 -12.034  1.00142.77     0.171 HD
HETATM   17  C21 MIQ B 502       2.033  11.132 -11.504  1.00142.22     0.224 C 
HETATM   18  C22 MIQ B 502       3.524  11.007 -11.748  1.00139.52     0.106 C 
HETATM   19  O24 MIQ B 502       1.538  12.156 -11.184  1.00146.13    -0.273 OA
HETATM   20  C23 MIQ B 502       4.025   9.921 -10.814  1.00139.15     0.045 C 
ENDBRANCH  10  12
BRANCH   5  21
HETATM   21  N6  MIQ B 502       6.494   4.212 -16.059  1.00140.95    -0.377 N 
HETATM   22  C7  MIQ B 502       7.634   4.819 -16.724  1.00142.12     0.149 C 
HETATM   23  C8  MIQ B 502       7.549   4.682 -18.239  1.00144.10     0.187 C 
HETATM   24  O9  MIQ B 502       7.240   3.384 -18.650  1.00148.65    -0.388 OA
HETATM   25  C10 MIQ B 502       6.834   2.424 -17.719  1.00147.44     0.187 C 
HETATM   26  C11 MIQ B 502       6.076   2.886 -16.479  1.00144.08     0.149 C 
ENDBRANCH   5  21
TORSDOF 2
ENDMDL
MODEL 8
REMARK VINA RESULT:      -7.6      7.279      9.946
REMARK  2 active torsions:
REMARK  status: ('A' for Active; 'I' for Inactive)
REMARK    1  A    between atoms: C5_5  and  N6_21 
REMARK    2  A    between atoms: C18_14  and  N17_19 
ROOT
HETATM    1  O1  MIQ B 502       7.900   7.121 -17.417  1.00142.91    -0.171 OA
HETATM    2  C2  MIQ B 502       7.222   6.112 -16.728  1.00141.17     0.195 A 
HETATM    3  C3  MIQ B 502       7.160   4.604 -17.130  1.00141.71     0.035 A 
HETATM    4  C4  MIQ B 502       7.737   3.823 -18.249  1.00142.86     0.046 A 
HETATM    5  C5  MIQ B 502       7.498   2.428 -18.348  1.00139.53     0.031 A 
HETATM    6  C12 MIQ B 502       6.683   1.762 -17.343  1.00139.38     0.030 A 
HETATM    7  C13 MIQ B 502       6.131   2.511 -16.268  1.00141.18     0.019 A 
HETATM    8  C14 MIQ B 502       6.386   3.974 -16.169  1.00138.77     0.033 A 
HETATM    9  C15 MIQ B 502       5.967   5.097 -15.165  1.00142.10     0.195 A 
HETATM   10  N17 MIQ B 502       6.513   6.213 -15.617  1.00139.42    -0.288 N 
HETATM   11  O16 MIQ B 502       5.174   4.946 -14.026  1.00148.93    -0.171 OA
ENDROOT
BRANCH  10  12
HETATM   12  C18 MIQ B 502       6.321   7.480 -14.937  1.00139.82     0.187 C 
HETATM   13  C19 MIQ B 502       6.649   7.269 -13.454  1.00140.06     0.247 C 
HETATM   14  O25 MIQ B 502       7.672   6.761 -13.157  1.00143.95    -0.271 OA
HETATM   15  N20 MIQ B 502       5.741   7.683 -12.404  1.00140.02    -0.296 N 
HETATM   16  H13 MIQ B 502       5.965   7.533 -11.440  1.00142.77     0.171 HD
HETATM   17  C21 MIQ B 502       4.495   8.291 -12.791  1.00142.22     0.224 C 
HETATM   18  C22 MIQ B 502       3.866   7.797 -14.080  1.00139.52     0.106 C 
HETATM   19  O24 MIQ B 502       3.991   9.138 -12.138  1.00146.13    -0.273 OA
HETATM   20  C23 MIQ B 502       4.903   7.999 -15.170  1.00139.15     0.045 C 
ENDBRANCH  10  12
BRANCH   5  21
HETATM   21  N6  MIQ B 502       8.057   1.678 -19.458  1.00140.95    -0.377 N 
HETATM   22  C7  MIQ B 502       7.169   1.250 -20.524  1.00142.12     0.149 C 
HETATM   23  C8  MIQ B 502       7.686   0.002 -21.228  1.00144.10     0.187 C 
HETATM   24  O9  MIQ B 502       9.034   0.094 -21.576  1.00148.65    -0.388 OA
HETATM   25  C10 MIQ B 502       9.820   1.143 -21.092  1.00147.44     0.187 C 
HETATM   26  C11 MIQ B 502       9.483   1.738 -19.729  1.00144.08     0.149 C 
ENDBRANCH   5  21
TORSDOF 2
ENDMDL
MODEL 9
REMARK VINA RESULT:      -7.4     18.453     20.392
REMARK  2 active torsions:
REMARK  status: ('A' for Active; 'I' for Inactive)
REMARK    1  A    between atoms: C5_5  and  N6_21 
REMARK    2  A    between atoms: C18_14  and  N17_19 
ROOT
HETATM    1  O1  MIQ B 502      -3.048  11.970  -9.285  1.00142.91    -0.171 OA
HETATM    2  C2  MIQ B 502      -2.263  12.987  -9.833  1.00141.17     0.195 A 
HETATM    3  C3  MIQ B 502      -0.875  12.808 -10.527  1.00141.71     0.035 A 
HETATM    4  C4  MIQ B 502      -0.021  11.630 -10.809  1.00142.86     0.046 A 
HETATM    5  C5  MIQ B 502       1.221  11.787 -11.476  1.00139.53     0.031 A 
HETATM    6  C12 MIQ B 502       1.658  13.114 -11.885  1.00139.38     0.030 A 
HETATM    7  C13 MIQ B 502       0.839  14.244 -11.616  1.00141.18     0.019 A 
HETATM    8  C14 MIQ B 502      -0.465  14.072 -10.918  1.00138.77     0.033 A 
HETATM    9  C15 MIQ B 502      -1.605  15.042 -10.464  1.00142.10     0.195 A 
HETATM   10  N17 MIQ B 502      -2.520  14.283  -9.886  1.00139.42    -0.288 N 
HETATM   11  O16 MIQ B 502      -1.641  16.427 -10.635  1.00148.93    -0.171 OA
ENDROOT
BRANCH  10  12
HETATM   12  C18 MIQ B 502      -3.730  14.852  -9.322  1.00139.82     0.187 C 
HETATM   13  C19 MIQ B 502      -3.888  14.302  -7.899  1.00140.06     0.247 C 
HETATM   14  O25 MIQ B 502      -2.978  14.372  -7.151  1.00143.95    -0.271 OA
HETATM   15  N20 MIQ B 502      -5.126  13.703  -7.444  1.00140.02    -0.296 N 
HETATM   16  H13 MIQ B 502      -5.213  13.342  -6.515  1.00142.77     0.171 HD
HETATM   17  C21 MIQ B 502      -6.218  13.620  -8.379  1.00142.22     0.224 C 
HETATM   18  C22 MIQ B 502      -5.853  13.408  -9.836  1.00139.52     0.106 C 
HETATM   19  O24 MIQ B 502      -7.342  13.719  -8.027  1.00146.13    -0.273 OA
HETATM   20  C23 MIQ B 502      -4.929  14.549 -10.220  1.00139.15     0.045 C 
ENDBRANCH  10  12
BRANCH   5  21
HETATM   21  N6  MIQ B 502       2.053  10.626 -11.732  1.00140.95    -0.377 N 
HETATM   22  C7  MIQ B 502       1.407   9.360 -12.032  1.00142.12     0.149 C 
HETATM   23  C8  MIQ B 502       2.278   8.172 -11.646  1.00144.10     0.187 C 
HETATM   24  O9  MIQ B 502       3.593   8.292 -12.100  1.00148.65    -0.388 OA
HETATM   25  C10 MIQ B 502       4.050   9.500 -12.633  1.00147.44     0.187 C 
HETATM   26  C11 MIQ B 502       3.442  10.801 -12.119  1.00144.08     0.149 C 
ENDBRANCH   5  21
TORSDOF 2
ENDMDL
