MODEL 1
REMARK VINA RESULT:      -7.1      0.000      0.000
REMARK  2 active torsions:
REMARK  status: ('A' for Active; 'I' for Inactive)
REMARK    1  A    between atoms: C5_5  and  N6_21 
REMARK    2  A    between atoms: C18_14  and  N17_19 
ROOT
HETATM    1  O1  MIQ B 502     -14.922   2.218  15.991  1.00142.91    -0.171 OA
HETATM    2  C2  MIQ B 502     -14.386   0.939  15.826  1.00141.17     0.195 A 
HETATM    3  C3  MIQ B 502     -15.178  -0.407  15.880  1.00141.71     0.035 A 
HETATM    4  C4  MIQ B 502     -16.606  -0.741  16.096  1.00142.86     0.046 A 
HETATM    5  C5  MIQ B 502     -17.035  -2.092  16.088  1.00139.53     0.031 A 
HETATM    6  C12 MIQ B 502     -16.067  -3.156  15.866  1.00139.38     0.030 A 
HETATM    7  C13 MIQ B 502     -14.698  -2.836  15.657  1.00141.18     0.019 A 
HETATM    8  C14 MIQ B 502     -14.254  -1.416  15.665  1.00138.77     0.033 A 
HETATM    9  C15 MIQ B 502     -12.880  -0.693  15.475  1.00142.10     0.195 A 
HETATM   10  N17 MIQ B 502     -13.130   0.601  15.591  1.00139.42    -0.288 N 
HETATM   11  O16 MIQ B 502     -11.645  -1.296  15.235  1.00148.93    -0.171 OA
ENDROOT
BRANCH  10  12
HETATM   12  C18 MIQ B 502     -12.072   1.589  15.486  1.00139.82     0.187 C 
HETATM   13  C19 MIQ B 502     -12.187   2.527  16.694  1.00140.06     0.247 C 
HETATM   14  O25 MIQ B 502     -12.252   2.066  17.777  1.00143.95    -0.271 OA
HETATM   15  N20 MIQ B 502     -12.211   3.968  16.542  1.00140.02    -0.296 N 
HETATM   16  H13 MIQ B 502     -12.292   4.569  17.338  1.00142.77     0.171 HD
HETATM   17  C21 MIQ B 502     -12.140   4.506  15.208  1.00142.22     0.224 C 
HETATM   18  C22 MIQ B 502     -12.798   3.695  14.109  1.00139.52     0.106 C 
HETATM   19  O24 MIQ B 502     -11.591   5.528  14.983  1.00146.13    -0.273 OA
HETATM   20  C23 MIQ B 502     -12.158   2.319  14.147  1.00139.15     0.045 C 
ENDBRANCH  10  12
BRANCH   5  21
HETATM   21  N6  MIQ B 502     -18.434  -2.405  16.316  1.00140.95    -0.377 N 
HETATM   22  C7  MIQ B 502     -19.391  -1.314  16.367  1.00142.12     0.149 C 
HETATM   23  C8  MIQ B 502     -20.610  -1.664  17.211  1.00144.10     0.187 C 
HETATM   24  O9  MIQ B 502     -21.146  -2.915  16.898  1.00148.65    -0.388 OA
HETATM   25  C10 MIQ B 502     -20.453  -3.793  16.061  1.00147.44     0.187 C 
HETATM   26  C11 MIQ B 502     -18.929  -3.746  16.057  1.00144.08     0.149 C 
ENDBRANCH   5  21
TORSDOF 2
ENDMDL
MODEL 2
REMARK VINA RESULT:      -7.1      0.292      1.013
REMARK  2 active torsions:
REMARK  status: ('A' for Active; 'I' for Inactive)
REMARK    1  A    between atoms: C5_5  and  N6_21 
REMARK    2  A    between atoms: C18_14  and  N17_19 
ROOT
HETATM    1  O1  MIQ B 502     -14.981   2.222  15.897  1.00142.91    -0.171 OA
HETATM    2  C2  MIQ B 502     -14.411   0.952  15.781  1.00141.17     0.195 A 
HETATM    3  C3  MIQ B 502     -15.178  -0.408  15.796  1.00141.71     0.035 A 
HETATM    4  C4  MIQ B 502     -16.611  -0.769  15.920  1.00142.86     0.046 A 
HETATM    5  C5  MIQ B 502     -17.012  -2.128  15.897  1.00139.53     0.031 A 
HETATM    6  C12 MIQ B 502     -16.011  -3.175  15.750  1.00139.38     0.030 A 
HETATM    7  C13 MIQ B 502     -14.638  -2.830  15.630  1.00141.18     0.019 A 
HETATM    8  C14 MIQ B 502     -14.223  -1.401  15.652  1.00138.77     0.033 A 
HETATM    9  C15 MIQ B 502     -12.854  -0.652  15.547  1.00142.10     0.195 A 
HETATM   10  N17 MIQ B 502     -13.135   0.637  15.633  1.00139.42    -0.288 N 
HETATM   11  O16 MIQ B 502     -11.593  -1.233  15.396  1.00148.93    -0.171 OA
ENDROOT
BRANCH  10  12
HETATM   12  C18 MIQ B 502     -12.092   1.645  15.589  1.00139.82     0.187 C 
HETATM   13  C19 MIQ B 502     -12.291   2.577  16.790  1.00140.06     0.247 C 
HETATM   14  O25 MIQ B 502     -12.408   2.112  17.867  1.00143.95    -0.271 OA
HETATM   15  N20 MIQ B 502     -12.334   4.018  16.639  1.00140.02    -0.296 N 
HETATM   16  H13 MIQ B 502     -12.471   4.615  17.431  1.00142.77     0.171 HD
HETATM   17  C21 MIQ B 502     -12.199   4.562  15.313  1.00142.22     0.224 C 
HETATM   18  C22 MIQ B 502     -12.780   3.741  14.178  1.00139.52     0.106 C 
HETATM   19  O24 MIQ B 502     -11.657   5.594  15.120  1.00146.13    -0.273 OA
HETATM   20  C23 MIQ B 502     -12.117   2.377  14.248  1.00139.15     0.045 C 
ENDBRANCH  10  12
BRANCH   5  21
HETATM   21  N6  MIQ B 502     -18.417  -2.468  16.034  1.00140.95    -0.377 N 
HETATM   22  C7  MIQ B 502     -18.812  -3.859  15.897  1.00142.12     0.149 C 
HETATM   23  C8  MIQ B 502     -20.254  -3.996  15.424  1.00144.10     0.187 C 
HETATM   24  O9  MIQ B 502     -21.140  -3.192  16.143  1.00148.65    -0.388 OA
HETATM   25  C10 MIQ B 502     -20.659  -2.220  17.023  1.00147.44     0.187 C 
HETATM   26  C11 MIQ B 502     -19.320  -1.557  16.717  1.00144.08     0.149 C 
ENDBRANCH   5  21
TORSDOF 2
ENDMDL
MODEL 3
REMARK VINA RESULT:      -7.0      1.870      3.117
REMARK  2 active torsions:
REMARK  status: ('A' for Active; 'I' for Inactive)
REMARK    1  A    between atoms: C5_5  and  N6_21 
REMARK    2  A    between atoms: C18_14  and  N17_19 
ROOT
HETATM    1  O1  MIQ B 502     -13.866  -1.075  14.655  1.00142.91    -0.171 OA
HETATM    2  C2  MIQ B 502     -14.506  -0.290  15.617  1.00141.17     0.195 A 
HETATM    3  C3  MIQ B 502     -15.912  -0.560  16.241  1.00141.71     0.035 A 
HETATM    4  C4  MIQ B 502     -16.926  -1.623  16.047  1.00142.86     0.046 A 
HETATM    5  C5  MIQ B 502     -18.140  -1.598  16.779  1.00139.53     0.031 A 
HETATM    6  C12 MIQ B 502     -18.389  -0.522  17.727  1.00139.38     0.030 A 
HETATM    7  C13 MIQ B 502     -17.417   0.497  17.915  1.00141.18     0.019 A 
HETATM    8  C14 MIQ B 502     -16.144   0.464  17.145  1.00138.77     0.033 A 
HETATM    9  C15 MIQ B 502     -14.874   1.375  17.082  1.00142.10     0.195 A 
HETATM   10  N17 MIQ B 502     -14.068   0.817  16.193  1.00139.42    -0.288 N 
HETATM   11  O16 MIQ B 502     -14.644   2.540  17.814  1.00148.93    -0.171 OA
ENDROOT
BRANCH  10  12
HETATM   12  C18 MIQ B 502     -12.785   1.405  15.860  1.00139.82     0.187 C 
HETATM   13  C19 MIQ B 502     -12.771   1.673  14.350  1.00140.06     0.247 C 
HETATM   14  O25 MIQ B 502     -13.667   2.265  13.862  1.00143.95    -0.271 OA
HETATM   15  N20 MIQ B 502     -11.684   1.224  13.504  1.00140.02    -0.296 N 
HETATM   16  H13 MIQ B 502     -11.690   1.400  12.519  1.00142.77     0.171 HD
HETATM   17  C21 MIQ B 502     -10.607   0.494  14.121  1.00142.22     0.224 C 
HETATM   18  C22 MIQ B 502     -10.971  -0.397  15.293  1.00139.52     0.106 C 
HETATM   19  O24 MIQ B 502      -9.494   0.591  13.735  1.00146.13    -0.273 OA
HETATM   20  C23 MIQ B 502     -11.647   0.495  16.319  1.00139.15     0.045 C 
ENDBRANCH  10  12
BRANCH   5  21
HETATM   21  N6  MIQ B 502     -19.130  -2.638  16.568  1.00140.95    -0.377 N 
HETATM   22  C7  MIQ B 502     -20.537  -2.279  16.628  1.00142.12     0.149 C 
HETATM   23  C8  MIQ B 502     -21.408  -3.462  17.033  1.00144.10     0.187 C 
HETATM   24  O9  MIQ B 502     -21.118  -4.622  16.313  1.00148.65    -0.388 OA
HETATM   25  C10 MIQ B 502     -19.986  -4.685  15.497  1.00147.44     0.187 C 
HETATM   26  C11 MIQ B 502     -18.759  -3.867  15.888  1.00144.08     0.149 C 
ENDBRANCH   5  21
TORSDOF 2
ENDMDL
MODEL 4
REMARK VINA RESULT:      -6.5      2.297      3.400
REMARK  2 active torsions:
REMARK  status: ('A' for Active; 'I' for Inactive)
REMARK    1  A    between atoms: C5_5  and  N6_21 
REMARK    2  A    between atoms: C18_14  and  N17_19 
ROOT
HETATM    1  O1  MIQ B 502     -15.879   3.589  16.968  1.00142.91    -0.171 OA
HETATM    2  C2  MIQ B 502     -14.916   3.039  16.120  1.00141.17     0.195 A 
HETATM    3  C3  MIQ B 502     -14.857   1.556  15.631  1.00141.71     0.035 A 
HETATM    4  C4  MIQ B 502     -15.710   0.369  15.873  1.00142.86     0.046 A 
HETATM    5  C5  MIQ B 502     -15.393  -0.876  15.272  1.00139.53     0.031 A 
HETATM    6  C12 MIQ B 502     -14.223  -0.986  14.413  1.00139.38     0.030 A 
HETATM    7  C13 MIQ B 502     -13.406   0.152  14.180  1.00141.18     0.019 A 
HETATM    8  C14 MIQ B 502     -13.745   1.457  14.811  1.00138.77     0.033 A 
HETATM    9  C15 MIQ B 502     -13.110   2.886  14.790  1.00142.10     0.195 A 
HETATM   10  N17 MIQ B 502     -13.879   3.638  15.560  1.00139.42    -0.288 N 
HETATM   11  O16 MIQ B 502     -11.963   3.281  14.100  1.00148.93    -0.171 OA
ENDROOT
BRANCH  10  12
HETATM   12  C18 MIQ B 502     -13.582   5.040  15.789  1.00139.82     0.187 C 
HETATM   13  C19 MIQ B 502     -13.485   5.727  14.422  1.00140.06     0.247 C 
HETATM   14  O25 MIQ B 502     -14.358   5.584  13.642  1.00143.95    -0.271 OA
HETATM   15  N20 MIQ B 502     -12.351   6.553  14.061  1.00140.02    -0.296 N 
HETATM   16  H13 MIQ B 502     -12.296   6.991  13.162  1.00142.77     0.171 HD
HETATM   17  C21 MIQ B 502     -11.292   6.704  15.025  1.00142.22     0.224 C 
HETATM   18  C22 MIQ B 502     -11.009   5.511  15.918  1.00139.52     0.106 C 
HETATM   19  O24 MIQ B 502     -10.679   7.710  15.118  1.00146.13    -0.273 OA
HETATM   20  C23 MIQ B 502     -12.311   5.183  16.626  1.00139.15     0.045 C 
ENDBRANCH  10  12
BRANCH   5  21
HETATM   21  N6  MIQ B 502     -16.229  -2.034  15.530  1.00140.95    -0.377 N 
HETATM   22  C7  MIQ B 502     -15.831  -3.316  14.974  1.00142.12     0.149 C 
HETATM   23  C8  MIQ B 502     -17.025  -4.236  14.753  1.00144.10     0.187 C 
HETATM   24  O9  MIQ B 502     -17.871  -4.304  15.861  1.00148.65    -0.388 OA
HETATM   25  C10 MIQ B 502     -17.709  -3.418  16.930  1.00147.44     0.187 C 
HETATM   26  C11 MIQ B 502     -17.158  -2.025  16.647  1.00144.08     0.149 C 
ENDBRANCH   5  21
TORSDOF 2
ENDMDL
MODEL 5
REMARK VINA RESULT:      -6.4      2.325      8.054
REMARK  2 active torsions:
REMARK  status: ('A' for Active; 'I' for Inactive)
REMARK    1  A    between atoms: C5_5  and  N6_21 
REMARK    2  A    between atoms: C18_14  and  N17_19 
ROOT
HETATM    1  O1  MIQ B 502     -18.164   1.318  14.751  1.00142.91    -0.171 OA
HETATM    2  C2  MIQ B 502     -17.768   0.059  15.209  1.00141.17     0.195 A 
HETATM    3  C3  MIQ B 502     -16.306  -0.489  15.253  1.00141.71     0.035 A 
HETATM    4  C4  MIQ B 502     -14.993   0.082  14.871  1.00142.86     0.046 A 
HETATM    5  C5  MIQ B 502     -13.807  -0.678  15.034  1.00139.53     0.031 A 
HETATM    6  C12 MIQ B 502     -13.881  -2.025  15.581  1.00139.38     0.030 A 
HETATM    7  C13 MIQ B 502     -15.140  -2.572  15.949  1.00141.18     0.019 A 
HETATM    8  C14 MIQ B 502     -16.382  -1.769  15.777  1.00138.77     0.033 A 
HETATM    9  C15 MIQ B 502     -17.899  -2.017  16.060  1.00142.10     0.195 A 
HETATM   10  N17 MIQ B 502     -18.525  -0.911  15.693  1.00139.42    -0.288 N 
HETATM   11  O16 MIQ B 502     -18.472  -3.175  16.590  1.00148.93    -0.171 OA
ENDROOT
BRANCH  10  12
HETATM   12  C18 MIQ B 502     -19.966  -0.785  15.800  1.00139.82     0.187 C 
HETATM   13  C19 MIQ B 502     -20.360  -1.124  17.244  1.00140.06     0.247 C 
HETATM   14  O25 MIQ B 502     -19.803  -0.586  18.134  1.00143.95    -0.271 OA
HETATM   15  N20 MIQ B 502     -21.401  -2.085  17.546  1.00140.02    -0.296 N 
HETATM   16  H13 MIQ B 502     -21.644  -2.302  18.493  1.00142.77     0.171 HD
HETATM   17  C21 MIQ B 502     -22.058  -2.737  16.443  1.00142.22     0.224 C 
HETATM   18  C22 MIQ B 502     -21.214  -3.012  15.213  1.00139.52     0.106 C 
HETATM   19  O24 MIQ B 502     -23.200  -3.037  16.494  1.00146.13    -0.273 OA
HETATM   20  C23 MIQ B 502     -20.656  -1.673  14.765  1.00139.15     0.045 C 
ENDBRANCH  10  12
BRANCH   5  21
HETATM   21  N6  MIQ B 502     -12.529  -0.113  14.641  1.00140.95    -0.377 N 
HETATM   22  C7  MIQ B 502     -12.346   1.325  14.739  1.00142.12     0.149 C 
HETATM   23  C8  MIQ B 502     -11.305   1.835  13.751  1.00144.10     0.187 C 
HETATM   24  O9  MIQ B 502     -10.129   1.082  13.764  1.00148.65    -0.388 OA
HETATM   25  C10 MIQ B 502     -10.073  -0.130  14.457  1.00147.44     0.187 C 
HETATM   26  C11 MIQ B 502     -11.348  -0.957  14.587  1.00144.08     0.149 C 
ENDBRANCH   5  21
TORSDOF 2
ENDMDL
MODEL 6
REMARK VINA RESULT:      -6.3      2.591      8.157
REMARK  2 active torsions:
REMARK  status: ('A' for Active; 'I' for Inactive)
REMARK    1  A    between atoms: C5_5  and  N6_21 
REMARK    2  A    between atoms: C18_14  and  N17_19 
ROOT
HETATM    1  O1  MIQ B 502     -17.319  -2.597  16.267  1.00142.91    -0.171 OA
HETATM    2  C2  MIQ B 502     -17.321  -1.318  15.704  1.00141.17     0.195 A 
HETATM    3  C3  MIQ B 502     -16.061  -0.472  15.335  1.00141.71     0.035 A 
HETATM    4  C4  MIQ B 502     -14.603  -0.715  15.442  1.00142.86     0.046 A 
HETATM    5  C5  MIQ B 502     -13.678   0.270  15.011  1.00139.53     0.031 A 
HETATM    6  C12 MIQ B 502     -14.165   1.525  14.458  1.00139.38     0.030 A 
HETATM    7  C13 MIQ B 502     -15.563   1.758  14.354  1.00141.18     0.019 A 
HETATM    8  C14 MIQ B 502     -16.529   0.720  14.806  1.00138.77     0.033 A 
HETATM    9  C15 MIQ B 502     -18.089   0.613  14.847  1.00142.10     0.195 A 
HETATM   10  N17 MIQ B 502     -18.360  -0.573  15.367  1.00139.42    -0.288 N 
HETATM   11  O16 MIQ B 502     -19.004   1.577  14.423  1.00148.93    -0.171 OA
ENDROOT
BRANCH  10  12
HETATM   12  C18 MIQ B 502     -19.726  -1.015  15.573  1.00139.82     0.187 C 
HETATM   13  C19 MIQ B 502     -19.869  -1.424  17.044  1.00140.06     0.247 C 
HETATM   14  O25 MIQ B 502     -19.516  -0.677  17.887  1.00143.95    -0.271 OA
HETATM   15  N20 MIQ B 502     -20.431  -2.702  17.431  1.00140.02    -0.296 N 
HETATM   16  H13 MIQ B 502     -20.512  -2.960  18.395  1.00142.77     0.171 HD
HETATM   17  C21 MIQ B 502     -20.844  -3.601  16.385  1.00142.22     0.224 C 
HETATM   18  C22 MIQ B 502     -20.035  -3.573  15.103  1.00139.52     0.106 C 
HETATM   19  O24 MIQ B 502     -21.772  -4.320  16.519  1.00146.13    -0.273 OA
HETATM   20  C23 MIQ B 502     -20.073  -2.141  14.600  1.00139.15     0.045 C 
ENDBRANCH  10  12
BRANCH   5  21
HETATM   21  N6  MIQ B 502     -12.253   0.024  15.136  1.00140.95    -0.377 N 
HETATM   22  C7  MIQ B 502     -11.345   0.748  14.263  1.00142.12     0.149 C 
HETATM   23  C8  MIQ B 502     -10.048  -0.018  14.031  1.00144.10     0.187 C 
HETATM   24  O9  MIQ B 502      -9.483  -0.499  15.214  1.00148.65    -0.388 OA
HETATM   25  C10 MIQ B 502     -10.201  -0.454  16.411  1.00147.44     0.187 C 
HETATM   26  C11 MIQ B 502     -11.721  -0.560  16.355  1.00144.08     0.149 C 
ENDBRANCH   5  21
TORSDOF 2
ENDMDL
MODEL 7
REMARK VINA RESULT:      -6.3      2.202      2.492
REMARK  2 active torsions:
REMARK  status: ('A' for Active; 'I' for Inactive)
REMARK    1  A    between atoms: C5_5  and  N6_21 
REMARK    2  A    between atoms: C18_14  and  N17_19 
ROOT
HETATM    1  O1  MIQ B 502     -16.075   2.575  17.903  1.00142.91    -0.171 OA
HETATM    2  C2  MIQ B 502     -15.126   1.805  17.226  1.00141.17     0.195 A 
HETATM    3  C3  MIQ B 502     -15.355   0.387  16.613  1.00141.71     0.035 A 
HETATM    4  C4  MIQ B 502     -16.527  -0.517  16.547  1.00142.86     0.046 A 
HETATM    5  C5  MIQ B 502     -16.426  -1.777  15.904  1.00139.53     0.031 A 
HETATM    6  C12 MIQ B 502     -15.162  -2.182  15.305  1.00139.38     0.030 A 
HETATM    7  C13 MIQ B 502     -14.038  -1.315  15.367  1.00141.18     0.019 A 
HETATM    8  C14 MIQ B 502     -14.152   0.007  16.042  1.00138.77     0.033 A 
HETATM    9  C15 MIQ B 502     -13.170   1.196  16.301  1.00142.10     0.195 A 
HETATM   10  N17 MIQ B 502     -13.866   2.106  16.963  1.00139.42    -0.288 N 
HETATM   11  O16 MIQ B 502     -11.832   1.275  15.913  1.00148.93    -0.171 OA
ENDROOT
BRANCH  10  12
HETATM   12  C18 MIQ B 502     -13.265   3.356  17.391  1.00139.82     0.187 C 
HETATM   13  C19 MIQ B 502     -13.540   3.517  18.891  1.00140.06     0.247 C 
HETATM   14  O25 MIQ B 502     -13.280   2.630  19.623  1.00143.95    -0.271 OA
HETATM   15  N20 MIQ B 502     -14.106   4.734  19.437  1.00140.02    -0.296 N 
HETATM   16  H13 MIQ B 502     -14.287   4.824  20.417  1.00142.77     0.171 HD
HETATM   17  C21 MIQ B 502     -14.425   5.799  18.522  1.00142.22     0.224 C 
HETATM   18  C22 MIQ B 502     -14.892   5.391  17.138  1.00139.52     0.106 C 
HETATM   19  O24 MIQ B 502     -14.321   6.934  18.835  1.00146.13    -0.273 OA
HETATM   20  C23 MIQ B 502     -13.798   4.517  16.553  1.00139.15     0.045 C 
ENDBRANCH  10  12
BRANCH   5  21
HETATM   21  N6  MIQ B 502     -17.578  -2.659  15.860  1.00140.95    -0.377 N 
HETATM   22  C7  MIQ B 502     -18.904  -2.074  15.952  1.00142.12     0.149 C 
HETATM   23  C8  MIQ B 502     -19.919  -3.052  16.529  1.00144.10     0.187 C 
HETATM   24  O9  MIQ B 502     -19.862  -4.311  15.928  1.00148.65    -0.388 OA
HETATM   25  C10 MIQ B 502     -18.811  -4.638  15.067  1.00147.44     0.187 C 
HETATM   26  C11 MIQ B 502     -17.449  -3.994  15.303  1.00144.08     0.149 C 
ENDBRANCH   5  21
TORSDOF 2
ENDMDL
MODEL 8
REMARK VINA RESULT:      -6.2      1.149      2.260
REMARK  2 active torsions:
REMARK  status: ('A' for Active; 'I' for Inactive)
REMARK    1  A    between atoms: C5_5  and  N6_21 
REMARK    2  A    between atoms: C18_14  and  N17_19 
ROOT
HETATM    1  O1  MIQ B 502     -13.205  -1.263  15.946  1.00142.91    -0.171 OA
HETATM    2  C2  MIQ B 502     -14.130  -0.224  15.821  1.00141.17     0.195 A 
HETATM    3  C3  MIQ B 502     -15.684  -0.372  15.792  1.00141.71     0.035 A 
HETATM    4  C4  MIQ B 502     -16.599  -1.535  15.881  1.00142.86     0.046 A 
HETATM    5  C5  MIQ B 502     -18.003  -1.348  15.825  1.00139.53     0.031 A 
HETATM    6  C12 MIQ B 502     -18.548  -0.005  15.680  1.00139.38     0.030 A 
HETATM    7  C13 MIQ B 502     -17.672   1.110  15.596  1.00141.18     0.019 A 
HETATM    8  C14 MIQ B 502     -16.198   0.908  15.657  1.00138.77     0.033 A 
HETATM    9  C15 MIQ B 502     -14.956   1.855  15.603  1.00142.10     0.195 A 
HETATM   10  N17 MIQ B 502     -13.895   1.072  15.709  1.00139.42    -0.288 N 
HETATM   11  O16 MIQ B 502     -14.969   3.244  15.468  1.00148.93    -0.171 OA
ENDROOT
BRANCH  10  12
HETATM   12  C18 MIQ B 502     -12.548   1.613  15.680  1.00139.82     0.187 C 
HETATM   13  C19 MIQ B 502     -12.470   2.728  16.731  1.00140.06     0.247 C 
HETATM   14  O25 MIQ B 502     -12.833   2.508  17.832  1.00143.95    -0.271 OA
HETATM   15  N20 MIQ B 502     -11.956   4.044  16.411  1.00140.02    -0.296 N 
HETATM   16  H13 MIQ B 502     -11.916   4.765  17.105  1.00142.77     0.171 HD
HETATM   17  C21 MIQ B 502     -11.529   4.290  15.058  1.00142.22     0.224 C 
HETATM   18  C22 MIQ B 502     -12.290   3.572  13.961  1.00139.52     0.106 C 
HETATM   19  O24 MIQ B 502     -10.625   5.014  14.818  1.00146.13    -0.273 OA
HETATM   20  C23 MIQ B 502     -12.196   2.089  14.272  1.00139.15     0.045 C 
ENDBRANCH  10  12
BRANCH   5  21
HETATM   21  N6  MIQ B 502     -18.887  -2.497  15.898  1.00140.95    -0.377 N 
HETATM   22  C7  MIQ B 502     -20.320  -2.268  15.970  1.00142.12     0.149 C 
HETATM   23  C8  MIQ B 502     -21.045  -3.412  16.666  1.00144.10     0.187 C 
HETATM   24  O9  MIQ B 502     -20.664  -4.668  16.188  1.00148.65    -0.388 OA
HETATM   25  C10 MIQ B 502     -19.566  -4.797  15.335  1.00147.44     0.187 C 
HETATM   26  C11 MIQ B 502     -18.417  -3.802  15.468  1.00144.08     0.149 C 
ENDBRANCH   5  21
TORSDOF 2
ENDMDL
MODEL 9
REMARK VINA RESULT:      -6.2      1.863      3.124
REMARK  2 active torsions:
REMARK  status: ('A' for Active; 'I' for Inactive)
REMARK    1  A    between atoms: C5_5  and  N6_21 
REMARK    2  A    between atoms: C18_14  and  N17_19 
ROOT
HETATM    1  O1  MIQ B 502     -12.168   1.119  16.704  1.00142.91    -0.171 OA
HETATM    2  C2  MIQ B 502     -13.264   1.804  16.175  1.00141.17     0.195 A 
HETATM    3  C3  MIQ B 502     -14.661   1.192  15.843  1.00141.71     0.035 A 
HETATM    4  C4  MIQ B 502     -15.232  -0.171  15.967  1.00142.86     0.046 A 
HETATM    5  C5  MIQ B 502     -16.571  -0.425  15.573  1.00139.53     0.031 A 
HETATM    6  C12 MIQ B 502     -17.387   0.658  15.045  1.00139.38     0.030 A 
HETATM    7  C13 MIQ B 502     -16.840   1.964  14.927  1.00141.18     0.019 A 
HETATM    8  C14 MIQ B 502     -15.436   2.226  15.344  1.00138.77     0.033 A 
HETATM    9  C15 MIQ B 502     -14.513   3.489  15.367  1.00142.10     0.195 A 
HETATM   10  N17 MIQ B 502     -13.352   3.084  15.855  1.00139.42    -0.288 N 
HETATM   11  O16 MIQ B 502     -14.851   4.778  14.953  1.00148.93    -0.171 OA
ENDROOT
BRANCH  10  12
HETATM   12  C18 MIQ B 502     -12.235   3.997  16.008  1.00139.82     0.187 C 
HETATM   13  C19 MIQ B 502     -12.715   5.186  16.850  1.00140.06     0.247 C 
HETATM   14  O25 MIQ B 502     -13.260   4.982  17.876  1.00143.95    -0.271 OA
HETATM   15  N20 MIQ B 502     -12.511   6.555  16.424  1.00140.02    -0.296 N 
HETATM   16  H13 MIQ B 502     -12.834   7.322  16.980  1.00142.77     0.171 HD
HETATM   17  C21 MIQ B 502     -11.852   6.778  15.163  1.00142.22     0.224 C 
HETATM   18  C22 MIQ B 502     -12.104   5.756  14.072  1.00139.52     0.106 C 
HETATM   19  O24 MIQ B 502     -11.145   7.710  14.991  1.00146.13    -0.273 OA
HETATM   20  C23 MIQ B 502     -11.694   4.409  14.640  1.00139.15     0.045 C 
ENDBRANCH  10  12
BRANCH   5  21
HETATM   21  N6  MIQ B 502     -17.112  -1.767  15.686  1.00140.95    -0.377 N 
HETATM   22  C7  MIQ B 502     -18.555  -1.937  15.677  1.00142.12     0.149 C 
HETATM   23  C8  MIQ B 502     -18.984  -3.197  16.418  1.00144.10     0.187 C 
HETATM   24  O9  MIQ B 502     -18.248  -4.323  16.046  1.00148.65    -0.388 OA
HETATM   25  C10 MIQ B 502     -17.105  -4.192  15.254  1.00147.44     0.187 C 
HETATM   26  C11 MIQ B 502     -16.280  -2.915  15.370  1.00144.08     0.149 C 
ENDBRANCH   5  21
TORSDOF 2
ENDMDL
