MODEL 1
REMARK VINA RESULT:      -7.5      0.000      0.000
REMARK  2 active torsions:
REMARK  status: ('A' for Active; 'I' for Inactive)
REMARK    1  A    between atoms: C5_5  and  N6_21 
REMARK    2  A    between atoms: C18_14  and  N17_19 
ROOT
HETATM    1  O1  MIQ B 502      14.961   6.223   5.504  1.00142.91    -0.171 OA
HETATM    2  C2  MIQ B 502      15.065   7.614   5.581  1.00141.17     0.195 A 
HETATM    3  C3  MIQ B 502      15.396   8.581   4.400  1.00141.71     0.035 A 
HETATM    4  C4  MIQ B 502      15.677   8.371   2.960  1.00142.86     0.046 A 
HETATM    5  C5  MIQ B 502      15.949   9.476   2.114  1.00139.53     0.031 A 
HETATM    6  C12 MIQ B 502      15.952  10.824   2.665  1.00139.38     0.030 A 
HETATM    7  C13 MIQ B 502      15.681  11.025   4.046  1.00141.18     0.019 A 
HETATM    8  C14 MIQ B 502      15.394   9.861   4.928  1.00138.77     0.033 A 
HETATM    9  C15 MIQ B 502      15.059   9.689   6.445  1.00142.10     0.195 A 
HETATM   10  N17 MIQ B 502      14.904   8.389   6.640  1.00139.42    -0.288 N 
HETATM   11  O16 MIQ B 502      14.949  10.703   7.398  1.00148.93    -0.171 OA
ENDROOT
BRANCH  10  12
HETATM   12  C18 MIQ B 502      14.597   7.851   7.951  1.00139.82     0.187 C 
HETATM   13  C19 MIQ B 502      15.643   6.776   8.273  1.00140.06     0.247 C 
HETATM   14  O25 MIQ B 502      16.788   7.036   8.161  1.00143.95    -0.271 OA
HETATM   15  N20 MIQ B 502      15.264   5.451   8.717  1.00140.02    -0.296 N 
HETATM   16  H13 MIQ B 502      15.956   4.756   8.918  1.00142.77     0.171 HD
HETATM   17  C21 MIQ B 502      13.860   5.155   8.836  1.00142.22     0.224 C 
HETATM   18  C22 MIQ B 502      12.934   5.831   7.843  1.00139.52     0.106 C 
HETATM   19  O24 MIQ B 502      13.451   4.426   9.672  1.00146.13    -0.273 OA
HETATM   20  C23 MIQ B 502      13.163   7.324   7.987  1.00139.15     0.045 C 
ENDBRANCH  10  12
BRANCH   5  21
HETATM   21  N6  MIQ B 502      16.237   9.255   0.709  1.00140.95    -0.377 N 
HETATM   22  C7  MIQ B 502      15.543   8.182   0.018  1.00142.12     0.149 C 
HETATM   23  C8  MIQ B 502      16.348   7.651  -1.161  1.00144.10     0.187 C 
HETATM   24  O9  MIQ B 502      16.844   8.666  -1.982  1.00148.65    -0.388 OA
HETATM   25  C10 MIQ B 502      16.774  10.001  -1.576  1.00147.44     0.187 C 
HETATM   26  C11 MIQ B 502      16.834  10.315  -0.085  1.00144.08     0.149 C 
ENDBRANCH   5  21
TORSDOF 2
ENDMDL
MODEL 2
REMARK VINA RESULT:      -7.3      2.257      7.913
REMARK  2 active torsions:
REMARK  status: ('A' for Active; 'I' for Inactive)
REMARK    1  A    between atoms: C5_5  and  N6_21 
REMARK    2  A    between atoms: C18_14  and  N17_19 
ROOT
HETATM    1  O1  MIQ B 502      15.438   8.498   2.633  1.00142.91    -0.171 OA
HETATM    2  C2  MIQ B 502      16.353   8.849   3.628  1.00141.17     0.195 A 
HETATM    3  C3  MIQ B 502      16.336   8.358   5.111  1.00141.71     0.035 A 
HETATM    4  C4  MIQ B 502      15.444   7.453   5.875  1.00142.86     0.046 A 
HETATM    5  C5  MIQ B 502      15.692   7.192   7.246  1.00139.53     0.031 A 
HETATM    6  C12 MIQ B 502      16.830   7.817   7.906  1.00139.38     0.030 A 
HETATM    7  C13 MIQ B 502      17.685   8.684   7.174  1.00141.18     0.019 A 
HETATM    8  C14 MIQ B 502      17.421   8.952   5.734  1.00138.77     0.033 A 
HETATM    9  C15 MIQ B 502      18.116   9.816   4.632  1.00142.10     0.195 A 
HETATM   10  N17 MIQ B 502      17.403   9.646   3.531  1.00139.42    -0.288 N 
HETATM   11  O16 MIQ B 502      19.256  10.607   4.785  1.00148.93    -0.171 OA
ENDROOT
BRANCH  10  12
HETATM   12  C18 MIQ B 502      17.750  10.318   2.292  1.00139.82     0.187 C 
HETATM   13  C19 MIQ B 502      16.490  11.019   1.772  1.00140.06     0.247 C 
HETATM   14  O25 MIQ B 502      15.880  11.721   2.498  1.00143.95    -0.271 OA
HETATM   15  N20 MIQ B 502      16.028  10.849   0.410  1.00140.02    -0.296 N 
HETATM   16  H13 MIQ B 502      15.200  11.308   0.084  1.00142.77     0.171 HD
HETATM   17  C21 MIQ B 502      16.783   9.979  -0.455  1.00142.22     0.224 C 
HETATM   18  C22 MIQ B 502      17.444   8.779   0.196  1.00139.52     0.106 C 
HETATM   19  O24 MIQ B 502      16.886  10.195  -1.612  1.00146.13    -0.273 OA
HETATM   20  C23 MIQ B 502      18.339   9.322   1.294  1.00139.15     0.045 C 
ENDBRANCH  10  12
BRANCH   5  21
HETATM   21  N6  MIQ B 502      14.802   6.316   7.985  1.00140.95    -0.377 N 
HETATM   22  C7  MIQ B 502      13.444   6.138   7.503  1.00142.12     0.149 C 
HETATM   23  C8  MIQ B 502      12.484   5.772   8.628  1.00144.10     0.187 C 
HETATM   24  O9  MIQ B 502      12.968   4.745   9.442  1.00148.65    -0.388 OA
HETATM   25  C10 MIQ B 502      14.291   4.313   9.324  1.00147.44     0.187 C 
HETATM   26  C11 MIQ B 502      15.351   5.318   8.887  1.00144.08     0.149 C 
ENDBRANCH   5  21
TORSDOF 2
ENDMDL
MODEL 3
REMARK VINA RESULT:      -7.0      1.937      8.291
REMARK  2 active torsions:
REMARK  status: ('A' for Active; 'I' for Inactive)
REMARK    1  A    between atoms: C5_5  and  N6_21 
REMARK    2  A    between atoms: C18_14  and  N17_19 
ROOT
HETATM    1  O1  MIQ B 502      15.609   7.689   0.154  1.00142.91    -0.171 OA
HETATM    2  C2  MIQ B 502      16.002   8.811   0.887  1.00141.17     0.195 A 
HETATM    3  C3  MIQ B 502      15.859   9.001   2.431  1.00141.71     0.035 A 
HETATM    4  C4  MIQ B 502      15.322   8.147   3.517  1.00142.86     0.046 A 
HETATM    5  C5  MIQ B 502      15.329   8.606   4.859  1.00139.53     0.031 A 
HETATM    6  C12 MIQ B 502      15.869   9.922   5.170  1.00139.38     0.030 A 
HETATM    7  C13 MIQ B 502      16.385  10.740   4.129  1.00141.18     0.019 A 
HETATM    8  C14 MIQ B 502      16.376  10.252   2.722  1.00138.77     0.033 A 
HETATM    9  C15 MIQ B 502      16.844  10.843   1.352  1.00142.10     0.195 A 
HETATM   10  N17 MIQ B 502      16.567   9.921   0.444  1.00139.42    -0.288 N 
HETATM   11  O16 MIQ B 502      17.430  12.091   1.136  1.00148.93    -0.171 OA
ENDROOT
BRANCH  10  12
HETATM   12  C18 MIQ B 502      16.854  10.133  -0.962  1.00139.82     0.187 C 
HETATM   13  C19 MIQ B 502      15.580   9.810  -1.753  1.00140.06     0.247 C 
HETATM   14  O25 MIQ B 502      14.561  10.309  -1.431  1.00143.95    -0.271 OA
HETATM   15  N20 MIQ B 502      15.594   8.913  -2.890  1.00140.02    -0.296 N 
HETATM   16  H13 MIQ B 502      14.754   8.706  -3.394  1.00142.77     0.171 HD
HETATM   17  C21 MIQ B 502      16.848   8.309  -3.257  1.00142.22     0.224 C 
HETATM   18  C22 MIQ B 502      17.808   7.990  -2.127  1.00139.52     0.106 C 
HETATM   19  O24 MIQ B 502      17.117   8.078  -4.385  1.00146.13    -0.273 OA
HETATM   20  C23 MIQ B 502      18.057   9.295  -1.392  1.00139.15     0.045 C 
ENDBRANCH  10  12
BRANCH   5  21
HETATM   21  N6  MIQ B 502      14.787   7.765   5.911  1.00140.95    -0.377 N 
HETATM   22  C7  MIQ B 502      15.316   6.422   6.069  1.00142.12     0.149 C 
HETATM   23  C8  MIQ B 502      14.298   5.480   6.699  1.00144.10     0.187 C 
HETATM   24  O9  MIQ B 502      13.688   6.019   7.834  1.00148.65    -0.388 OA
HETATM   25  C10 MIQ B 502      13.865   7.366   8.160  1.00147.44     0.187 C 
HETATM   26  C11 MIQ B 502      14.084   8.367   7.030  1.00144.08     0.149 C 
ENDBRANCH   5  21
TORSDOF 2
ENDMDL
MODEL 4
REMARK VINA RESULT:      -6.9      4.718      7.376
REMARK  2 active torsions:
REMARK  status: ('A' for Active; 'I' for Inactive)
REMARK    1  A    between atoms: C5_5  and  N6_21 
REMARK    2  A    between atoms: C18_14  and  N17_19 
ROOT
HETATM    1  O1  MIQ B 502      16.302   7.400   9.329  1.00142.91    -0.171 OA
HETATM    2  C2  MIQ B 502      16.703   8.236   8.285  1.00141.17     0.195 A 
HETATM    3  C3  MIQ B 502      17.927   9.207   8.299  1.00141.71     0.035 A 
HETATM    4  C4  MIQ B 502      18.961   9.528   9.311  1.00142.86     0.046 A 
HETATM    5  C5  MIQ B 502      19.974  10.477   9.024  1.00139.53     0.031 A 
HETATM    6  C12 MIQ B 502      19.998  11.139   7.728  1.00139.38     0.030 A 
HETATM    7  C13 MIQ B 502      19.007  10.831   6.757  1.00141.18     0.019 A 
HETATM    8  C14 MIQ B 502      17.947   9.832   7.063  1.00138.77     0.033 A 
HETATM    9  C15 MIQ B 502      16.730   9.246   6.277  1.00142.10     0.195 A 
HETATM   10  N17 MIQ B 502      16.151   8.379   7.092  1.00139.42    -0.288 N 
HETATM   11  O16 MIQ B 502      16.335   9.576   4.979  1.00148.93    -0.171 OA
ENDROOT
BRANCH  10  12
HETATM   12  C18 MIQ B 502      14.964   7.645   6.698  1.00139.82     0.187 C 
HETATM   13  C19 MIQ B 502      13.785   8.188   7.515  1.00140.06     0.247 C 
HETATM   14  O25 MIQ B 502      13.593   9.352   7.545  1.00143.95    -0.271 OA
HETATM   15  N20 MIQ B 502      12.895   7.311   8.247  1.00140.02    -0.296 N 
HETATM   16  H13 MIQ B 502      12.133   7.679   8.782  1.00142.77     0.171 HD
HETATM   17  C21 MIQ B 502      13.155   5.896   8.203  1.00142.22     0.224 C 
HETATM   18  C22 MIQ B 502      14.609   5.473   8.118  1.00139.52     0.106 C 
HETATM   19  O24 MIQ B 502      12.277   5.105   8.227  1.00146.13    -0.273 OA
HETATM   20  C23 MIQ B 502      15.181   6.143   6.882  1.00139.15     0.045 C 
ENDBRANCH  10  12
BRANCH   5  21
HETATM   21  N6  MIQ B 502      20.972  10.793  10.030  1.00140.95    -0.377 N 
HETATM   22  C7  MIQ B 502      22.251  11.328   9.596  1.00142.12     0.149 C 
HETATM   23  C8  MIQ B 502      23.365  11.011  10.585  1.00144.10     0.187 C 
HETATM   24  O9  MIQ B 502      23.017  11.296  11.907  1.00148.65    -0.388 OA
HETATM   25  C10 MIQ B 502      21.696  11.610  12.238  1.00147.44     0.187 C 
HETATM   26  C11 MIQ B 502      20.571  10.997  11.411  1.00144.08     0.149 C 
ENDBRANCH   5  21
TORSDOF 2
ENDMDL
MODEL 5
REMARK VINA RESULT:      -6.9      1.997      2.579
REMARK  2 active torsions:
REMARK  status: ('A' for Active; 'I' for Inactive)
REMARK    1  A    between atoms: C5_5  and  N6_21 
REMARK    2  A    between atoms: C18_14  and  N17_19 
ROOT
HETATM    1  O1  MIQ B 502      14.880   7.559   3.967  1.00142.91    -0.171 OA
HETATM    2  C2  MIQ B 502      15.984   8.413   3.906  1.00141.17     0.195 A 
HETATM    3  C3  MIQ B 502      16.509   9.153   2.635  1.00141.71     0.035 A 
HETATM    4  C4  MIQ B 502      16.060   9.196   1.223  1.00142.86     0.046 A 
HETATM    5  C5  MIQ B 502      16.759   9.983   0.272  1.00139.53     0.031 A 
HETATM    6  C12 MIQ B 502      17.922  10.753   0.687  1.00139.38     0.030 A 
HETATM    7  C13 MIQ B 502      18.352  10.713   2.041  1.00141.18     0.019 A 
HETATM    8  C14 MIQ B 502      17.613   9.887   3.035  1.00138.77     0.033 A 
HETATM    9  C15 MIQ B 502      17.775   9.602   4.564  1.00142.10     0.195 A 
HETATM   10  N17 MIQ B 502      16.795   8.773   4.886  1.00139.42    -0.288 N 
HETATM   11  O16 MIQ B 502      18.757  10.117   5.411  1.00148.93    -0.171 OA
ENDROOT
BRANCH  10  12
HETATM   12  C18 MIQ B 502      16.640   8.274   6.240  1.00139.82     0.187 C 
HETATM   13  C19 MIQ B 502      16.489   6.750   6.161  1.00140.06     0.247 C 
HETATM   14  O25 MIQ B 502      17.278   6.123   5.549  1.00143.95    -0.271 OA
HETATM   15  N20 MIQ B 502      15.404   6.055   6.825  1.00140.02    -0.296 N 
HETATM   16  H13 MIQ B 502      15.313   5.060   6.760  1.00142.77     0.171 HD
HETATM   17  C21 MIQ B 502      14.447   6.843   7.558  1.00142.22     0.224 C 
HETATM   18  C22 MIQ B 502      14.138   8.222   7.009  1.00139.52     0.106 C 
HETATM   19  O24 MIQ B 502      13.933   6.434   8.540  1.00146.13    -0.273 OA
HETATM   20  C23 MIQ B 502      15.461   8.961   6.928  1.00139.15     0.045 C 
ENDBRANCH  10  12
BRANCH   5  21
HETATM   21  N6  MIQ B 502      16.317  10.004  -1.110  1.00140.95    -0.377 N 
HETATM   22  C7  MIQ B 502      15.800   8.777  -1.693  1.00142.12     0.149 C 
HETATM   23  C8  MIQ B 502      15.987   8.743  -3.204  1.00144.10     0.187 C 
HETATM   24  O9  MIQ B 502      15.574   9.921  -3.830  1.00148.65    -0.388 OA
HETATM   25  C10 MIQ B 502      15.259  11.052  -3.072  1.00147.44     0.187 C 
HETATM   26  C11 MIQ B 502      15.981  11.266  -1.746  1.00144.08     0.149 C 
ENDBRANCH   5  21
TORSDOF 2
ENDMDL
MODEL 6
REMARK VINA RESULT:      -6.9      1.943      8.316
REMARK  2 active torsions:
REMARK  status: ('A' for Active; 'I' for Inactive)
REMARK    1  A    between atoms: C5_5  and  N6_21 
REMARK    2  A    between atoms: C18_14  and  N17_19 
ROOT
HETATM    1  O1  MIQ B 502      15.516   7.887   0.412  1.00142.91    -0.171 OA
HETATM    2  C2  MIQ B 502      16.113   9.018   0.974  1.00141.17     0.195 A 
HETATM    3  C3  MIQ B 502      16.108   9.410   2.486  1.00141.71     0.035 A 
HETATM    4  C4  MIQ B 502      15.533   8.781   3.699  1.00142.86     0.046 A 
HETATM    5  C5  MIQ B 502      15.699   9.390   4.968  1.00139.53     0.031 A 
HETATM    6  C12 MIQ B 502      16.439  10.639   5.080  1.00139.38     0.030 A 
HETATM    7  C13 MIQ B 502      16.991  11.241   3.917  1.00141.18     0.019 A 
HETATM    8  C14 MIQ B 502      16.816  10.596   2.587  1.00138.77     0.033 A 
HETATM    9  C15 MIQ B 502      17.264  10.942   1.130  1.00142.10     0.195 A 
HETATM   10  N17 MIQ B 502      16.798   9.970   0.363  1.00139.42    -0.288 N 
HETATM   11  O16 MIQ B 502      18.004  12.055   0.725  1.00148.93    -0.171 OA
ENDROOT
BRANCH  10  12
HETATM   12  C18 MIQ B 502      17.012   9.968  -1.072  1.00139.82     0.187 C 
HETATM   13  C19 MIQ B 502      15.653   9.746  -1.747  1.00140.06     0.247 C 
HETATM   14  O25 MIQ B 502      14.739  10.425  -1.439  1.00143.95    -0.271 OA
HETATM   15  N20 MIQ B 502      15.461   8.728  -2.759  1.00140.02    -0.296 N 
HETATM   16  H13 MIQ B 502      14.567   8.589  -3.188  1.00142.77     0.171 HD
HETATM   17  C21 MIQ B 502      16.589   7.904  -3.111  1.00142.22     0.224 C 
HETATM   18  C22 MIQ B 502      17.571   7.584  -2.000  1.00139.52     0.106 C 
HETATM   19  O24 MIQ B 502      16.742   7.504  -4.212  1.00146.13    -0.273 OA
HETATM   20  C23 MIQ B 502      18.052   8.916  -1.453  1.00139.15     0.045 C 
ENDBRANCH  10  12
BRANCH   5  21
HETATM   21  N6  MIQ B 502      15.119   8.771   6.146  1.00140.95    -0.377 N 
HETATM   22  C7  MIQ B 502      14.401   9.611   7.090  1.00142.12     0.149 C 
HETATM   23  C8  MIQ B 502      14.420   9.030   8.497  1.00144.10     0.187 C 
HETATM   24  O9  MIQ B 502      14.085   7.675   8.530  1.00148.65    -0.388 OA
HETATM   25  C10 MIQ B 502      13.988   6.941   7.345  1.00147.44     0.187 C 
HETATM   26  C11 MIQ B 502      14.867   7.341   6.165  1.00144.08     0.149 C 
ENDBRANCH   5  21
TORSDOF 2
ENDMDL
MODEL 7
REMARK VINA RESULT:      -6.8      2.417      8.992
REMARK  2 active torsions:
REMARK  status: ('A' for Active; 'I' for Inactive)
REMARK    1  A    between atoms: C5_5  and  N6_21 
REMARK    2  A    between atoms: C18_14  and  N17_19 
ROOT
HETATM    1  O1  MIQ B 502      14.992   9.205  -1.036  1.00142.91    -0.171 OA
HETATM    2  C2  MIQ B 502      16.237   9.473  -0.461  1.00141.17     0.195 A 
HETATM    3  C3  MIQ B 502      16.640   9.219   1.026  1.00141.71     0.035 A 
HETATM    4  C4  MIQ B 502      15.919   8.665   2.197  1.00142.86     0.046 A 
HETATM    5  C5  MIQ B 502      16.569   8.554   3.452  1.00139.53     0.031 A 
HETATM    6  C12 MIQ B 502      17.953   8.986   3.590  1.00139.38     0.030 A 
HETATM    7  C13 MIQ B 502      18.644   9.516   2.467  1.00141.18     0.019 A 
HETATM    8  C14 MIQ B 502      17.957   9.628   1.152  1.00138.77     0.033 A 
HETATM    9  C15 MIQ B 502      18.375  10.139  -0.266  1.00142.10     0.195 A 
HETATM   10  N17 MIQ B 502      17.312   9.982  -1.038  1.00139.42    -0.288 N 
HETATM   11  O16 MIQ B 502      19.617  10.657  -0.635  1.00148.93    -0.171 OA
ENDROOT
BRANCH  10  12
HETATM   12  C18 MIQ B 502      17.328  10.369  -2.436  1.00139.82     0.187 C 
HETATM   13  C19 MIQ B 502      16.123  11.286  -2.681  1.00140.06     0.247 C 
HETATM   14  O25 MIQ B 502      15.948  12.211  -1.970  1.00143.95    -0.271 OA
HETATM   15  N20 MIQ B 502      15.193  11.051  -3.767  1.00140.02    -0.296 N 
HETATM   16  H13 MIQ B 502      14.407  11.653  -3.913  1.00142.77     0.171 HD
HETATM   17  C21 MIQ B 502      15.421   9.910  -4.616  1.00142.22     0.224 C 
HETATM   18  C22 MIQ B 502      16.026   8.684  -3.960  1.00139.52     0.106 C 
HETATM   19  O24 MIQ B 502      15.154   9.932  -5.767  1.00146.13    -0.273 OA
HETATM   20  C23 MIQ B 502      17.333   9.131  -3.331  1.00139.15     0.045 C 
ENDBRANCH  10  12
BRANCH   5  21
HETATM   21  N6  MIQ B 502      15.847   8.024   4.594  1.00140.95    -0.377 N 
HETATM   22  C7  MIQ B 502      16.283   6.762   5.167  1.00142.12     0.149 C 
HETATM   23  C8  MIQ B 502      15.143   6.029   5.862  1.00144.10     0.187 C 
HETATM   24  O9  MIQ B 502      14.411   6.853   6.720  1.00148.65    -0.388 OA
HETATM   25  C10 MIQ B 502      14.607   8.236   6.712  1.00147.44     0.187 C 
HETATM   26  C11 MIQ B 502      15.028   8.905   5.407  1.00144.08     0.149 C 
ENDBRANCH   5  21
TORSDOF 2
ENDMDL
MODEL 8
REMARK VINA RESULT:      -6.6      4.634      8.523
REMARK  2 active torsions:
REMARK  status: ('A' for Active; 'I' for Inactive)
REMARK    1  A    between atoms: C5_5  and  N6_21 
REMARK    2  A    between atoms: C18_14  and  N17_19 
ROOT
HETATM    1  O1  MIQ B 502      18.004  11.482   4.807  1.00142.91    -0.171 OA
HETATM    2  C2  MIQ B 502      17.741  10.296   5.496  1.00141.17     0.195 A 
HETATM    3  C3  MIQ B 502      18.279   9.914   6.913  1.00141.71     0.035 A 
HETATM    4  C4  MIQ B 502      19.148  10.606   7.893  1.00142.86     0.046 A 
HETATM    5  C5  MIQ B 502      19.467   9.989   9.129  1.00139.53     0.031 A 
HETATM    6  C12 MIQ B 502      18.937   8.668   9.436  1.00139.38     0.030 A 
HETATM    7  C13 MIQ B 502      18.103   8.005   8.496  1.00141.18     0.019 A 
HETATM    8  C14 MIQ B 502      17.769   8.659   7.201  1.00138.77     0.033 A 
HETATM    9  C15 MIQ B 502      16.910   8.259   5.957  1.00142.10     0.195 A 
HETATM   10  N17 MIQ B 502      16.999   9.272   5.111  1.00139.42    -0.288 N 
HETATM   11  O16 MIQ B 502      16.199   7.071   5.780  1.00148.93    -0.171 OA
ENDROOT
BRANCH  10  12
HETATM   12  C18 MIQ B 502      16.331   9.244   3.824  1.00139.82     0.187 C 
HETATM   13  C19 MIQ B 502      17.380   9.546   2.746  1.00140.06     0.247 C 
HETATM   14  O25 MIQ B 502      18.386   8.932   2.734  1.00143.95    -0.271 OA
HETATM   15  N20 MIQ B 502      17.167  10.564   1.737  1.00140.02    -0.296 N 
HETATM   16  H13 MIQ B 502      17.862  10.756   1.043  1.00142.77     0.171 HD
HETATM   17  C21 MIQ B 502      15.935  11.308   1.780  1.00142.22     0.224 C 
HETATM   18  C22 MIQ B 502      15.347  11.576   3.152  1.00139.52     0.106 C 
HETATM   19  O24 MIQ B 502      15.407  11.686   0.792  1.00146.13    -0.273 OA
HETATM   20  C23 MIQ B 502      15.157  10.222   3.812  1.00139.15     0.045 C 
ENDBRANCH  10  12
BRANCH   5  21
HETATM   21  N6  MIQ B 502      20.332  10.673  10.074  1.00140.95    -0.377 N 
HETATM   22  C7  MIQ B 502      21.615  11.170   9.608  1.00142.12     0.149 C 
HETATM   23  C8  MIQ B 502      22.635  11.257  10.735  1.00144.10     0.187 C 
HETATM   24  O9  MIQ B 502      22.132  11.883  11.877  1.00148.65    -0.388 OA
HETATM   25  C10 MIQ B 502      20.767  12.160  11.989  1.00147.44     0.187 C 
HETATM   26  C11 MIQ B 502      19.775  11.234  11.292  1.00144.08     0.149 C 
ENDBRANCH   5  21
TORSDOF 2
ENDMDL
MODEL 9
REMARK VINA RESULT:      -6.5      2.664      4.063
REMARK  2 active torsions:
REMARK  status: ('A' for Active; 'I' for Inactive)
REMARK    1  A    between atoms: C5_5  and  N6_21 
REMARK    2  A    between atoms: C18_14  and  N17_19 
ROOT
HETATM    1  O1  MIQ B 502      18.427  10.464   6.384  1.00142.91    -0.171 OA
HETATM    2  C2  MIQ B 502      17.331   9.623   6.178  1.00141.17     0.195 A 
HETATM    3  C3  MIQ B 502      16.741   9.200   4.794  1.00141.71     0.035 A 
HETATM    4  C4  MIQ B 502      17.106   9.512   3.392  1.00142.86     0.046 A 
HETATM    5  C5  MIQ B 502      16.361   8.963   2.318  1.00139.53     0.031 A 
HETATM    6  C12 MIQ B 502      15.232   8.086   2.596  1.00139.38     0.030 A 
HETATM    7  C13 MIQ B 502      14.883   7.786   3.940  1.00141.18     0.019 A 
HETATM    8  C14 MIQ B 502      15.669   8.364   5.063  1.00138.77     0.033 A 
HETATM    9  C15 MIQ B 502      15.595   8.266   6.622  1.00142.10     0.195 A 
HETATM   10  N17 MIQ B 502      16.582   9.016   7.083  1.00139.42    -0.288 N 
HETATM   11  O16 MIQ B 502      14.669   7.536   7.370  1.00148.93    -0.171 OA
ENDROOT
BRANCH  10  12
HETATM   12  C18 MIQ B 502      16.811   9.176   8.507  1.00139.82     0.187 C 
HETATM   13  C19 MIQ B 502      16.828  10.678   8.812  1.00140.06     0.247 C 
HETATM   14  O25 MIQ B 502      15.939  11.353   8.431  1.00143.95    -0.271 OA
HETATM   15  N20 MIQ B 502      17.903  11.294   9.562  1.00140.02    -0.296 N 
HETATM   16  H13 MIQ B 502      17.905  12.277   9.749  1.00142.77     0.171 HD
HETATM   17  C21 MIQ B 502      18.983  10.451  10.008  1.00142.22     0.224 C 
HETATM   18  C22 MIQ B 502      19.358   9.290   9.107  1.00139.52     0.106 C 
HETATM   19  O24 MIQ B 502      19.543  10.653  11.029  1.00146.13    -0.273 OA
HETATM   20  C23 MIQ B 502      18.098   8.464   8.921  1.00139.15     0.045 C 
ENDBRANCH  10  12
BRANCH   5  21
HETATM   21  N6  MIQ B 502      16.721   9.289   0.950  1.00140.95    -0.377 N 
HETATM   22  C7  MIQ B 502      18.076   9.737   0.676  1.00142.12     0.149 C 
HETATM   23  C8  MIQ B 502      18.143  10.621  -0.562  1.00144.10     0.187 C 
HETATM   24  O9  MIQ B 502      17.461  10.080  -1.654  1.00148.65    -0.388 OA
HETATM   25  C10 MIQ B 502      16.633   8.966  -1.490  1.00147.44     0.187 C 
HETATM   26  C11 MIQ B 502      15.929   8.771  -0.151  1.00144.08     0.149 C 
ENDBRANCH   5  21
TORSDOF 2
ENDMDL
