MODEL 1
REMARK VINA RESULT:      -6.9      0.000      0.000
REMARK  2 active torsions:
REMARK  status: ('A' for Active; 'I' for Inactive)
REMARK    1  A    between atoms: C5_5  and  N6_21 
REMARK    2  A    between atoms: C18_14  and  N17_19 
ROOT
HETATM    1  O1  MIQ B 502     -13.522  -5.399   5.505  1.00142.91    -0.171 OA
HETATM    2  C2  MIQ B 502     -13.979  -6.003   6.679  1.00141.17     0.195 A 
HETATM    3  C3  MIQ B 502     -13.295  -5.929   8.081  1.00141.71     0.035 A 
HETATM    4  C4  MIQ B 502     -12.069  -5.264   8.582  1.00142.86     0.046 A 
HETATM    5  C5  MIQ B 502     -11.696  -5.380   9.945  1.00139.53     0.031 A 
HETATM    6  C12 MIQ B 502     -12.524  -6.157  10.856  1.00139.38     0.030 A 
HETATM    7  C13 MIQ B 502     -13.701  -6.794  10.376  1.00141.18     0.019 A 
HETATM    8  C14 MIQ B 502     -14.088  -6.666   8.945  1.00138.77     0.033 A 
HETATM    9  C15 MIQ B 502     -15.272  -7.200   8.074  1.00142.10     0.195 A 
HETATM   10  N17 MIQ B 502     -15.062  -6.742   6.851  1.00139.42    -0.288 N 
HETATM   11  O16 MIQ B 502     -16.331  -8.001   8.505  1.00148.93    -0.171 OA
ENDROOT
BRANCH  10  12
HETATM   12  C18 MIQ B 502     -15.965  -7.055   5.760  1.00139.82     0.187 C 
HETATM   13  C19 MIQ B 502     -15.154  -7.774   4.674  1.00140.06     0.247 C 
HETATM   14  O25 MIQ B 502     -14.485  -8.699   4.972  1.00143.95    -0.271 OA
HETATM   15  N20 MIQ B 502     -15.190  -7.352   3.289  1.00140.02    -0.296 N 
HETATM   16  H13 MIQ B 502     -14.651  -7.825   2.591  1.00142.77     0.171 HD
HETATM   17  C21 MIQ B 502     -16.006  -6.214   2.952  1.00142.22     0.224 C 
HETATM   18  C22 MIQ B 502     -16.120  -5.123   3.999  1.00139.52     0.106 C 
HETATM   19  O24 MIQ B 502     -16.562  -6.138   1.911  1.00146.13    -0.273 OA
HETATM   20  C23 MIQ B 502     -16.652  -5.787   5.257  1.00139.15     0.045 C 
ENDBRANCH  10  12
BRANCH   5  21
HETATM   21  N6  MIQ B 502     -10.485  -4.736  10.419  1.00140.95    -0.377 N 
HETATM   22  C7  MIQ B 502     -10.322  -3.311  10.193  1.00142.12     0.149 C 
HETATM   23  C8  MIQ B 502      -8.854  -2.909  10.129  1.00144.10     0.187 C 
HETATM   24  O9  MIQ B 502      -8.100  -3.437  11.179  1.00148.65    -0.388 OA
HETATM   25  C10 MIQ B 502      -8.645  -4.408  12.023  1.00147.44     0.187 C 
HETATM   26  C11 MIQ B 502      -9.686  -5.367  11.455  1.00144.08     0.149 C 
ENDBRANCH   5  21
TORSDOF 2
ENDMDL
MODEL 2
REMARK VINA RESULT:      -6.3      6.620     10.518
REMARK  2 active torsions:
REMARK  status: ('A' for Active; 'I' for Inactive)
REMARK    1  A    between atoms: C5_5  and  N6_21 
REMARK    2  A    between atoms: C18_14  and  N17_19 
ROOT
HETATM    1  O1  MIQ B 502      -8.015  -3.885  16.538  1.00142.91    -0.171 OA
HETATM    2  C2  MIQ B 502      -7.592  -4.754  15.529  1.00141.17     0.195 A 
HETATM    3  C3  MIQ B 502      -6.471  -5.835  15.654  1.00141.71     0.035 A 
HETATM    4  C4  MIQ B 502      -5.580  -6.256  16.761  1.00142.86     0.046 A 
HETATM    5  C5  MIQ B 502      -4.637  -7.297  16.565  1.00139.53     0.031 A 
HETATM    6  C12 MIQ B 502      -4.546  -7.955  15.270  1.00139.38     0.030 A 
HETATM    7  C13 MIQ B 502      -5.400  -7.552  14.209  1.00141.18     0.019 A 
HETATM    8  C14 MIQ B 502      -6.390  -6.460  14.420  1.00138.77     0.033 A 
HETATM    9  C15 MIQ B 502      -7.467  -5.765  13.526  1.00142.10     0.195 A 
HETATM   10  N17 MIQ B 502      -8.041  -4.851  14.290  1.00139.42    -0.288 N 
HETATM   11  O16 MIQ B 502      -7.757  -6.052  12.191  1.00148.93    -0.171 OA
ENDROOT
BRANCH  10  12
HETATM   12  C18 MIQ B 502      -9.092  -3.989  13.781  1.00139.82     0.187 C 
HETATM   13  C19 MIQ B 502     -10.154  -4.883  13.128  1.00140.06     0.247 C 
HETATM   14  O25 MIQ B 502     -10.589  -5.797  13.734  1.00143.95    -0.271 OA
HETATM   15  N20 MIQ B 502     -10.645  -4.633  11.788  1.00140.02    -0.296 N 
HETATM   16  H13 MIQ B 502     -11.334  -5.227  11.371  1.00142.77     0.171 HD
HETATM   17  C21 MIQ B 502     -10.091  -3.517  11.065  1.00142.22     0.224 C 
HETATM   18  C22 MIQ B 502      -8.634  -3.189  11.330  1.00139.52     0.106 C 
HETATM   19  O24 MIQ B 502     -10.743  -2.887  10.307  1.00146.13    -0.273 OA
HETATM   20  C23 MIQ B 502      -8.511  -2.950  12.823  1.00139.15     0.045 C 
ENDBRANCH  10  12
BRANCH   5  21
HETATM   21  N6  MIQ B 502      -3.761  -7.690  17.654  1.00140.95    -0.377 N 
HETATM   22  C7  MIQ B 502      -2.464  -8.258  17.331  1.00142.12     0.149 C 
HETATM   23  C8  MIQ B 502      -1.955  -9.178  18.433  1.00144.10     0.187 C 
HETATM   24  O9  MIQ B 502      -2.058  -8.611  19.705  1.00148.65    -0.388 OA
HETATM   25  C10 MIQ B 502      -2.775  -7.427  19.896  1.00147.44     0.187 C 
HETATM   26  C11 MIQ B 502      -3.962  -7.138  18.982  1.00144.08     0.149 C 
ENDBRANCH   5  21
TORSDOF 2
ENDMDL
MODEL 3
REMARK VINA RESULT:      -6.3      1.643      2.224
REMARK  2 active torsions:
REMARK  status: ('A' for Active; 'I' for Inactive)
REMARK    1  A    between atoms: C5_5  and  N6_21 
REMARK    2  A    between atoms: C18_14  and  N17_19 
ROOT
HETATM    1  O1  MIQ B 502     -13.316  -3.857   6.350  1.00142.91    -0.171 OA
HETATM    2  C2  MIQ B 502     -13.340  -5.064   7.052  1.00141.17     0.195 A 
HETATM    3  C3  MIQ B 502     -12.499  -5.409   8.322  1.00141.71     0.035 A 
HETATM    4  C4  MIQ B 502     -11.505  -4.655   9.122  1.00142.86     0.046 A 
HETATM    5  C5  MIQ B 502     -10.895  -5.252  10.254  1.00139.53     0.031 A 
HETATM    6  C12 MIQ B 502     -11.248  -6.612  10.632  1.00139.38     0.030 A 
HETATM    7  C13 MIQ B 502     -12.202  -7.335   9.866  1.00141.18     0.019 A 
HETATM    8  C14 MIQ B 502     -12.841  -6.703   8.680  1.00138.77     0.033 A 
HETATM    9  C15 MIQ B 502     -13.901  -7.163   7.627  1.00142.10     0.195 A 
HETATM   10  N17 MIQ B 502     -14.064  -6.142   6.803  1.00139.42    -0.288 N 
HETATM   11  O16 MIQ B 502     -14.540  -8.403   7.571  1.00148.93    -0.171 OA
ENDROOT
BRANCH  10  12
HETATM   12  C18 MIQ B 502     -14.975  -6.216   5.676  1.00139.82     0.187 C 
HETATM   13  C19 MIQ B 502     -16.332  -6.701   6.202  1.00140.06     0.247 C 
HETATM   14  O25 MIQ B 502     -16.819  -6.154   7.127  1.00143.95    -0.271 OA
HETATM   15  N20 MIQ B 502     -17.036  -7.809   5.591  1.00140.02    -0.296 N 
HETATM   16  H13 MIQ B 502     -17.918  -8.120   5.948  1.00142.77     0.171 HD
HETATM   17  C21 MIQ B 502     -16.416  -8.466   4.469  1.00142.22     0.224 C 
HETATM   18  C22 MIQ B 502     -14.901  -8.543   4.477  1.00139.52     0.106 C 
HETATM   19  O24 MIQ B 502     -17.058  -8.918   3.586  1.00146.13    -0.273 OA
HETATM   20  C23 MIQ B 502     -14.398  -7.115   4.584  1.00139.15     0.045 C 
ENDBRANCH  10  12
BRANCH   5  21
HETATM   21  N6  MIQ B 502      -9.912  -4.507  11.020  1.00140.95    -0.377 N 
HETATM   22  C7  MIQ B 502      -9.002  -5.240  11.883  1.00142.12     0.149 C 
HETATM   23  C8  MIQ B 502      -8.513  -4.389  13.048  1.00144.10     0.187 C 
HETATM   24  O9  MIQ B 502      -8.070  -3.126  12.649  1.00148.65    -0.388 OA
HETATM   25  C10 MIQ B 502      -8.299  -2.674  11.348  1.00147.44     0.187 C 
HETATM   26  C11 MIQ B 502      -9.545  -3.161  10.615  1.00144.08     0.149 C 
ENDBRANCH   5  21
TORSDOF 2
ENDMDL
MODEL 4
REMARK VINA RESULT:      -6.1      2.317      8.932
REMARK  2 active torsions:
REMARK  status: ('A' for Active; 'I' for Inactive)
REMARK    1  A    between atoms: C5_5  and  N6_21 
REMARK    2  A    between atoms: C18_14  and  N17_19 
ROOT
HETATM    1  O1  MIQ B 502      -9.196  -3.495   9.730  1.00142.91    -0.171 OA
HETATM    2  C2  MIQ B 502      -9.872  -4.451  10.492  1.00141.17     0.195 A 
HETATM    3  C3  MIQ B 502     -11.147  -5.243  10.058  1.00141.71     0.035 A 
HETATM    4  C4  MIQ B 502     -11.974  -5.247   8.828  1.00142.86     0.046 A 
HETATM    5  C5  MIQ B 502     -13.102  -6.100   8.725  1.00139.53     0.031 A 
HETATM    6  C12 MIQ B 502     -13.447  -6.977   9.835  1.00139.38     0.030 A 
HETATM    7  C13 MIQ B 502     -12.654  -6.974  11.014  1.00141.18     0.019 A 
HETATM    8  C14 MIQ B 502     -11.470  -6.078  11.115  1.00138.77     0.033 A 
HETATM    9  C15 MIQ B 502     -10.389  -5.804  12.211  1.00142.10     0.195 A 
HETATM   10  N17 MIQ B 502      -9.583  -4.884  11.707  1.00139.42    -0.288 N 
HETATM   11  O16 MIQ B 502     -10.300  -6.408  13.466  1.00148.93    -0.171 OA
ENDROOT
BRANCH  10  12
HETATM   12  C18 MIQ B 502      -8.457  -4.367  12.463  1.00139.82     0.187 C 
HETATM   13  C19 MIQ B 502      -7.627  -5.564  12.943  1.00140.06     0.247 C 
HETATM   14  O25 MIQ B 502      -7.295  -6.384  12.163  1.00143.95    -0.271 OA
HETATM   15  N20 MIQ B 502      -7.234  -5.714  14.329  1.00140.02    -0.296 N 
HETATM   16  H13 MIQ B 502      -6.698  -6.504  14.631  1.00142.77     0.171 HD
HETATM   17  C21 MIQ B 502      -7.661  -4.705  15.264  1.00142.22     0.224 C 
HETATM   18  C22 MIQ B 502      -9.010  -4.063  15.004  1.00139.52     0.106 C 
HETATM   19  O24 MIQ B 502      -6.989  -4.392  16.184  1.00146.13    -0.273 OA
HETATM   20  C23 MIQ B 502      -8.947  -3.478  13.605  1.00139.15     0.045 C 
ENDBRANCH  10  12
BRANCH   5  21
HETATM   21  N6  MIQ B 502     -13.911  -6.084   7.521  1.00140.95    -0.377 N 
HETATM   22  C7  MIQ B 502     -15.269  -6.595   7.590  1.00142.12     0.149 C 
HETATM   23  C8  MIQ B 502     -15.751  -7.113   6.240  1.00144.10     0.187 C 
HETATM   24  O9  MIQ B 502     -15.502  -6.221   5.195  1.00148.65    -0.388 OA
HETATM   25  C10 MIQ B 502     -14.686  -5.104   5.398  1.00147.44     0.187 C 
HETATM   26  C11 MIQ B 502     -13.561  -5.199   6.423  1.00144.08     0.149 C 
ENDBRANCH   5  21
TORSDOF 2
ENDMDL
MODEL 5
REMARK VINA RESULT:      -6.0     19.474     22.955
REMARK  2 active torsions:
REMARK  status: ('A' for Active; 'I' for Inactive)
REMARK    1  A    between atoms: C5_5  and  N6_21 
REMARK    2  A    between atoms: C18_14  and  N17_19 
ROOT
HETATM    1  O1  MIQ B 502      -6.225   5.962  23.508  1.00142.91    -0.171 OA
HETATM    2  C2  MIQ B 502      -5.138   6.714  23.056  1.00141.17     0.195 A 
HETATM    3  C3  MIQ B 502      -5.038   8.272  23.039  1.00141.71     0.035 A 
HETATM    4  C4  MIQ B 502      -5.959   9.357  23.452  1.00142.86     0.046 A 
HETATM    5  C5  MIQ B 502      -5.576  10.715  23.312  1.00139.53     0.031 A 
HETATM    6  C12 MIQ B 502      -4.271  11.044  22.758  1.00139.38     0.030 A 
HETATM    7  C13 MIQ B 502      -3.387  10.004  22.362  1.00141.18     0.019 A 
HETATM    8  C14 MIQ B 502      -3.793   8.580  22.515  1.00138.77     0.033 A 
HETATM    9  C15 MIQ B 502      -3.116   7.205  22.206  1.00142.10     0.195 A 
HETATM   10  N17 MIQ B 502      -3.990   6.279  22.565  1.00139.42    -0.288 N 
HETATM   11  O16 MIQ B 502      -1.848   7.002  21.659  1.00148.93    -0.171 OA
ENDROOT
BRANCH  10  12
HETATM   12  C18 MIQ B 502      -3.704   4.866  22.405  1.00139.82     0.187 C 
HETATM   13  C19 MIQ B 502      -4.806   4.262  21.527  1.00140.06     0.247 C 
HETATM   14  O25 MIQ B 502      -5.071   4.776  20.499  1.00143.95    -0.271 OA
HETATM   15  N20 MIQ B 502      -5.531   3.071  21.922  1.00140.02    -0.296 N 
HETATM   16  H13 MIQ B 502      -6.253   2.690  21.343  1.00142.77     0.171 HD
HETATM   17  C21 MIQ B 502      -5.198   2.467  23.186  1.00142.22     0.224 C 
HETATM   18  C22 MIQ B 502      -4.772   3.406  24.299  1.00139.52     0.106 C 
HETATM   19  O24 MIQ B 502      -5.249   1.297  23.345  1.00146.13    -0.273 OA
HETATM   20  C23 MIQ B 502      -3.584   4.190  23.771  1.00139.15     0.045 C 
ENDBRANCH  10  12
BRANCH   5  21
HETATM   21  N6  MIQ B 502      -6.494  11.767  23.707  1.00140.95    -0.377 N 
HETATM   22  C7  MIQ B 502      -6.891  11.855  25.102  1.00142.12     0.149 C 
HETATM   23  C8  MIQ B 502      -8.257  12.509  25.265  1.00144.10     0.187 C 
HETATM   24  O9  MIQ B 502      -8.385  13.691  24.532  1.00148.65    -0.388 OA
HETATM   25  C10 MIQ B 502      -7.416  14.049  23.592  1.00147.44     0.187 C 
HETATM   26  C11 MIQ B 502      -6.658  12.941  22.868  1.00144.08     0.149 C 
ENDBRANCH   5  21
TORSDOF 2
ENDMDL
MODEL 6
REMARK VINA RESULT:      -6.0      2.603      8.304
REMARK  2 active torsions:
REMARK  status: ('A' for Active; 'I' for Inactive)
REMARK    1  A    between atoms: C5_5  and  N6_21 
REMARK    2  A    between atoms: C18_14  and  N17_19 
ROOT
HETATM    1  O1  MIQ B 502     -15.053  -9.527   6.434  1.00142.91    -0.171 OA
HETATM    2  C2  MIQ B 502     -14.766  -8.165   6.538  1.00141.17     0.195 A 
HETATM    3  C3  MIQ B 502     -15.125  -7.064   5.489  1.00141.71     0.035 A 
HETATM    4  C4  MIQ B 502     -15.817  -7.092   4.179  1.00142.86     0.046 A 
HETATM    5  C5  MIQ B 502     -15.999  -5.896   3.439  1.00139.53     0.031 A 
HETATM    6  C12 MIQ B 502     -15.504  -4.635   3.971  1.00139.38     0.030 A 
HETATM    7  C13 MIQ B 502     -14.842  -4.607   5.228  1.00141.18     0.019 A 
HETATM    8  C14 MIQ B 502     -14.655  -5.865   6.001  1.00138.77     0.033 A 
HETATM    9  C15 MIQ B 502     -14.002  -6.224   7.376  1.00142.10     0.195 A 
HETATM   10  N17 MIQ B 502     -14.151  -7.530   7.521  1.00139.42    -0.288 N 
HETATM   11  O16 MIQ B 502     -13.386  -5.341   8.264  1.00148.93    -0.171 OA
ENDROOT
BRANCH  10  12
HETATM   12  C18 MIQ B 502     -13.644  -8.225   8.690  1.00139.82     0.187 C 
HETATM   13  C19 MIQ B 502     -14.136  -7.471   9.932  1.00140.06     0.247 C 
HETATM   14  O25 MIQ B 502     -15.283  -7.216  10.034  1.00143.95    -0.271 OA
HETATM   15  N20 MIQ B 502     -13.231  -7.067  10.988  1.00140.02    -0.296 N 
HETATM   16  H13 MIQ B 502     -13.563  -6.570  11.791  1.00142.77     0.171 HD
HETATM   17  C21 MIQ B 502     -11.833  -7.380  10.836  1.00142.22     0.224 C 
HETATM   18  C22 MIQ B 502     -11.282  -7.364   9.423  1.00139.52     0.106 C 
HETATM   19  O24 MIQ B 502     -11.153  -7.642  11.766  1.00146.13    -0.273 OA
HETATM   20  C23 MIQ B 502     -12.122  -8.341   8.621  1.00139.15     0.045 C 
ENDBRANCH  10  12
BRANCH   5  21
HETATM   21  N6  MIQ B 502     -16.665  -5.941   2.150  1.00140.95    -0.377 N 
HETATM   22  C7  MIQ B 502     -16.738  -4.722   1.363  1.00142.12     0.149 C 
HETATM   23  C8  MIQ B 502     -17.940  -4.719   0.427  1.00144.10     0.187 C 
HETATM   24  O9  MIQ B 502     -18.066  -5.906  -0.298  1.00148.65    -0.388 OA
HETATM   25  C10 MIQ B 502     -17.283  -7.018   0.023  1.00147.44     0.187 C 
HETATM   26  C11 MIQ B 502     -16.850  -7.212   1.472  1.00144.08     0.149 C 
ENDBRANCH   5  21
TORSDOF 2
ENDMDL
MODEL 7
REMARK VINA RESULT:      -5.9      4.256      6.769
REMARK  2 active torsions:
REMARK  status: ('A' for Active; 'I' for Inactive)
REMARK    1  A    between atoms: C5_5  and  N6_21 
REMARK    2  A    between atoms: C18_14  and  N17_19 
ROOT
HETATM    1  O1  MIQ B 502     -18.353  -5.390   5.219  1.00142.91    -0.171 OA
HETATM    2  C2  MIQ B 502     -17.305  -5.790   6.050  1.00141.17     0.195 A 
HETATM    3  C3  MIQ B 502     -17.437  -6.305   7.519  1.00141.71     0.035 A 
HETATM    4  C4  MIQ B 502     -18.592  -6.519   8.423  1.00142.86     0.046 A 
HETATM    5  C5  MIQ B 502     -18.391  -7.011   9.738  1.00139.53     0.031 A 
HETATM    6  C12 MIQ B 502     -17.043  -7.308  10.200  1.00139.38     0.030 A 
HETATM    7  C13 MIQ B 502     -15.936  -7.103   9.333  1.00141.18     0.019 A 
HETATM    8  C14 MIQ B 502     -16.153  -6.588   7.953  1.00138.77     0.033 A 
HETATM    9  C15 MIQ B 502     -15.218  -6.249   6.747  1.00142.10     0.195 A 
HETATM   10  N17 MIQ B 502     -16.012  -5.825   5.778  1.00139.42    -0.288 N 
HETATM   11  O16 MIQ B 502     -13.828  -6.369   6.708  1.00148.93    -0.171 OA
ENDROOT
BRANCH  10  12
HETATM   12  C18 MIQ B 502     -15.481  -5.402   4.495  1.00139.82     0.187 C 
HETATM   13  C19 MIQ B 502     -16.032  -4.001   4.200  1.00140.06     0.247 C 
HETATM   14  O25 MIQ B 502     -15.930  -3.158   5.019  1.00143.95    -0.271 OA
HETATM   15  N20 MIQ B 502     -16.671  -3.681   2.940  1.00140.02    -0.296 N 
HETATM   16  H13 MIQ B 502     -17.033  -2.765   2.762  1.00142.77     0.171 HD
HETATM   17  C21 MIQ B 502     -16.794  -4.730   1.961  1.00142.22     0.224 C 
HETATM   18  C22 MIQ B 502     -16.998  -6.137   2.490  1.00139.52     0.106 C 
HETATM   19  O24 MIQ B 502     -16.732  -4.504   0.802  1.00146.13    -0.273 OA
HETATM   20  C23 MIQ B 502     -15.827  -6.424   3.413  1.00139.15     0.045 C 
ENDBRANCH  10  12
BRANCH   5  21
HETATM   21  N6  MIQ B 502     -19.529  -7.203  10.618  1.00140.95    -0.377 N 
HETATM   22  C7  MIQ B 502     -20.814  -7.538  10.028  1.00142.12     0.149 C 
HETATM   23  C8  MIQ B 502     -21.976  -7.086  10.903  1.00144.10     0.187 C 
HETATM   24  O9  MIQ B 502     -21.821  -7.449  12.242  1.00148.65    -0.388 OA
HETATM   25  C10 MIQ B 502     -20.604  -7.958  12.701  1.00147.44     0.187 C 
HETATM   26  C11 MIQ B 502     -19.318  -7.495  12.025  1.00144.08     0.149 C 
ENDBRANCH   5  21
TORSDOF 2
ENDMDL
MODEL 8
REMARK VINA RESULT:      -5.9      1.876      2.979
REMARK  2 active torsions:
REMARK  status: ('A' for Active; 'I' for Inactive)
REMARK    1  A    between atoms: C5_5  and  N6_21 
REMARK    2  A    between atoms: C18_14  and  N17_19 
ROOT
HETATM    1  O1  MIQ B 502     -16.831  -7.558   8.286  1.00142.91    -0.171 OA
HETATM    2  C2  MIQ B 502     -15.659  -6.955   7.823  1.00141.17     0.195 A 
HETATM    3  C3  MIQ B 502     -14.443  -6.511   8.697  1.00141.71     0.035 A 
HETATM    4  C4  MIQ B 502     -14.154  -6.575  10.149  1.00142.86     0.046 A 
HETATM    5  C5  MIQ B 502     -12.928  -6.078  10.659  1.00139.53     0.031 A 
HETATM    6  C12 MIQ B 502     -11.948  -5.502   9.749  1.00139.38     0.030 A 
HETATM    7  C13 MIQ B 502     -12.224  -5.441   8.356  1.00141.18     0.019 A 
HETATM    8  C14 MIQ B 502     -13.512  -5.967   7.827  1.00138.77     0.033 A 
HETATM    9  C15 MIQ B 502     -14.154  -6.075   6.405  1.00142.10     0.195 A 
HETATM   10  N17 MIQ B 502     -15.335  -6.645   6.580  1.00139.42    -0.288 N 
HETATM   11  O16 MIQ B 502     -13.591  -5.651   5.200  1.00148.93    -0.171 OA
ENDROOT
BRANCH  10  12
HETATM   12  C18 MIQ B 502     -16.229  -6.892   5.464  1.00139.82     0.187 C 
HETATM   13  C19 MIQ B 502     -15.459  -7.713   4.421  1.00140.06     0.247 C 
HETATM   14  O25 MIQ B 502     -14.897  -8.692   4.761  1.00143.95    -0.271 OA
HETATM   15  N20 MIQ B 502     -15.408  -7.322   3.028  1.00140.02    -0.296 N 
HETATM   16  H13 MIQ B 502     -14.897  -7.862   2.358  1.00142.77     0.171 HD
HETATM   17  C21 MIQ B 502     -16.094  -6.116   2.640  1.00142.22     0.224 C 
HETATM   18  C22 MIQ B 502     -16.133  -4.996   3.661  1.00139.52     0.106 C 
HETATM   19  O24 MIQ B 502     -16.606  -6.010   1.580  1.00146.13    -0.273 OA
HETATM   20  C23 MIQ B 502     -16.769  -5.574   4.912  1.00139.15     0.045 C 
ENDBRANCH  10  12
BRANCH   5  21
HETATM   21  N6  MIQ B 502     -12.664  -6.134  12.085  1.00140.95    -0.377 N 
HETATM   22  C7  MIQ B 502     -11.508  -5.425  12.606  1.00142.12     0.149 C 
HETATM   23  C8  MIQ B 502     -10.988  -6.054  13.892  1.00144.10     0.187 C 
HETATM   24  O9  MIQ B 502     -11.999  -6.310  14.820  1.00148.65    -0.388 OA
HETATM   25  C10 MIQ B 502     -13.342  -6.197  14.452  1.00147.44     0.187 C 
HETATM   26  C11 MIQ B 502     -13.730  -6.490  13.006  1.00144.08     0.149 C 
ENDBRANCH   5  21
TORSDOF 2
ENDMDL
MODEL 9
REMARK VINA RESULT:      -5.9     17.629     20.496
REMARK  2 active torsions:
REMARK  status: ('A' for Active; 'I' for Inactive)
REMARK    1  A    between atoms: C5_5  and  N6_21 
REMARK    2  A    between atoms: C18_14  and  N17_19 
ROOT
HETATM    1  O1  MIQ B 502      -7.203   3.713  25.652  1.00142.91    -0.171 OA
HETATM    2  C2  MIQ B 502      -6.578   3.396  24.443  1.00141.17     0.195 A 
HETATM    3  C3  MIQ B 502      -5.888   4.404  23.470  1.00141.71     0.035 A 
HETATM    4  C4  MIQ B 502      -5.683   5.872  23.499  1.00142.86     0.046 A 
HETATM    5  C5  MIQ B 502      -4.998   6.521  22.442  1.00139.53     0.031 A 
HETATM    6  C12 MIQ B 502      -4.493   5.741  21.321  1.00139.38     0.030 A 
HETATM    7  C13 MIQ B 502      -4.688   4.334  21.293  1.00141.18     0.019 A 
HETATM    8  C14 MIQ B 502      -5.406   3.657  22.407  1.00138.77     0.033 A 
HETATM    9  C15 MIQ B 502      -5.799   2.177  22.723  1.00142.10     0.195 A 
HETATM   10  N17 MIQ B 502      -6.437   2.208  23.882  1.00139.42    -0.288 N 
HETATM   11  O16 MIQ B 502      -5.531   1.055  21.937  1.00148.93    -0.171 OA
ENDROOT
BRANCH  10  12
HETATM   12  C18 MIQ B 502      -6.968   1.000  24.487  1.00139.82     0.187 C 
HETATM   13  C19 MIQ B 502      -5.840  -0.038  24.527  1.00140.06     0.247 C 
HETATM   14  O25 MIQ B 502      -4.797   0.263  24.988  1.00143.95    -0.271 OA
HETATM   15  N20 MIQ B 502      -6.021  -1.382  24.020  1.00140.02    -0.296 N 
HETATM   16  H13 MIQ B 502      -5.275  -2.049  24.046  1.00142.77     0.171 HD
HETATM   17  C21 MIQ B 502      -7.300  -1.723  23.452  1.00142.22     0.224 C 
HETATM   18  C22 MIQ B 502      -8.040  -0.615  22.727  1.00139.52     0.106 C 
HETATM   19  O24 MIQ B 502      -7.751  -2.810  23.553  1.00146.13    -0.273 OA
HETATM   20  C23 MIQ B 502      -8.200   0.520  23.721  1.00139.15     0.045 C 
ENDBRANCH  10  12
BRANCH   5  21
HETATM   21  N6  MIQ B 502      -4.818   7.961  22.476  1.00140.95    -0.377 N 
HETATM   22  C7  MIQ B 502      -5.867   8.779  23.059  1.00142.12     0.149 C 
HETATM   23  C8  MIQ B 502      -5.878  10.188  22.481  1.00144.10     0.187 C 
HETATM   24  O9  MIQ B 502      -4.611  10.774  22.453  1.00148.65    -0.388 OA
HETATM   25  C10 MIQ B 502      -3.472  10.010  22.720  1.00147.44     0.187 C 
HETATM   26  C11 MIQ B 502      -3.486   8.528  22.357  1.00144.08     0.149 C 
ENDBRANCH   5  21
TORSDOF 2
ENDMDL
