MODEL 1
REMARK VINA RESULT:      -6.7      0.000      0.000
REMARK  2 active torsions:
REMARK  status: ('A' for Active; 'I' for Inactive)
REMARK    1  A    between atoms: C5_5  and  N6_21 
REMARK    2  A    between atoms: C18_14  and  N17_19 
ROOT
HETATM    1  O1  MIQ B 502      -5.703  -4.631  12.975  1.00142.91    -0.171 OA
HETATM    2  C2  MIQ B 502      -5.333  -4.150  14.233  1.00141.17     0.195 A 
HETATM    3  C3  MIQ B 502      -5.057  -2.659  14.606  1.00141.71     0.035 A 
HETATM    4  C4  MIQ B 502      -5.094  -1.393  13.837  1.00142.86     0.046 A 
HETATM    5  C5  MIQ B 502      -4.787  -0.161  14.469  1.00139.53     0.031 A 
HETATM    6  C12 MIQ B 502      -4.434  -0.142  15.882  1.00139.38     0.030 A 
HETATM    7  C13 MIQ B 502      -4.400  -1.356  16.620  1.00141.18     0.019 A 
HETATM    8  C14 MIQ B 502      -4.726  -2.646  15.951  1.00138.77     0.033 A 
HETATM    9  C15 MIQ B 502      -4.797  -4.137  16.416  1.00142.10     0.195 A 
HETATM   10  N17 MIQ B 502      -5.148  -4.835  15.349  1.00139.42    -0.288 N 
HETATM   11  O16 MIQ B 502      -4.539  -4.626  17.697  1.00148.93    -0.171 OA
ENDROOT
BRANCH  10  12
HETATM   12  C18 MIQ B 502      -5.298  -6.277  15.403  1.00139.82     0.187 C 
HETATM   13  C19 MIQ B 502      -4.386  -6.884  14.329  1.00140.06     0.247 C 
HETATM   14  O25 MIQ B 502      -3.252  -6.560  14.287  1.00143.95    -0.271 OA
HETATM   15  N20 MIQ B 502      -4.876  -7.849  13.367  1.00140.02    -0.296 N 
HETATM   16  H13 MIQ B 502      -4.272  -8.232  12.667  1.00142.77     0.171 HD
HETATM   17  C21 MIQ B 502      -6.266  -8.220  13.432  1.00142.22     0.224 C 
HETATM   18  C22 MIQ B 502      -7.239  -7.143  13.873  1.00139.52     0.106 C 
HETATM   19  O24 MIQ B 502      -6.628  -9.311  13.159  1.00146.13    -0.273 OA
HETATM   20  C23 MIQ B 502      -6.766  -6.666  15.234  1.00139.15     0.045 C 
ENDBRANCH  10  12
BRANCH   5  21
HETATM   21  N6  MIQ B 502      -4.812   1.070  13.700  1.00140.95    -0.377 N 
HETATM   22  C7  MIQ B 502      -5.886   1.268  12.742  1.00142.12     0.149 C 
HETATM   23  C8  MIQ B 502      -5.473   2.200  11.610  1.00144.10     0.187 C 
HETATM   24  O9  MIQ B 502      -4.855   3.367  12.064  1.00148.65    -0.388 OA
HETATM   25  C10 MIQ B 502      -4.477   3.492  13.403  1.00147.44     0.187 C 
HETATM   26  C11 MIQ B 502      -4.082   2.234  14.171  1.00144.08     0.149 C 
ENDBRANCH   5  21
TORSDOF 2
ENDMDL
MODEL 2
REMARK VINA RESULT:      -6.4      1.565      2.172
REMARK  2 active torsions:
REMARK  status: ('A' for Active; 'I' for Inactive)
REMARK    1  A    between atoms: C5_5  and  N6_21 
REMARK    2  A    between atoms: C18_14  and  N17_19 
ROOT
HETATM    1  O1  MIQ B 502      -6.240  -3.628  12.437  1.00142.91    -0.171 OA
HETATM    2  C2  MIQ B 502      -5.504  -3.465  13.612  1.00141.17     0.195 A 
HETATM    3  C3  MIQ B 502      -5.021  -2.109  14.217  1.00141.71     0.035 A 
HETATM    4  C4  MIQ B 502      -5.168  -0.695  13.796  1.00142.86     0.046 A 
HETATM    5  C5  MIQ B 502      -4.605   0.347  14.575  1.00139.53     0.031 A 
HETATM    6  C12 MIQ B 502      -3.878   0.026  15.795  1.00139.38     0.030 A 
HETATM    7  C13 MIQ B 502      -3.738  -1.329  16.200  1.00141.18     0.019 A 
HETATM    8  C14 MIQ B 502      -4.333  -2.419  15.379  1.00138.77     0.033 A 
HETATM    9  C15 MIQ B 502      -4.390  -3.977  15.497  1.00142.10     0.195 A 
HETATM   10  N17 MIQ B 502      -5.073  -4.398  14.445  1.00139.42    -0.288 N 
HETATM   11  O16 MIQ B 502      -3.830  -4.760  16.507  1.00148.93    -0.171 OA
ENDROOT
BRANCH  10  12
HETATM   12  C18 MIQ B 502      -5.314  -5.810  14.214  1.00139.82     0.187 C 
HETATM   13  C19 MIQ B 502      -5.927  -6.395  15.492  1.00140.06     0.247 C 
HETATM   14  O25 MIQ B 502      -6.860  -5.864  15.979  1.00143.95    -0.271 OA
HETATM   15  N20 MIQ B 502      -5.395  -7.589  16.116  1.00140.02    -0.296 N 
HETATM   16  H13 MIQ B 502      -5.799  -7.958  16.954  1.00142.77     0.171 HD
HETATM   17  C21 MIQ B 502      -4.248  -8.215  15.509  1.00142.22     0.224 C 
HETATM   18  C22 MIQ B 502      -3.249  -7.295  14.833  1.00139.52     0.106 C 
HETATM   19  O24 MIQ B 502      -4.100  -9.387  15.531  1.00146.13    -0.273 OA
HETATM   20  C23 MIQ B 502      -4.022  -6.508  13.792  1.00139.15     0.045 C 
ENDBRANCH  10  12
BRANCH   5  21
HETATM   21  N6  MIQ B 502      -4.744   1.726  14.143  1.00140.95    -0.377 N 
HETATM   22  C7  MIQ B 502      -3.578   2.591  14.195  1.00142.12     0.149 C 
HETATM   23  C8  MIQ B 502      -3.964   4.056  14.351  1.00144.10     0.187 C 
HETATM   24  O9  MIQ B 502      -4.963   4.453  13.460  1.00148.65    -0.388 OA
HETATM   25  C10 MIQ B 502      -5.653   3.504  12.701  1.00147.44     0.187 C 
HETATM   26  C11 MIQ B 502      -5.851   2.109  13.284  1.00144.08     0.149 C 
ENDBRANCH   5  21
TORSDOF 2
ENDMDL
MODEL 3
REMARK VINA RESULT:      -6.2     20.588     22.737
REMARK  2 active torsions:
REMARK  status: ('A' for Active; 'I' for Inactive)
REMARK    1  A    between atoms: C5_5  and  N6_21 
REMARK    2  A    between atoms: C18_14  and  N17_19 
ROOT
HETATM    1  O1  MIQ B 502     -25.899  -7.904  19.655  1.00142.91    -0.171 OA
HETATM    2  C2  MIQ B 502     -26.061  -6.662  19.037  1.00141.17     0.195 A 
HETATM    3  C3  MIQ B 502     -26.576  -6.415  17.583  1.00141.71     0.035 A 
HETATM    4  C4  MIQ B 502     -27.020  -7.316  16.493  1.00142.86     0.046 A 
HETATM    5  C5  MIQ B 502     -27.444  -6.781  15.250  1.00139.53     0.031 A 
HETATM    6  C12 MIQ B 502     -27.445  -5.340  15.045  1.00139.38     0.030 A 
HETATM    7  C13 MIQ B 502     -27.021  -4.476  16.091  1.00141.18     0.019 A 
HETATM    8  C14 MIQ B 502     -26.578  -5.042  17.394  1.00138.77     0.033 A 
HETATM    9  C15 MIQ B 502     -26.063  -4.434  18.739  1.00142.10     0.195 A 
HETATM   10  N17 MIQ B 502     -25.826  -5.461  19.538  1.00139.42    -0.288 N 
HETATM   11  O16 MIQ B 502     -25.887  -3.080  19.031  1.00148.93    -0.171 OA
ENDROOT
BRANCH  10  12
HETATM   12  C18 MIQ B 502     -25.314  -5.273  20.883  1.00139.82     0.187 C 
HETATM   13  C19 MIQ B 502     -24.072  -6.159  21.039  1.00140.06     0.247 C 
HETATM   14  O25 MIQ B 502     -23.216  -6.098  20.230  1.00143.95    -0.271 OA
HETATM   15  N20 MIQ B 502     -23.917  -7.066  22.158  1.00140.02    -0.296 N 
HETATM   16  H13 MIQ B 502     -23.105  -7.644  22.245  1.00142.77     0.171 HD
HETATM   17  C21 MIQ B 502     -24.981  -7.129  23.127  1.00142.22     0.224 C 
HETATM   18  C22 MIQ B 502     -26.390  -6.924  22.607  1.00139.52     0.106 C 
HETATM   19  O24 MIQ B 502     -24.762  -7.325  24.272  1.00146.13    -0.273 OA
HETATM   20  C23 MIQ B 502     -26.402  -5.574  21.913  1.00139.15     0.045 C 
ENDBRANCH  10  12
BRANCH   5  21
HETATM   21  N6  MIQ B 502     -27.862  -7.676  14.186  1.00140.95    -0.377 N 
HETATM   22  C7  MIQ B 502     -26.904  -8.642  13.675  1.00142.12     0.149 C 
HETATM   23  C8  MIQ B 502     -27.203  -9.029  12.232  1.00144.10     0.187 C 
HETATM   24  O9  MIQ B 502     -28.545  -9.351  12.022  1.00148.65    -0.388 OA
HETATM   25  C10 MIQ B 502     -29.497  -9.095  13.012  1.00147.44     0.187 C 
HETATM   26  C11 MIQ B 502     -29.275  -7.913  13.950  1.00144.08     0.149 C 
ENDBRANCH   5  21
TORSDOF 2
ENDMDL
MODEL 4
REMARK VINA RESULT:      -6.1     16.549     18.074
REMARK  2 active torsions:
REMARK  status: ('A' for Active; 'I' for Inactive)
REMARK    1  A    between atoms: C5_5  and  N6_21 
REMARK    2  A    between atoms: C18_14  and  N17_19 
ROOT
HETATM    1  O1  MIQ B 502     -14.671 -11.871   4.817  1.00142.91    -0.171 OA
HETATM    2  C2  MIQ B 502     -15.963 -12.288   4.488  1.00141.17     0.195 A 
HETATM    3  C3  MIQ B 502     -17.038 -11.447   3.728  1.00141.71     0.035 A 
HETATM    4  C4  MIQ B 502     -17.047 -10.078   3.162  1.00142.86     0.046 A 
HETATM    5  C5  MIQ B 502     -18.204  -9.580   2.510  1.00139.53     0.031 A 
HETATM    6  C12 MIQ B 502     -19.388 -10.419   2.397  1.00139.38     0.030 A 
HETATM    7  C13 MIQ B 502     -19.379 -11.733   2.939  1.00141.18     0.019 A 
HETATM    8  C14 MIQ B 502     -18.161 -12.251   3.620  1.00138.77     0.033 A 
HETATM    9  C15 MIQ B 502     -17.780 -13.599   4.316  1.00142.10     0.195 A 
HETATM   10  N17 MIQ B 502     -16.535 -13.454   4.737  1.00139.42    -0.288 N 
HETATM   11  O16 MIQ B 502     -18.595 -14.723   4.462  1.00148.93    -0.171 OA
ENDROOT
BRANCH  10  12
HETATM   12  C18 MIQ B 502     -15.848 -14.513   5.451  1.00139.82     0.187 C 
HETATM   13  C19 MIQ B 502     -15.227 -13.901   6.713  1.00140.06     0.247 C 
HETATM   14  O25 MIQ B 502     -15.902 -13.252   7.430  1.00143.95    -0.271 OA
HETATM   15  N20 MIQ B 502     -13.834 -14.102   7.053  1.00140.02    -0.296 N 
HETATM   16  H13 MIQ B 502     -13.439 -13.692   7.876  1.00142.77     0.171 HD
HETATM   17  C21 MIQ B 502     -13.027 -14.890   6.156  1.00142.22     0.224 C 
HETATM   18  C22 MIQ B 502     -13.362 -14.797   4.680  1.00139.52     0.106 C 
HETATM   19  O24 MIQ B 502     -12.152 -15.577   6.554  1.00146.13    -0.273 OA
HETATM   20  C23 MIQ B 502     -14.822 -15.189   4.543  1.00139.15     0.045 C 
ENDBRANCH  10  12
BRANCH   5  21
HETATM   21  N6  MIQ B 502     -18.204  -8.231   1.973  1.00140.95    -0.377 N 
HETATM   22  C7  MIQ B 502     -19.275  -7.329   2.361  1.00142.12     0.149 C 
HETATM   23  C8  MIQ B 502     -19.530  -6.262   1.304  1.00144.10     0.187 C 
HETATM   24  O9  MIQ B 502     -18.359  -5.643   0.863  1.00148.65    -0.388 OA
HETATM   25  C10 MIQ B 502     -17.109  -6.158   1.218  1.00147.44     0.187 C 
HETATM   26  C11 MIQ B 502     -16.977  -7.660   1.445  1.00144.08     0.149 C 
ENDBRANCH   5  21
TORSDOF 2
ENDMDL
MODEL 5
REMARK VINA RESULT:      -6.1     15.200     16.647
REMARK  2 active torsions:
REMARK  status: ('A' for Active; 'I' for Inactive)
REMARK    1  A    between atoms: C5_5  and  N6_21 
REMARK    2  A    between atoms: C18_14  and  N17_19 
ROOT
HETATM    1  O1  MIQ B 502     -16.948 -11.473   4.616  1.00142.91    -0.171 OA
HETATM    2  C2  MIQ B 502     -17.297 -11.477   5.969  1.00141.17     0.195 A 
HETATM    3  C3  MIQ B 502     -17.766 -10.244   6.804  1.00141.71     0.035 A 
HETATM    4  C4  MIQ B 502     -17.978  -8.813   6.478  1.00142.86     0.046 A 
HETATM    5  C5  MIQ B 502     -18.422  -7.909   7.476  1.00139.53     0.031 A 
HETATM    6  C12 MIQ B 502     -18.671  -8.390   8.827  1.00139.38     0.030 A 
HETATM    7  C13 MIQ B 502     -18.469  -9.761   9.140  1.00141.18     0.019 A 
HETATM    8  C14 MIQ B 502     -18.005 -10.706   8.088  1.00138.77     0.033 A 
HETATM    9  C15 MIQ B 502     -17.683 -12.236   8.049  1.00142.10     0.195 A 
HETATM   10  N17 MIQ B 502     -17.310 -12.499   6.808  1.00139.42    -0.288 N 
HETATM   11  O16 MIQ B 502     -17.771 -13.136   9.113  1.00148.93    -0.171 OA
ENDROOT
BRANCH  10  12
HETATM   12  C18 MIQ B 502     -16.916 -13.836   6.402  1.00139.82     0.187 C 
HETATM   13  C19 MIQ B 502     -15.513 -13.744   5.790  1.00140.06     0.247 C 
HETATM   14  O25 MIQ B 502     -14.657 -13.196   6.389  1.00143.95    -0.271 OA
HETATM   15  N20 MIQ B 502     -15.206 -14.319   4.496  1.00140.02    -0.296 N 
HETATM   16  H13 MIQ B 502     -14.287 -14.247   4.104  1.00142.77     0.171 HD
HETATM   17  C21 MIQ B 502     -16.269 -14.974   3.779  1.00142.22     0.224 C 
HETATM   18  C22 MIQ B 502     -17.663 -14.404   3.958  1.00139.52     0.106 C 
HETATM   19  O24 MIQ B 502     -16.064 -15.912   3.091  1.00146.13    -0.273 OA
HETATM   20  C23 MIQ B 502     -17.951 -14.428   5.448  1.00139.15     0.045 C 
ENDBRANCH  10  12
BRANCH   5  21
HETATM   21  N6  MIQ B 502     -18.612  -6.508   7.146  1.00140.95    -0.377 N 
HETATM   22  C7  MIQ B 502     -19.826  -6.117   6.450  1.00142.12     0.149 C 
HETATM   23  C8  MIQ B 502     -19.626  -4.851   5.627  1.00144.10     0.187 C 
HETATM   24  O9  MIQ B 502     -18.992  -3.832   6.341  1.00148.65    -0.388 OA
HETATM   25  C10 MIQ B 502     -18.420  -4.093   7.588  1.00147.44     0.187 C 
HETATM   26  C11 MIQ B 502     -17.865  -5.487   7.859  1.00144.08     0.149 C 
ENDBRANCH   5  21
TORSDOF 2
ENDMDL
MODEL 6
REMARK VINA RESULT:      -6.1      4.433     10.887
REMARK  2 active torsions:
REMARK  status: ('A' for Active; 'I' for Inactive)
REMARK    1  A    between atoms: C5_5  and  N6_21 
REMARK    2  A    between atoms: C18_14  and  N17_19 
ROOT
HETATM    1  O1  MIQ B 502      -6.009  -8.976  16.688  1.00142.91    -0.171 OA
HETATM    2  C2  MIQ B 502      -6.070  -9.168  15.306  1.00141.17     0.195 A 
HETATM    3  C3  MIQ B 502      -5.956 -10.535  14.559  1.00141.71     0.035 A 
HETATM    4  C4  MIQ B 502      -5.769 -11.933  15.015  1.00142.86     0.046 A 
HETATM    5  C5  MIQ B 502      -5.703 -12.990  14.073  1.00139.53     0.031 A 
HETATM    6  C12 MIQ B 502      -5.822 -12.701  12.651  1.00139.38     0.030 A 
HETATM    7  C13 MIQ B 502      -6.002 -11.361  12.214  1.00141.18     0.019 A 
HETATM    8  C14 MIQ B 502      -6.073 -10.254  13.207  1.00138.77     0.033 A 
HETATM    9  C15 MIQ B 502      -6.261  -8.705  13.115  1.00142.10     0.195 A 
HETATM   10  N17 MIQ B 502      -6.239  -8.260  14.361  1.00139.42    -0.288 N 
HETATM   11  O16 MIQ B 502      -6.417  -7.950  11.951  1.00148.93    -0.171 OA
ENDROOT
BRANCH  10  12
HETATM   12  C18 MIQ B 502      -6.371  -6.846  14.662  1.00139.82     0.187 C 
HETATM   13  C19 MIQ B 502      -7.431  -6.264  13.719  1.00140.06     0.247 C 
HETATM   14  O25 MIQ B 502      -8.481  -6.797  13.633  1.00143.95    -0.271 OA
HETATM   15  N20 MIQ B 502      -7.183  -5.073  12.932  1.00140.02    -0.296 N 
HETATM   16  H13 MIQ B 502      -7.881  -4.707  12.316  1.00142.77     0.171 HD
HETATM   17  C21 MIQ B 502      -5.891  -4.448  13.046  1.00142.22     0.224 C 
HETATM   18  C22 MIQ B 502      -4.708  -5.366  13.284  1.00139.52     0.106 C 
HETATM   19  O24 MIQ B 502      -5.762  -3.276  12.963  1.00146.13    -0.273 OA
HETATM   20  C23 MIQ B 502      -5.017  -6.149  14.547  1.00139.15     0.045 C 
ENDBRANCH  10  12
BRANCH   5  21
HETATM   21  N6  MIQ B 502      -5.504 -14.353  14.532  1.00140.95    -0.377 N 
HETATM   22  C7  MIQ B 502      -4.521 -15.179  13.853  1.00142.12     0.149 C 
HETATM   23  C8  MIQ B 502      -4.849 -16.662  13.964  1.00144.10     0.187 C 
HETATM   24  O9  MIQ B 502      -5.159 -17.054  15.267  1.00148.65    -0.388 OA
HETATM   25  C10 MIQ B 502      -5.359 -16.097  16.266  1.00147.44     0.187 C 
HETATM   26  C11 MIQ B 502      -5.922 -14.736  15.869  1.00144.08     0.149 C 
ENDBRANCH   5  21
TORSDOF 2
ENDMDL
MODEL 7
REMARK VINA RESULT:      -6.0     16.395     18.304
REMARK  2 active torsions:
REMARK  status: ('A' for Active; 'I' for Inactive)
REMARK    1  A    between atoms: C5_5  and  N6_21 
REMARK    2  A    between atoms: C18_14  and  N17_19 
ROOT
HETATM    1  O1  MIQ B 502     -18.915 -11.240   8.410  1.00142.91    -0.171 OA
HETATM    2  C2  MIQ B 502     -18.581 -10.622   7.203  1.00141.17     0.195 A 
HETATM    3  C3  MIQ B 502     -17.506 -11.113   6.182  1.00141.71     0.035 A 
HETATM    4  C4  MIQ B 502     -16.583 -12.273   6.152  1.00142.86     0.046 A 
HETATM    5  C5  MIQ B 502     -15.700 -12.457   5.059  1.00139.53     0.031 A 
HETATM    6  C12 MIQ B 502     -15.700 -11.503   3.960  1.00139.38     0.030 A 
HETATM    7  C13 MIQ B 502     -16.585 -10.391   3.988  1.00141.18     0.019 A 
HETATM    8  C14 MIQ B 502     -17.512 -10.203   5.137  1.00138.77     0.033 A 
HETATM    9  C15 MIQ B 502     -18.598  -9.142   5.511  1.00142.10     0.195 A 
HETATM   10  N17 MIQ B 502     -19.093  -9.522   6.677  1.00139.42    -0.288 N 
HETATM   11  O16 MIQ B 502     -18.964  -8.022   4.763  1.00148.93    -0.171 OA
ENDROOT
BRANCH  10  12
HETATM   12  C18 MIQ B 502     -20.127  -8.755   7.347  1.00139.82     0.187 C 
HETATM   13  C19 MIQ B 502     -19.666  -8.510   8.790  1.00140.06     0.247 C 
HETATM   14  O25 MIQ B 502     -18.592  -8.064   8.983  1.00143.95    -0.271 OA
HETATM   15  N20 MIQ B 502     -20.518  -8.805   9.924  1.00140.02    -0.296 N 
HETATM   16  H13 MIQ B 502     -20.203  -8.647  10.861  1.00142.77     0.171 HD
HETATM   17  C21 MIQ B 502     -21.821  -9.359   9.662  1.00142.22     0.224 C 
HETATM   18  C22 MIQ B 502     -21.943 -10.277   8.461  1.00139.52     0.106 C 
HETATM   19  O24 MIQ B 502     -22.750  -9.105  10.348  1.00146.13    -0.273 OA
HETATM   20  C23 MIQ B 502     -21.468  -9.480   7.259  1.00139.15     0.045 C 
ENDBRANCH  10  12
BRANCH   5  21
HETATM   21  N6  MIQ B 502     -14.791 -13.590   5.050  1.00140.95    -0.377 N 
HETATM   22  C7  MIQ B 502     -13.718 -13.627   6.029  1.00142.12     0.149 C 
HETATM   23  C8  MIQ B 502     -12.528 -14.440   5.537  1.00144.10     0.187 C 
HETATM   24  O9  MIQ B 502     -12.897 -15.679   5.009  1.00148.65    -0.388 OA
HETATM   25  C10 MIQ B 502     -14.242 -15.974   4.771  1.00147.44     0.187 C 
HETATM   26  C11 MIQ B 502     -15.187 -14.833   4.412  1.00144.08     0.149 C 
ENDBRANCH   5  21
TORSDOF 2
ENDMDL
MODEL 8
REMARK VINA RESULT:      -5.8     16.864     18.119
REMARK  2 active torsions:
REMARK  status: ('A' for Active; 'I' for Inactive)
REMARK    1  A    between atoms: C5_5  and  N6_21 
REMARK    2  A    between atoms: C18_14  and  N17_19 
ROOT
HETATM    1  O1  MIQ B 502     -18.747 -13.730   4.498  1.00142.91    -0.171 OA
HETATM    2  C2  MIQ B 502     -17.516 -13.075   4.425  1.00141.17     0.195 A 
HETATM    3  C3  MIQ B 502     -17.253 -11.674   3.786  1.00141.71     0.035 A 
HETATM    4  C4  MIQ B 502     -18.125 -10.678   3.120  1.00142.86     0.046 A 
HETATM    5  C5  MIQ B 502     -17.582  -9.463   2.631  1.00139.53     0.031 A 
HETATM    6  C12 MIQ B 502     -16.160  -9.194   2.785  1.00139.38     0.030 A 
HETATM    7  C13 MIQ B 502     -15.323 -10.148   3.425  1.00141.18     0.019 A 
HETATM    8  C14 MIQ B 502     -15.899 -11.421   3.938  1.00138.77     0.033 A 
HETATM    9  C15 MIQ B 502     -15.319 -12.671   4.676  1.00142.10     0.195 A 
HETATM   10  N17 MIQ B 502     -16.342 -13.487   4.872  1.00139.42    -0.288 N 
HETATM   11  O16 MIQ B 502     -13.990 -12.880   5.047  1.00148.93    -0.171 OA
ENDROOT
BRANCH  10  12
HETATM   12  C18 MIQ B 502     -16.172 -14.771   5.526  1.00139.82     0.187 C 
HETATM   13  C19 MIQ B 502     -15.398 -14.535   6.828  1.00140.06     0.247 C 
HETATM   14  O25 MIQ B 502     -15.773 -13.705   7.579  1.00143.95    -0.271 OA
HETATM   15  N20 MIQ B 502     -14.220 -15.306   7.168  1.00140.02    -0.296 N 
HETATM   16  H13 MIQ B 502     -13.720 -15.137   8.018  1.00142.77     0.171 HD
HETATM   17  C21 MIQ B 502     -13.775 -16.305   6.231  1.00142.22     0.224 C 
HETATM   18  C22 MIQ B 502     -13.992 -16.005   4.761  1.00139.52     0.106 C 
HETATM   19  O24 MIQ B 502     -13.270 -17.311   6.593  1.00146.13    -0.273 OA
HETATM   20  C23 MIQ B 502     -15.480 -15.758   4.586  1.00139.15     0.045 C 
ENDBRANCH  10  12
BRANCH   5  21
HETATM   21  N6  MIQ B 502     -18.446  -8.503   1.968  1.00140.95    -0.377 N 
HETATM   22  C7  MIQ B 502     -19.757  -8.240   2.535  1.00142.12     0.149 C 
HETATM   23  C8  MIQ B 502     -20.750  -7.773   1.479  1.00144.10     0.187 C 
HETATM   24  O9  MIQ B 502     -20.240  -6.762   0.662  1.00148.65    -0.388 OA
HETATM   25  C10 MIQ B 502     -18.883  -6.431   0.710  1.00147.44     0.187 C 
HETATM   26  C11 MIQ B 502     -17.877  -7.524   1.058  1.00144.08     0.149 C 
ENDBRANCH   5  21
TORSDOF 2
ENDMDL
MODEL 9
REMARK VINA RESULT:      -5.8      4.347      6.821
REMARK  2 active torsions:
REMARK  status: ('A' for Active; 'I' for Inactive)
REMARK    1  A    between atoms: C5_5  and  N6_21 
REMARK    2  A    between atoms: C18_14  and  N17_19 
ROOT
HETATM    1  O1  MIQ B 502      -7.589  -7.610  15.690  1.00142.91    -0.171 OA
HETATM    2  C2  MIQ B 502      -6.827  -6.470  15.956  1.00141.17     0.195 A 
HETATM    3  C3  MIQ B 502      -6.937  -5.562  17.222  1.00141.71     0.035 A 
HETATM    4  C4  MIQ B 502      -7.789  -5.602  18.434  1.00142.86     0.046 A 
HETATM    5  C5  MIQ B 502      -7.653  -4.612  19.440  1.00139.53     0.031 A 
HETATM    6  C12 MIQ B 502      -6.669  -3.551  19.280  1.00139.38     0.030 A 
HETATM    7  C13 MIQ B 502      -5.850  -3.513  18.119  1.00141.18     0.019 A 
HETATM    8  C14 MIQ B 502      -5.996  -4.556  17.068  1.00138.77     0.033 A 
HETATM    9  C15 MIQ B 502      -5.299  -4.842  15.698  1.00142.10     0.195 A 
HETATM   10  N17 MIQ B 502      -5.872  -5.933  15.216  1.00139.42    -0.288 N 
HETATM   11  O16 MIQ B 502      -4.280  -4.093  15.107  1.00148.93    -0.171 OA
ENDROOT
BRANCH  10  12
HETATM   12  C18 MIQ B 502      -5.482  -6.490  13.935  1.00139.82     0.187 C 
HETATM   13  C19 MIQ B 502      -6.749  -6.638  13.084  1.00140.06     0.247 C 
HETATM   14  O25 MIQ B 502      -7.471  -5.712  12.960  1.00143.95    -0.271 OA
HETATM   15  N20 MIQ B 502      -7.084  -7.881  12.421  1.00140.02    -0.296 N 
HETATM   16  H13 MIQ B 502      -7.918  -7.966  11.874  1.00142.77     0.171 HD
HETATM   17  C21 MIQ B 502      -6.193  -8.999  12.595  1.00142.22     0.224 C 
HETATM   18  C22 MIQ B 502      -5.492  -9.109  13.935  1.00139.52     0.106 C 
HETATM   19  O24 MIQ B 502      -6.016  -9.788  11.733  1.00146.13    -0.273 OA
HETATM   20  C23 MIQ B 502      -4.735  -7.808  14.134  1.00139.15     0.045 C 
ENDBRANCH  10  12
BRANCH   5  21
HETATM   21  N6  MIQ B 502      -8.504  -4.655  20.614  1.00140.95    -0.377 N 
HETATM   22  C7  MIQ B 502      -8.410  -3.574  21.581  1.00142.12     0.149 C 
HETATM   23  C8  MIQ B 502      -8.816  -4.024  22.978  1.00144.10     0.187 C 
HETATM   24  O9  MIQ B 502     -10.018  -4.734  22.993  1.00148.65    -0.388 OA
HETATM   25  C10 MIQ B 502     -10.607  -5.153  21.797  1.00147.44     0.187 C 
HETATM   26  C11 MIQ B 502      -9.702  -5.477  20.612  1.00144.08     0.149 C 
ENDBRANCH   5  21
TORSDOF 2
ENDMDL
