MODEL 1
REMARK VINA RESULT:      -7.6      0.000      0.000
REMARK  2 active torsions:
REMARK  status: ('A' for Active; 'I' for Inactive)
REMARK    1  A    between atoms: C5_5  and  N6_21 
REMARK    2  A    between atoms: C18_14  and  N17_19 
ROOT
HETATM    1  O1  MIQ B 502       7.854  -1.126  -6.061  1.00142.91    -0.171 OA
HETATM    2  C2  MIQ B 502       7.380   0.138  -6.421  1.00141.17     0.195 A 
HETATM    3  C3  MIQ B 502       7.551   0.824  -7.814  1.00141.71     0.035 A 
HETATM    4  C4  MIQ B 502       8.198   0.410  -9.082  1.00142.86     0.046 A 
HETATM    5  C5  MIQ B 502       8.187   1.273 -10.206  1.00139.53     0.031 A 
HETATM    6  C12 MIQ B 502       7.537   2.572 -10.115  1.00139.38     0.030 A 
HETATM    7  C13 MIQ B 502       6.915   2.969  -8.900  1.00141.18     0.019 A 
HETATM    8  C14 MIQ B 502       6.927   2.058  -7.723  1.00138.77     0.033 A 
HETATM    9  C15 MIQ B 502       6.366   2.137  -6.266  1.00142.10     0.195 A 
HETATM   10  N17 MIQ B 502       6.700   0.998  -5.683  1.00139.42    -0.288 N 
HETATM   11  O16 MIQ B 502       5.659   3.200  -5.699  1.00148.93    -0.171 OA
ENDROOT
BRANCH  10  12
HETATM   12  C18 MIQ B 502       6.353   0.723  -4.301  1.00139.82     0.187 C 
HETATM   13  C19 MIQ B 502       4.849   0.979  -4.137  1.00140.06     0.247 C 
HETATM   14  O25 MIQ B 502       4.094   0.474  -4.889  1.00143.95    -0.271 OA
HETATM   15  N20 MIQ B 502       4.329   1.820  -3.078  1.00140.02    -0.296 N 
HETATM   16  H13 MIQ B 502       3.346   1.984  -2.986  1.00142.77     0.171 HD
HETATM   17  C21 MIQ B 502       5.271   2.433  -2.179  1.00142.22     0.224 C 
HETATM   18  C22 MIQ B 502       6.614   2.828  -2.764  1.00139.52     0.106 C 
HETATM   19  O24 MIQ B 502       5.011   2.614  -1.041  1.00146.13    -0.273 OA
HETATM   20  C23 MIQ B 502       7.212   1.566  -3.360  1.00139.15     0.045 C 
ENDBRANCH  10  12
BRANCH   5  21
HETATM   21  N6  MIQ B 502       8.838   0.861 -11.437  1.00140.95    -0.377 N 
HETATM   22  C7  MIQ B 502      10.135   1.430 -11.761  1.00142.12     0.149 C 
HETATM   23  C8  MIQ B 502      10.389   1.447 -13.263  1.00144.10     0.187 C 
HETATM   24  O9  MIQ B 502      10.103   0.225 -13.876  1.00148.65    -0.388 OA
HETATM   25  C10 MIQ B 502       9.437  -0.781 -13.172  1.00147.44     0.187 C 
HETATM   26  C11 MIQ B 502       8.446  -0.378 -12.085  1.00144.08     0.149 C 
ENDBRANCH   5  21
TORSDOF 2
ENDMDL
MODEL 2
REMARK VINA RESULT:      -7.5      1.707      2.231
REMARK  2 active torsions:
REMARK  status: ('A' for Active; 'I' for Inactive)
REMARK    1  A    between atoms: C5_5  and  N6_21 
REMARK    2  A    between atoms: C18_14  and  N17_19 
ROOT
HETATM    1  O1  MIQ B 502       4.970   0.478  -8.255  1.00142.91    -0.171 OA
HETATM    2  C2  MIQ B 502       6.266   0.924  -7.988  1.00141.17     0.195 A 
HETATM    3  C3  MIQ B 502       7.484   0.857  -8.964  1.00141.71     0.035 A 
HETATM    4  C4  MIQ B 502       7.654   0.356 -10.348  1.00142.86     0.046 A 
HETATM    5  C5  MIQ B 502       8.916   0.434 -10.989  1.00139.53     0.031 A 
HETATM    6  C12 MIQ B 502      10.051   1.011 -10.282  1.00139.38     0.030 A 
HETATM    7  C13 MIQ B 502       9.888   1.492  -8.955  1.00141.18     0.019 A 
HETATM    8  C14 MIQ B 502       8.560   1.410  -8.288  1.00138.77     0.033 A 
HETATM    9  C15 MIQ B 502       8.007   1.823  -6.885  1.00142.10     0.195 A 
HETATM   10  N17 MIQ B 502       6.727   1.488  -6.884  1.00139.42    -0.288 N 
HETATM   11  O16 MIQ B 502       8.724   2.420  -5.847  1.00148.93    -0.171 OA
ENDROOT
BRANCH  10  12
HETATM   12  C18 MIQ B 502       5.886   1.713  -5.723  1.00139.82     0.187 C 
HETATM   13  C19 MIQ B 502       6.002   3.193  -5.341  1.00140.06     0.247 C 
HETATM   14  O25 MIQ B 502       5.836   4.017  -6.170  1.00143.95    -0.271 OA
HETATM   15  N20 MIQ B 502       6.303   3.612  -3.987  1.00140.02    -0.296 N 
HETATM   16  H13 MIQ B 502       6.382   4.581  -3.752  1.00142.77     0.171 HD
HETATM   17  C21 MIQ B 502       6.510   2.588  -2.996  1.00142.22     0.224 C 
HETATM   18  C22 MIQ B 502       7.156   1.301  -3.470  1.00139.52     0.106 C 
HETATM   19  O24 MIQ B 502       6.188   2.744  -1.869  1.00146.13    -0.273 OA
HETATM   20  C23 MIQ B 502       6.281   0.767  -4.590  1.00139.15     0.045 C 
ENDBRANCH  10  12
BRANCH   5  21
HETATM   21  N6  MIQ B 502       9.072  -0.074 -12.340  1.00140.95    -0.377 N 
HETATM   22  C7  MIQ B 502      10.311   0.201 -13.047  1.00142.12     0.149 C 
HETATM   23  C8  MIQ B 502      10.115   0.207 -14.557  1.00144.10     0.187 C 
HETATM   24  O9  MIQ B 502       9.398  -0.899 -15.017  1.00148.65    -0.388 OA
HETATM   25  C10 MIQ B 502       8.758  -1.753 -14.114  1.00147.44     0.187 C 
HETATM   26  C11 MIQ B 502       8.242  -1.172 -12.802  1.00144.08     0.149 C 
ENDBRANCH   5  21
TORSDOF 2
ENDMDL
MODEL 3
REMARK VINA RESULT:      -7.3      2.216      2.667
REMARK  2 active torsions:
REMARK  status: ('A' for Active; 'I' for Inactive)
REMARK    1  A    between atoms: C5_5  and  N6_21 
REMARK    2  A    between atoms: C18_14  and  N17_19 
ROOT
HETATM    1  O1  MIQ B 502       4.883   0.416  -8.363  1.00142.91    -0.171 OA
HETATM    2  C2  MIQ B 502       6.165   0.872  -8.048  1.00141.17     0.195 A 
HETATM    3  C3  MIQ B 502       7.414   0.833  -8.985  1.00141.71     0.035 A 
HETATM    4  C4  MIQ B 502       7.634   0.354 -10.370  1.00142.86     0.046 A 
HETATM    5  C5  MIQ B 502       8.915   0.456 -10.969  1.00139.53     0.031 A 
HETATM    6  C12 MIQ B 502      10.020   1.034 -10.217  1.00139.38     0.030 A 
HETATM    7  C13 MIQ B 502       9.809   1.494  -8.889  1.00141.18     0.019 A 
HETATM    8  C14 MIQ B 502       8.461   1.387  -8.267  1.00138.77     0.033 A 
HETATM    9  C15 MIQ B 502       7.859   1.773  -6.877  1.00142.10     0.195 A 
HETATM   10  N17 MIQ B 502       6.583   1.425  -6.922  1.00139.42    -0.288 N 
HETATM   11  O16 MIQ B 502       8.535   2.362  -5.807  1.00148.93    -0.171 OA
ENDROOT
BRANCH  10  12
HETATM   12  C18 MIQ B 502       5.703   1.623  -5.785  1.00139.82     0.187 C 
HETATM   13  C19 MIQ B 502       5.027   0.281  -5.478  1.00140.06     0.247 C 
HETATM   14  O25 MIQ B 502       5.693  -0.685  -5.357  1.00143.95    -0.271 OA
HETATM   15  N20 MIQ B 502       3.591   0.166  -5.327  1.00140.02    -0.296 N 
HETATM   16  H13 MIQ B 502       3.161  -0.717  -5.133  1.00142.77     0.171 HD
HETATM   17  C21 MIQ B 502       2.798   1.358  -5.490  1.00142.22     0.224 C 
HETATM   18  C22 MIQ B 502       3.298   2.376  -6.497  1.00139.52     0.106 C 
HETATM   19  O24 MIQ B 502       1.811   1.533  -4.866  1.00146.13    -0.273 OA
HETATM   20  C23 MIQ B 502       4.708   2.746  -6.073  1.00139.15     0.045 C 
ENDBRANCH  10  12
BRANCH   5  21
HETATM   21  N6  MIQ B 502       9.119  -0.030 -12.321  1.00140.95    -0.377 N 
HETATM   22  C7  MIQ B 502      10.377   0.269 -12.984  1.00142.12     0.149 C 
HETATM   23  C8  MIQ B 502      10.228   0.296 -14.500  1.00144.10     0.187 C 
HETATM   24  O9  MIQ B 502       9.540  -0.812 -14.998  1.00148.65    -0.388 OA
HETATM   25  C10 MIQ B 502       8.883  -1.687 -14.129  1.00147.44     0.187 C 
HETATM   26  C11 MIQ B 502       8.318  -1.132 -12.825  1.00144.08     0.149 C 
ENDBRANCH   5  21
TORSDOF 2
ENDMDL
MODEL 4
REMARK VINA RESULT:      -7.3      4.645      7.781
REMARK  2 active torsions:
REMARK  status: ('A' for Active; 'I' for Inactive)
REMARK    1  A    between atoms: C5_5  and  N6_21 
REMARK    2  A    between atoms: C18_14  and  N17_19 
ROOT
HETATM    1  O1  MIQ B 502       8.072  -1.144  -6.062  1.00142.91    -0.171 OA
HETATM    2  C2  MIQ B 502       6.724  -1.082  -6.421  1.00141.17     0.195 A 
HETATM    3  C3  MIQ B 502       5.640  -2.167  -6.126  1.00141.71     0.035 A 
HETATM    4  C4  MIQ B 502       5.673  -3.480  -5.439  1.00142.86     0.046 A 
HETATM    5  C5  MIQ B 502       4.494  -4.259  -5.324  1.00139.53     0.031 A 
HETATM    6  C12 MIQ B 502       3.244  -3.764  -5.883  1.00139.38     0.030 A 
HETATM    7  C13 MIQ B 502       3.211  -2.505  -6.540  1.00141.18     0.019 A 
HETATM    8  C14 MIQ B 502       4.452  -1.691  -6.656  1.00138.77     0.033 A 
HETATM    9  C15 MIQ B 502       4.800  -0.302  -7.283  1.00142.10     0.195 A 
HETATM   10  N17 MIQ B 502       6.092  -0.116  -7.065  1.00139.42    -0.288 N 
HETATM   11  O16 MIQ B 502       3.923   0.561  -7.942  1.00148.93    -0.171 OA
ENDROOT
BRANCH  10  12
HETATM   12  C18 MIQ B 502       6.774   1.078  -7.529  1.00139.82     0.187 C 
HETATM   13  C19 MIQ B 502       5.946   2.291  -7.088  1.00140.06     0.247 C 
HETATM   14  O25 MIQ B 502       5.615   2.384  -5.960  1.00143.95    -0.271 OA
HETATM   15  N20 MIQ B 502       5.562   3.332  -8.019  1.00140.02    -0.296 N 
HETATM   16  H13 MIQ B 502       5.016   4.116  -7.721  1.00142.77     0.171 HD
HETATM   17  C21 MIQ B 502       5.969   3.192  -9.394  1.00142.22     0.224 C 
HETATM   18  C22 MIQ B 502       6.040   1.780  -9.942  1.00139.52     0.106 C 
HETATM   19  O24 MIQ B 502       6.239   4.131 -10.057  1.00146.13    -0.273 OA
HETATM   20  C23 MIQ B 502       6.990   1.013  -9.040  1.00139.15     0.045 C 
ENDBRANCH  10  12
BRANCH   5  21
HETATM   21  N6  MIQ B 502       4.544  -5.550  -4.662  1.00140.95    -0.377 N 
HETATM   22  C7  MIQ B 502       4.156  -6.731  -5.413  1.00142.12     0.149 C 
HETATM   23  C8  MIQ B 502       3.641  -7.840  -4.504  1.00144.10     0.187 C 
HETATM   24  O9  MIQ B 502       4.475  -8.076  -3.409  1.00148.65    -0.388 OA
HETATM   25  C10 MIQ B 502       5.521  -7.198  -3.114  1.00147.44     0.187 C 
HETATM   26  C11 MIQ B 502       5.360  -5.725  -3.473  1.00144.08     0.149 C 
ENDBRANCH   5  21
TORSDOF 2
ENDMDL
MODEL 5
REMARK VINA RESULT:      -7.3     22.261     24.470
REMARK  2 active torsions:
REMARK  status: ('A' for Active; 'I' for Inactive)
REMARK    1  A    between atoms: C5_5  and  N6_21 
REMARK    2  A    between atoms: C18_14  and  N17_19 
ROOT
HETATM    1  O1  MIQ B 502       7.907  -6.173  13.230  1.00142.91    -0.171 OA
HETATM    2  C2  MIQ B 502       7.634  -6.693  14.498  1.00141.17     0.195 A 
HETATM    3  C3  MIQ B 502       6.934  -8.056  14.804  1.00141.71     0.035 A 
HETATM    4  C4  MIQ B 502       6.388  -9.135  13.949  1.00142.86     0.046 A 
HETATM    5  C5  MIQ B 502       5.797 -10.284  14.534  1.00139.53     0.031 A 
HETATM    6  C12 MIQ B 502       5.728 -10.402  15.983  1.00139.38     0.030 A 
HETATM    7  C13 MIQ B 502       6.253  -9.367  16.804  1.00141.18     0.019 A 
HETATM    8  C14 MIQ B 502       6.874  -8.165  16.184  1.00138.77     0.033 A 
HETATM    9  C15 MIQ B 502       7.541  -6.863  16.737  1.00142.10     0.195 A 
HETATM   10  N17 MIQ B 502       7.908  -6.162  15.677  1.00139.42    -0.288 N 
HETATM   11  O16 MIQ B 502       7.711  -6.516  18.078  1.00148.93    -0.171 OA
ENDROOT
BRANCH  10  12
HETATM   12  C18 MIQ B 502       8.554  -4.870  15.810  1.00139.82     0.187 C 
HETATM   13  C19 MIQ B 502       7.822  -3.883  14.892  1.00140.06     0.247 C 
HETATM   14  O25 MIQ B 502       6.648  -3.797  14.959  1.00143.95    -0.271 OA
HETATM   15  N20 MIQ B 502       8.534  -3.048  13.946  1.00140.02    -0.296 N 
HETATM   16  H13 MIQ B 502       8.043  -2.413  13.348  1.00142.77     0.171 HD
HETATM   17  C21 MIQ B 502       9.966  -3.179  13.875  1.00142.22     0.224 C 
HETATM   18  C22 MIQ B 502      10.537  -4.561  14.128  1.00139.52     0.106 C 
HETATM   19  O24 MIQ B 502      10.660  -2.253  13.637  1.00146.13    -0.273 OA
HETATM   20  C23 MIQ B 502      10.045  -4.987  15.500  1.00139.15     0.045 C 
ENDBRANCH  10  12
BRANCH   5  21
HETATM   21  N6  MIQ B 502       5.252 -11.327  13.684  1.00140.95    -0.377 N 
HETATM   22  C7  MIQ B 502       4.896 -12.599  14.288  1.00142.12     0.149 C 
HETATM   23  C8  MIQ B 502       4.968 -13.744  13.286  1.00144.10     0.187 C 
HETATM   24  O9  MIQ B 502       4.324 -13.454  12.081  1.00148.65    -0.388 OA
HETATM   25  C10 MIQ B 502       3.890 -12.155  11.806  1.00147.44     0.187 C 
HETATM   26  C11 MIQ B 502       4.668 -10.985  12.399  1.00144.08     0.149 C 
ENDBRANCH   5  21
TORSDOF 2
ENDMDL
MODEL 6
REMARK VINA RESULT:      -7.2      4.920      7.835
REMARK  2 active torsions:
REMARK  status: ('A' for Active; 'I' for Inactive)
REMARK    1  A    between atoms: C5_5  and  N6_21 
REMARK    2  A    between atoms: C18_14  and  N17_19 
ROOT
HETATM    1  O1  MIQ B 502       6.430  -0.436  -5.841  1.00142.91    -0.171 OA
HETATM    2  C2  MIQ B 502       5.211  -1.029  -6.177  1.00141.17     0.195 A 
HETATM    3  C3  MIQ B 502       4.749  -2.470  -5.791  1.00141.71     0.035 A 
HETATM    4  C4  MIQ B 502       5.377  -3.569  -5.020  1.00142.86     0.046 A 
HETATM    5  C5  MIQ B 502       4.691  -4.795  -4.831  1.00139.53     0.031 A 
HETATM    6  C12 MIQ B 502       3.361  -4.974  -5.398  1.00139.38     0.030 A 
HETATM    7  C13 MIQ B 502       2.758  -3.920  -6.136  1.00141.18     0.019 A 
HETATM    8  C14 MIQ B 502       3.483  -2.634  -6.329  1.00138.77     0.033 A 
HETATM    9  C15 MIQ B 502       3.157  -1.287  -7.052  1.00142.10     0.195 A 
HETATM   10  N17 MIQ B 502       4.212  -0.510  -6.871  1.00139.42    -0.288 N 
HETATM   11  O16 MIQ B 502       1.989  -0.974  -7.749  1.00148.93    -0.171 OA
ENDROOT
BRANCH  10  12
HETATM   12  C18 MIQ B 502       4.271   0.830  -7.425  1.00139.82     0.187 C 
HETATM   13  C19 MIQ B 502       5.543   0.928  -8.276  1.00140.06     0.247 C 
HETATM   14  O25 MIQ B 502       5.755   0.104  -9.093  1.00143.95    -0.271 OA
HETATM   15  N20 MIQ B 502       6.491   2.011  -8.109  1.00140.02    -0.296 N 
HETATM   16  H13 MIQ B 502       7.322   2.060  -8.666  1.00142.77     0.171 HD
HETATM   17  C21 MIQ B 502       6.216   2.999  -7.098  1.00142.22     0.224 C 
HETATM   18  C22 MIQ B 502       5.507   2.515  -5.848  1.00139.52     0.106 C 
HETATM   19  O24 MIQ B 502       6.523   4.131  -7.241  1.00146.13    -0.273 OA
HETATM   20  C23 MIQ B 502       4.212   1.870  -6.308  1.00139.15     0.045 C 
ENDBRANCH  10  12
BRANCH   5  21
HETATM   21  N6  MIQ B 502       5.324  -5.869  -4.087  1.00140.95    -0.377 N 
HETATM   22  C7  MIQ B 502       6.481  -5.556  -3.266  1.00142.12     0.149 C 
HETATM   23  C8  MIQ B 502       7.393  -6.763  -3.086  1.00144.10     0.187 C 
HETATM   24  O9  MIQ B 502       6.700  -7.919  -2.725  1.00148.65    -0.388 OA
HETATM   25  C10 MIQ B 502       5.304  -7.951  -2.773  1.00147.44     0.187 C 
HETATM   26  C11 MIQ B 502       4.589  -7.090  -3.809  1.00144.08     0.149 C 
ENDBRANCH   5  21
TORSDOF 2
ENDMDL
MODEL 7
REMARK VINA RESULT:      -7.2     22.795     24.731
REMARK  2 active torsions:
REMARK  status: ('A' for Active; 'I' for Inactive)
REMARK    1  A    between atoms: C5_5  and  N6_21 
REMARK    2  A    between atoms: C18_14  and  N17_19 
ROOT
HETATM    1  O1  MIQ B 502       5.252  -5.985  17.661  1.00142.91    -0.171 OA
HETATM    2  C2  MIQ B 502       6.040  -6.140  16.519  1.00141.17     0.195 A 
HETATM    3  C3  MIQ B 502       6.894  -5.028  15.829  1.00141.71     0.035 A 
HETATM    4  C4  MIQ B 502       7.130  -3.595  16.125  1.00142.86     0.046 A 
HETATM    5  C5  MIQ B 502       7.981  -2.823  15.294  1.00139.53     0.031 A 
HETATM    6  C12 MIQ B 502       8.626  -3.442  14.146  1.00139.38     0.030 A 
HETATM    7  C13 MIQ B 502       8.401  -4.817  13.863  1.00141.18     0.019 A 
HETATM    8  C14 MIQ B 502       7.508  -5.623  14.740  1.00138.77     0.033 A 
HETATM    9  C15 MIQ B 502       7.034  -7.113  14.753  1.00142.10     0.195 A 
HETATM   10  N17 MIQ B 502       6.233  -7.232  15.798  1.00139.42    -0.288 N 
HETATM   11  O16 MIQ B 502       7.387  -8.110  13.842  1.00148.93    -0.171 OA
ENDROOT
BRANCH  10  12
HETATM   12  C18 MIQ B 502       5.587  -8.491  16.118  1.00139.82     0.187 C 
HETATM   13  C19 MIQ B 502       6.673  -9.573  16.177  1.00140.06     0.247 C 
HETATM   14  O25 MIQ B 502       7.632  -9.390  16.839  1.00143.95    -0.271 OA
HETATM   15  N20 MIQ B 502       6.552 -10.818  15.446  1.00140.02    -0.296 N 
HETATM   16  H13 MIQ B 502       7.271 -11.513  15.488  1.00142.77     0.171 HD
HETATM   17  C21 MIQ B 502       5.376 -11.013  14.637  1.00142.22     0.224 C 
HETATM   18  C22 MIQ B 502       4.787  -9.779  13.982  1.00139.52     0.106 C 
HETATM   19  O24 MIQ B 502       4.894 -12.083  14.497  1.00146.13    -0.273 OA
HETATM   20  C23 MIQ B 502       4.488  -8.798  15.101  1.00139.15     0.045 C 
ENDBRANCH  10  12
BRANCH   5  21
HETATM   21  N6  MIQ B 502       8.191  -1.417  15.587  1.00140.95    -0.377 N 
HETATM   22  C7  MIQ B 502       7.789  -0.910  16.888  1.00142.12     0.149 C 
HETATM   23  C8  MIQ B 502       7.459   0.576  16.842  1.00144.10     0.187 C 
HETATM   24  O9  MIQ B 502       8.432   1.329  16.183  1.00148.65    -0.388 OA
HETATM   25  C10 MIQ B 502       9.450   0.697  15.464  1.00147.44     0.187 C 
HETATM   26  C11 MIQ B 502       9.155  -0.651  14.815  1.00144.08     0.149 C 
ENDBRANCH   5  21
TORSDOF 2
ENDMDL
MODEL 8
REMARK VINA RESULT:      -7.0     22.508     24.538
REMARK  2 active torsions:
REMARK  status: ('A' for Active; 'I' for Inactive)
REMARK    1  A    between atoms: C5_5  and  N6_21 
REMARK    2  A    between atoms: C18_14  and  N17_19 
ROOT
HETATM    1  O1  MIQ B 502       7.534  -4.087  14.356  1.00142.91    -0.171 OA
HETATM    2  C2  MIQ B 502       8.204  -4.906  15.268  1.00141.17     0.195 A 
HETATM    3  C3  MIQ B 502       8.047  -6.454  15.405  1.00141.71     0.035 A 
HETATM    4  C4  MIQ B 502       7.229  -7.463  14.690  1.00142.86     0.046 A 
HETATM    5  C5  MIQ B 502       7.305  -8.832  15.049  1.00139.53     0.031 A 
HETATM    6  C12 MIQ B 502       8.193  -9.249  16.125  1.00139.38     0.030 A 
HETATM    7  C13 MIQ B 502       8.978  -8.283  16.810  1.00141.18     0.019 A 
HETATM    8  C14 MIQ B 502       8.896  -6.847  16.427  1.00138.77     0.033 A 
HETATM    9  C15 MIQ B 502       9.584  -5.535  16.927  1.00142.10     0.195 A 
HETATM   10  N17 MIQ B 502       9.094  -4.558  16.182  1.00139.42    -0.288 N 
HETATM   11  O16 MIQ B 502      10.523  -5.423  17.954  1.00148.93    -0.171 OA
ENDROOT
BRANCH  10  12
HETATM   12  C18 MIQ B 502       9.499  -3.179  16.378  1.00139.82     0.187 C 
HETATM   13  C19 MIQ B 502       8.229  -2.336  16.540  1.00140.06     0.247 C 
HETATM   14  O25 MIQ B 502       7.412  -2.670  17.323  1.00143.95    -0.271 OA
HETATM   15  N20 MIQ B 502       8.004  -1.135  15.762  1.00140.02    -0.296 N 
HETATM   16  H13 MIQ B 502       7.167  -0.597  15.873  1.00142.77     0.171 HD
HETATM   17  C21 MIQ B 502       9.010  -0.753  14.806  1.00142.22     0.224 C 
HETATM   18  C22 MIQ B 502       9.760  -1.879  14.120  1.00139.52     0.106 C 
HETATM   19  O24 MIQ B 502       9.242   0.382  14.572  1.00146.13    -0.273 OA
HETATM   20  C23 MIQ B 502      10.384  -2.715  15.222  1.00139.15     0.045 C 
ENDBRANCH  10  12
BRANCH   5  21
HETATM   21  N6  MIQ B 502       6.487  -9.807  14.351  1.00140.95    -0.377 N 
HETATM   22  C7  MIQ B 502       5.881 -10.882  15.118  1.00142.12     0.149 C 
HETATM   23  C8  MIQ B 502       5.629 -12.118  14.264  1.00144.10     0.187 C 
HETATM   24  O9  MIQ B 502       5.003 -11.823  13.052  1.00148.65    -0.388 OA
HETATM   25  C10 MIQ B 502       4.866 -10.498  12.630  1.00147.44     0.187 C 
HETATM   26  C11 MIQ B 502       5.926  -9.485  13.050  1.00144.08     0.149 C 
ENDBRANCH   5  21
TORSDOF 2
ENDMDL
MODEL 9
REMARK VINA RESULT:      -6.9     22.966     24.878
REMARK  2 active torsions:
REMARK  status: ('A' for Active; 'I' for Inactive)
REMARK    1  A    between atoms: C5_5  and  N6_21 
REMARK    2  A    between atoms: C18_14  and  N17_19 
ROOT
HETATM    1  O1  MIQ B 502       8.505  -8.742  17.217  1.00142.91    -0.171 OA
HETATM    2  C2  MIQ B 502       8.006  -8.290  15.994  1.00141.17     0.195 A 
HETATM    3  C3  MIQ B 502       7.057  -9.079  15.037  1.00141.71     0.035 A 
HETATM    4  C4  MIQ B 502       6.433 -10.422  15.100  1.00142.86     0.046 A 
HETATM    5  C5  MIQ B 502       5.594 -10.873  14.050  1.00139.53     0.031 A 
HETATM    6  C12 MIQ B 502       5.343 -10.010  12.904  1.00139.38     0.030 A 
HETATM    7  C13 MIQ B 502       5.940  -8.722  12.844  1.00141.18     0.019 A 
HETATM    8  C14 MIQ B 502       6.819  -8.253  13.950  1.00138.77     0.033 A 
HETATM    9  C15 MIQ B 502       7.624  -6.944  14.235  1.00142.10     0.195 A 
HETATM   10  N17 MIQ B 502       8.219  -7.127  15.402  1.00139.42    -0.288 N 
HETATM   11  O16 MIQ B 502       7.698  -5.814  13.418  1.00148.93    -0.171 OA
ENDROOT
BRANCH  10  12
HETATM   12  C18 MIQ B 502       9.076  -6.110  15.983  1.00139.82     0.187 C 
HETATM   13  C19 MIQ B 502       8.284  -4.798  16.023  1.00140.06     0.247 C 
HETATM   14  O25 MIQ B 502       7.205  -4.791  16.502  1.00143.95    -0.271 OA
HETATM   15  N20 MIQ B 502       8.825  -3.563  15.495  1.00140.02    -0.296 N 
HETATM   16  H13 MIQ B 502       8.294  -2.714  15.522  1.00142.77     0.171 HD
HETATM   17  C21 MIQ B 502      10.139  -3.599  14.907  1.00142.22     0.224 C 
HETATM   18  C22 MIQ B 502      10.528  -4.875  14.187  1.00139.52     0.106 C 
HETATM   19  O24 MIQ B 502      10.877  -2.679  14.988  1.00146.13    -0.273 OA
HETATM   20  C23 MIQ B 502      10.381  -6.001  15.195  1.00139.15     0.045 C 
ENDBRANCH  10  12
BRANCH   5  21
HETATM   21  N6  MIQ B 502       5.002 -12.197  14.118  1.00140.95    -0.377 N 
HETATM   22  C7  MIQ B 502       4.466 -12.781  12.901  1.00142.12     0.149 C 
HETATM   23  C8  MIQ B 502       3.361 -13.788  13.192  1.00144.10     0.187 C 
HETATM   24  O9  MIQ B 502       3.706 -14.701  14.191  1.00148.65    -0.388 OA
HETATM   25  C10 MIQ B 502       4.857 -14.507  14.959  1.00147.44     0.187 C 
HETATM   26  C11 MIQ B 502       5.326 -13.080  15.224  1.00144.08     0.149 C 
ENDBRANCH   5  21
TORSDOF 2
ENDMDL
