MODEL 1
REMARK VINA RESULT:      -8.4      0.000      0.000
REMARK  2 active torsions:
REMARK  status: ('A' for Active; 'I' for Inactive)
REMARK    1  A    between atoms: C5_5  and  N6_21 
REMARK    2  A    between atoms: C18_14  and  N17_19 
ROOT
HETATM    1  O1  MIQ B 502       0.872   4.798  -1.186  1.00142.91    -0.171 OA
HETATM    2  C2  MIQ B 502       2.221   4.797  -1.548  1.00141.17     0.195 A 
HETATM    3  C3  MIQ B 502       3.406   4.251  -0.689  1.00141.71     0.035 A 
HETATM    4  C4  MIQ B 502       3.488   3.619   0.649  1.00142.86     0.046 A 
HETATM    5  C5  MIQ B 502       4.741   3.217   1.177  1.00139.53     0.031 A 
HETATM    6  C12 MIQ B 502       5.953   3.428   0.398  1.00139.38     0.030 A 
HETATM    7  C13 MIQ B 502       5.875   4.033  -0.885  1.00141.18     0.019 A 
HETATM    8  C14 MIQ B 502       4.556   4.450  -1.434  1.00138.77     0.033 A 
HETATM    9  C15 MIQ B 502       4.083   5.122  -2.764  1.00142.10     0.195 A 
HETATM   10  N17 MIQ B 502       2.769   5.240  -2.667  1.00139.42    -0.288 N 
HETATM   11  O16 MIQ B 502       4.888   5.519  -3.833  1.00148.93    -0.171 OA
ENDROOT
BRANCH  10  12
HETATM   12  C18 MIQ B 502       1.981   5.843  -3.725  1.00139.82     0.187 C 
HETATM   13  C19 MIQ B 502       2.210   5.026  -5.003  1.00140.06     0.247 C 
HETATM   14  O25 MIQ B 502       2.077   3.854  -4.968  1.00143.95    -0.271 OA
HETATM   15  N20 MIQ B 502       2.580   5.653  -6.255  1.00140.02    -0.296 N 
HETATM   16  H13 MIQ B 502       2.733   5.107  -7.080  1.00142.77     0.171 HD
HETATM   17  C21 MIQ B 502       2.748   7.083  -6.269  1.00142.22     0.224 C 
HETATM   18  C22 MIQ B 502       3.288   7.719  -5.003  1.00139.52     0.106 C 
HETATM   19  O24 MIQ B 502       2.471   7.728  -7.221  1.00146.13    -0.273 OA
HETATM   20  C23 MIQ B 502       2.345   7.319  -3.883  1.00139.15     0.045 C 
ENDBRANCH  10  12
BRANCH   5  21
HETATM   21  N6  MIQ B 502       4.808   2.612   2.494  1.00140.95    -0.377 N 
HETATM   22  C7  MIQ B 502       3.795   2.966   3.474  1.00142.12     0.149 C 
HETATM   23  C8  MIQ B 502       4.305   2.815   4.901  1.00144.10     0.187 C 
HETATM   24  O9  MIQ B 502       4.948   1.595   5.121  1.00148.65    -0.388 OA
HETATM   25  C10 MIQ B 502       5.262   0.756   4.049  1.00147.44     0.187 C 
HETATM   26  C11 MIQ B 502       5.562   1.387   2.693  1.00144.08     0.149 C 
ENDBRANCH   5  21
TORSDOF 2
ENDMDL
MODEL 2
REMARK VINA RESULT:      -8.2      1.820      2.538
REMARK  2 active torsions:
REMARK  status: ('A' for Active; 'I' for Inactive)
REMARK    1  A    between atoms: C5_5  and  N6_21 
REMARK    2  A    between atoms: C18_14  and  N17_19 
ROOT
HETATM    1  O1  MIQ B 502       4.684   7.564  -1.583  1.00142.91    -0.171 OA
HETATM    2  C2  MIQ B 502       4.123   6.482  -2.265  1.00141.17     0.195 A 
HETATM    3  C3  MIQ B 502       4.079   5.002  -1.769  1.00141.71     0.035 A 
HETATM    4  C4  MIQ B 502       4.560   4.323  -0.543  1.00142.86     0.046 A 
HETATM    5  C5  MIQ B 502       4.367   2.929  -0.372  1.00139.53     0.031 A 
HETATM    6  C12 MIQ B 502       3.692   2.161  -1.409  1.00139.38     0.030 A 
HETATM    7  C13 MIQ B 502       3.229   2.811  -2.584  1.00141.18     0.019 A 
HETATM    8  C14 MIQ B 502       3.433   4.276  -2.757  1.00138.77     0.033 A 
HETATM    9  C15 MIQ B 502       3.073   5.312  -3.871  1.00142.10     0.195 A 
HETATM   10  N17 MIQ B 502       3.522   6.480  -3.442  1.00139.42    -0.288 N 
HETATM   11  O16 MIQ B 502       2.415   5.050  -5.074  1.00148.93    -0.171 OA
ENDROOT
BRANCH  10  12
HETATM   12  C18 MIQ B 502       3.376   7.685  -4.237  1.00139.82     0.187 C 
HETATM   13  C19 MIQ B 502       1.883   7.875  -4.529  1.00140.06     0.247 C 
HETATM   14  O25 MIQ B 502       1.112   7.841  -3.636  1.00143.95    -0.271 OA
HETATM   15  N20 MIQ B 502       1.390   8.102  -5.872  1.00140.02    -0.296 N 
HETATM   16  H13 MIQ B 502       0.412   8.218  -6.050  1.00142.77     0.171 HD
HETATM   17  C21 MIQ B 502       2.348   8.129  -6.947  1.00142.22     0.224 C 
HETATM   18  C22 MIQ B 502       3.553   7.219  -6.808  1.00139.52     0.106 C 
HETATM   19  O24 MIQ B 502       2.203   8.831  -7.887  1.00146.13    -0.273 OA
HETATM   20  C23 MIQ B 502       4.229   7.594  -5.502  1.00139.15     0.045 C 
ENDBRANCH  10  12
BRANCH   5  21
HETATM   21  N6  MIQ B 502       4.857   2.275   0.827  1.00140.95    -0.377 N 
HETATM   22  C7  MIQ B 502       5.760   3.007   1.698  1.00142.12     0.149 C 
HETATM   23  C8  MIQ B 502       6.665   2.073   2.493  1.00144.10     0.187 C 
HETATM   24  O9  MIQ B 502       5.967   1.027   3.100  1.00148.65    -0.388 OA
HETATM   25  C10 MIQ B 502       4.629   0.788   2.778  1.00147.44     0.187 C 
HETATM   26  C11 MIQ B 502       4.143   1.134   1.374  1.00144.08     0.149 C 
ENDBRANCH   5  21
TORSDOF 2
ENDMDL
MODEL 3
REMARK VINA RESULT:      -7.9      1.702      2.396
REMARK  2 active torsions:
REMARK  status: ('A' for Active; 'I' for Inactive)
REMARK    1  A    between atoms: C5_5  and  N6_21 
REMARK    2  A    between atoms: C18_14  and  N17_19 
ROOT
HETATM    1  O1  MIQ B 502       3.350   5.996  -0.902  1.00142.91    -0.171 OA
HETATM    2  C2  MIQ B 502       3.508   4.618  -1.069  1.00141.17     0.195 A 
HETATM    3  C3  MIQ B 502       3.784   3.577   0.062  1.00141.71     0.035 A 
HETATM    4  C4  MIQ B 502       3.950   3.689   1.531  1.00142.86     0.046 A 
HETATM    5  C5  MIQ B 502       4.197   2.534   2.314  1.00139.53     0.031 A 
HETATM    6  C12 MIQ B 502       4.287   1.230   1.671  1.00139.38     0.030 A 
HETATM    7  C13 MIQ B 502       4.126   1.123   0.264  1.00141.18     0.019 A 
HETATM    8  C14 MIQ B 502       3.865   2.339  -0.553  1.00138.77     0.033 A 
HETATM    9  C15 MIQ B 502       3.637   2.613  -2.076  1.00142.10     0.195 A 
HETATM   10  N17 MIQ B 502       3.453   3.918  -2.189  1.00139.42    -0.288 N 
HETATM   11  O16 MIQ B 502       3.633   1.667  -3.103  1.00148.93    -0.171 OA
ENDROOT
BRANCH  10  12
HETATM   12  C18 MIQ B 502       3.225   4.541  -3.479  1.00139.82     0.187 C 
HETATM   13  C19 MIQ B 502       4.245   5.676  -3.637  1.00140.06     0.247 C 
HETATM   14  O25 MIQ B 502       5.388   5.452  -3.452  1.00143.95    -0.271 OA
HETATM   15  N20 MIQ B 502       3.844   7.016  -4.014  1.00140.02    -0.296 N 
HETATM   16  H13 MIQ B 502       4.519   7.749  -4.107  1.00142.77     0.171 HD
HETATM   17  C21 MIQ B 502       2.441   7.266  -4.224  1.00142.22     0.224 C 
HETATM   18  C22 MIQ B 502       1.472   6.483  -3.360  1.00139.52     0.106 C 
HETATM   19  O24 MIQ B 502       2.067   8.041  -5.035  1.00146.13    -0.273 OA
HETATM   20  C23 MIQ B 502       1.777   5.015  -3.593  1.00139.15     0.045 C 
ENDBRANCH  10  12
BRANCH   5  21
HETATM   21  N6  MIQ B 502       4.372   2.660   3.750  1.00140.95    -0.377 N 
HETATM   22  C7  MIQ B 502       3.659   3.716   4.447  1.00142.12     0.149 C 
HETATM   23  C8  MIQ B 502       4.379   4.145   5.719  1.00144.10     0.187 C 
HETATM   24  O9  MIQ B 502       4.769   3.064   6.513  1.00148.65    -0.388 OA
HETATM   25  C10 MIQ B 502       4.689   1.759   6.020  1.00147.44     0.187 C 
HETATM   26  C11 MIQ B 502       4.864   1.532   4.522  1.00144.08     0.149 C 
ENDBRANCH   5  21
TORSDOF 2
ENDMDL
MODEL 4
REMARK VINA RESULT:      -7.9      3.785      6.761
REMARK  2 active torsions:
REMARK  status: ('A' for Active; 'I' for Inactive)
REMARK    1  A    between atoms: C5_5  and  N6_21 
REMARK    2  A    between atoms: C18_14  and  N17_19 
ROOT
HETATM    1  O1  MIQ B 502       4.915   4.235  -0.700  1.00142.91    -0.171 OA
HETATM    2  C2  MIQ B 502       4.494   4.713  -1.943  1.00141.17     0.195 A 
HETATM    3  C3  MIQ B 502       5.253   5.742  -2.840  1.00141.71     0.035 A 
HETATM    4  C4  MIQ B 502       6.533   6.474  -2.693  1.00142.86     0.046 A 
HETATM    5  C5  MIQ B 502       6.971   7.365  -3.705  1.00139.53     0.031 A 
HETATM    6  C12 MIQ B 502       6.157   7.560  -4.896  1.00139.38     0.030 A 
HETATM    7  C13 MIQ B 502       4.930   6.858  -5.039  1.00141.18     0.019 A 
HETATM    8  C14 MIQ B 502       4.477   5.922  -3.974  1.00138.77     0.033 A 
HETATM    9  C15 MIQ B 502       3.230   4.999  -3.779  1.00142.10     0.195 A 
HETATM   10  N17 MIQ B 502       3.397   4.401  -2.611  1.00139.42    -0.288 N 
HETATM   11  O16 MIQ B 502       2.159   4.844  -4.661  1.00148.93    -0.171 OA
ENDROOT
BRANCH  10  12
HETATM   12  C18 MIQ B 502       2.413   3.471  -2.089  1.00139.82     0.187 C 
HETATM   13  C19 MIQ B 502       2.204   2.373  -3.139  1.00140.06     0.247 C 
HETATM   14  O25 MIQ B 502       3.143   1.816  -3.585  1.00143.95    -0.271 OA
HETATM   15  N20 MIQ B 502       0.882   1.996  -3.596  1.00140.02    -0.296 N 
HETATM   16  H13 MIQ B 502       0.759   1.282  -4.286  1.00142.77     0.171 HD
HETATM   17  C21 MIQ B 502      -0.249   2.698  -3.044  1.00142.22     0.224 C 
HETATM   18  C22 MIQ B 502      -0.040   4.159  -2.696  1.00139.52     0.106 C 
HETATM   19  O24 MIQ B 502      -1.285   2.158  -2.867  1.00146.13    -0.273 OA
HETATM   20  C23 MIQ B 502       1.125   4.209  -1.725  1.00139.15     0.045 C 
ENDBRANCH  10  12
BRANCH   5  21
HETATM   21  N6  MIQ B 502       8.220   8.086  -3.540  1.00140.95    -0.377 N 
HETATM   22  C7  MIQ B 502       9.454   7.325  -3.446  1.00142.12     0.149 C 
HETATM   23  C8  MIQ B 502      10.525   8.074  -2.663  1.00144.10     0.187 C 
HETATM   24  O9  MIQ B 502      10.671   9.400  -3.075  1.00148.65    -0.388 OA
HETATM   25  C10 MIQ B 502       9.744   9.977  -3.947  1.00147.44     0.187 C 
HETATM   26  C11 MIQ B 502       8.300   9.490  -3.903  1.00144.08     0.149 C 
ENDBRANCH   5  21
TORSDOF 2
ENDMDL
MODEL 5
REMARK VINA RESULT:      -7.8      2.170      8.325
REMARK  2 active torsions:
REMARK  status: ('A' for Active; 'I' for Inactive)
REMARK    1  A    between atoms: C5_5  and  N6_21 
REMARK    2  A    between atoms: C18_14  and  N17_19 
ROOT
HETATM    1  O1  MIQ B 502       4.674   6.082   0.265  1.00142.91    -0.171 OA
HETATM    2  C2  MIQ B 502       4.319   4.880  -0.351  1.00141.17     0.195 A 
HETATM    3  C3  MIQ B 502       3.688   4.722  -1.771  1.00141.71     0.035 A 
HETATM    4  C4  MIQ B 502       3.302   5.687  -2.827  1.00142.86     0.046 A 
HETATM    5  C5  MIQ B 502       2.739   5.230  -4.045  1.00139.53     0.031 A 
HETATM    6  C12 MIQ B 502       2.541   3.803  -4.259  1.00139.38     0.030 A 
HETATM    7  C13 MIQ B 502       2.912   2.877  -3.247  1.00141.18     0.019 A 
HETATM    8  C14 MIQ B 502       3.505   3.364  -1.971  1.00138.77     0.033 A 
HETATM    9  C15 MIQ B 502       4.025   2.674  -0.668  1.00142.10     0.195 A 
HETATM   10  N17 MIQ B 502       4.441   3.651   0.121  1.00139.42    -0.288 N 
HETATM   11  O16 MIQ B 502       4.042   1.305  -0.396  1.00148.93    -0.171 OA
ENDROOT
BRANCH  10  12
HETATM   12  C18 MIQ B 502       4.981   3.381   1.441  1.00139.82     0.187 C 
HETATM   13  C19 MIQ B 502       6.233   2.513   1.265  1.00140.06     0.247 C 
HETATM   14  O25 MIQ B 502       7.071   2.857   0.508  1.00143.95    -0.271 OA
HETATM   15  N20 MIQ B 502       6.421   1.283   2.007  1.00140.02    -0.296 N 
HETATM   16  H13 MIQ B 502       7.240   0.722   1.879  1.00142.77     0.171 HD
HETATM   17  C21 MIQ B 502       5.380   0.879   2.917  1.00142.22     0.224 C 
HETATM   18  C22 MIQ B 502       3.957   1.227   2.522  1.00139.52     0.106 C 
HETATM   19  O24 MIQ B 502       5.625   0.310   3.923  1.00146.13    -0.273 OA
HETATM   20  C23 MIQ B 502       3.919   2.731   2.327  1.00139.15     0.045 C 
ENDBRANCH  10  12
BRANCH   5  21
HETATM   21  N6  MIQ B 502       2.351   6.187  -5.065  1.00140.95    -0.377 N 
HETATM   22  C7  MIQ B 502       2.108   7.564  -4.669  1.00142.12     0.149 C 
HETATM   23  C8  MIQ B 502       1.136   8.264  -5.610  1.00144.10     0.187 C 
HETATM   24  O9  MIQ B 502       1.454   8.078  -6.956  1.00148.65    -0.388 OA
HETATM   25  C10 MIQ B 502       2.427   7.148  -7.332  1.00147.44     0.187 C 
HETATM   26  C11 MIQ B 502       2.627   5.910  -6.464  1.00144.08     0.149 C 
ENDBRANCH   5  21
TORSDOF 2
ENDMDL
MODEL 6
REMARK VINA RESULT:      -7.8      5.194      6.610
REMARK  2 active torsions:
REMARK  status: ('A' for Active; 'I' for Inactive)
REMARK    1  A    between atoms: C5_5  and  N6_21 
REMARK    2  A    between atoms: C18_14  and  N17_19 
ROOT
HETATM    1  O1  MIQ B 502       5.803   7.617  -1.857  1.00142.91    -0.171 OA
HETATM    2  C2  MIQ B 502       4.904   7.706  -2.922  1.00141.17     0.195 A 
HETATM    3  C3  MIQ B 502       3.349   7.799  -2.812  1.00141.71     0.035 A 
HETATM    4  C4  MIQ B 502       2.408   7.825  -1.666  1.00142.86     0.046 A 
HETATM    5  C5  MIQ B 502       1.011   7.919  -1.888  1.00139.53     0.031 A 
HETATM    6  C12 MIQ B 502       0.499   7.991  -3.248  1.00139.38     0.030 A 
HETATM    7  C13 MIQ B 502       1.400   7.967  -4.347  1.00141.18     0.019 A 
HETATM    8  C14 MIQ B 502       2.866   7.871  -4.108  1.00138.77     0.033 A 
HETATM    9  C15 MIQ B 502       4.129   7.823  -5.029  1.00142.10     0.195 A 
HETATM   10  N17 MIQ B 502       5.169   7.735  -4.217  1.00139.42    -0.288 N 
HETATM   11  O16 MIQ B 502       4.148   7.863  -6.424  1.00148.93    -0.171 OA
ENDROOT
BRANCH  10  12
HETATM   12  C18 MIQ B 502       6.525   7.653  -4.729  1.00139.82     0.187 C 
HETATM   13  C19 MIQ B 502       7.205   6.452  -4.061  1.00140.06     0.247 C 
HETATM   14  O25 MIQ B 502       6.665   5.403  -4.075  1.00143.95    -0.271 OA
HETATM   15  N20 MIQ B 502       8.498   6.567  -3.418  1.00140.02    -0.296 N 
HETATM   16  H13 MIQ B 502       8.929   5.776  -2.980  1.00142.77     0.171 HD
HETATM   17  C21 MIQ B 502       9.132   7.860  -3.406  1.00142.22     0.224 C 
HETATM   18  C22 MIQ B 502       8.218   9.066  -3.318  1.00139.52     0.106 C 
HETATM   19  O24 MIQ B 502      10.307   7.972  -3.466  1.00146.13    -0.273 OA
HETATM   20  C23 MIQ B 502       7.263   8.970  -4.494  1.00139.15     0.045 C 
ENDBRANCH  10  12
BRANCH   5  21
HETATM   21  N6  MIQ B 502       0.101   7.928  -0.757  1.00140.95    -0.377 N 
HETATM   22  C7  MIQ B 502      -0.919   6.896  -0.678  1.00142.12     0.149 C 
HETATM   23  C8  MIQ B 502      -2.135   7.359   0.114  1.00144.10     0.187 C 
HETATM   24  O9  MIQ B 502      -1.797   7.959   1.329  1.00148.65    -0.388 OA
HETATM   25  C10 MIQ B 502      -0.468   8.280   1.614  1.00147.44     0.187 C 
HETATM   26  C11 MIQ B 502       0.460   8.640   0.457  1.00144.08     0.149 C 
ENDBRANCH   5  21
TORSDOF 2
ENDMDL
MODEL 7
REMARK VINA RESULT:      -7.7      1.975      8.399
REMARK  2 active torsions:
REMARK  status: ('A' for Active; 'I' for Inactive)
REMARK    1  A    between atoms: C5_5  and  N6_21 
REMARK    2  A    between atoms: C18_14  and  N17_19 
ROOT
HETATM    1  O1  MIQ B 502       6.710   2.612  -1.302  1.00142.91    -0.171 OA
HETATM    2  C2  MIQ B 502       5.561   3.145  -0.714  1.00141.17     0.195 A 
HETATM    3  C3  MIQ B 502       4.615   4.216  -1.345  1.00141.71     0.035 A 
HETATM    4  C4  MIQ B 502       4.616   4.943  -2.637  1.00142.86     0.046 A 
HETATM    5  C5  MIQ B 502       3.595   5.880  -2.933  1.00139.53     0.031 A 
HETATM    6  C12 MIQ B 502       2.539   6.129  -1.962  1.00139.38     0.030 A 
HETATM    7  C13 MIQ B 502       2.537   5.432  -0.724  1.00141.18     0.019 A 
HETATM    8  C14 MIQ B 502       3.611   4.447  -0.419  1.00138.77     0.033 A 
HETATM    9  C15 MIQ B 502       3.935   3.514   0.793  1.00142.10     0.195 A 
HETATM   10  N17 MIQ B 502       5.040   2.863   0.467  1.00139.42    -0.288 N 
HETATM   11  O16 MIQ B 502       3.205   3.397   1.977  1.00148.93    -0.171 OA
ENDROOT
BRANCH  10  12
HETATM   12  C18 MIQ B 502       5.651   1.908   1.373  1.00139.82     0.187 C 
HETATM   13  C19 MIQ B 502       4.590   0.862   1.735  1.00140.06     0.247 C 
HETATM   14  O25 MIQ B 502       3.990   0.327   0.872  1.00143.95    -0.271 OA
HETATM   15  N20 MIQ B 502       4.307   0.505   3.110  1.00140.02    -0.296 N 
HETATM   16  H13 MIQ B 502       3.607  -0.175   3.334  1.00142.77     0.171 HD
HETATM   17  C21 MIQ B 502       5.046   1.179   4.147  1.00142.22     0.224 C 
HETATM   18  C22 MIQ B 502       5.430   2.622   3.882  1.00139.52     0.106 C 
HETATM   19  O24 MIQ B 502       5.342   0.630   5.151  1.00146.13    -0.273 OA
HETATM   20  C23 MIQ B 502       6.228   2.626   2.592  1.00139.15     0.045 C 
ENDBRANCH  10  12
BRANCH   5  21
HETATM   21  N6  MIQ B 502       3.616   6.595  -4.196  1.00140.95    -0.377 N 
HETATM   22  C7  MIQ B 502       2.600   7.605  -4.440  1.00142.12     0.149 C 
HETATM   23  C8  MIQ B 502       2.331   7.792  -5.927  1.00144.10     0.187 C 
HETATM   24  O9  MIQ B 502       3.500   7.928  -6.679  1.00148.65    -0.388 OA
HETATM   25  C10 MIQ B 502       4.746   7.673  -6.101  1.00147.44     0.187 C 
HETATM   26  C11 MIQ B 502       4.835   6.636  -4.985  1.00144.08     0.149 C 
ENDBRANCH   5  21
TORSDOF 2
ENDMDL
MODEL 8
REMARK VINA RESULT:      -7.7      4.139      6.984
REMARK  2 active torsions:
REMARK  status: ('A' for Active; 'I' for Inactive)
REMARK    1  A    between atoms: C5_5  and  N6_21 
REMARK    2  A    between atoms: C18_14  and  N17_19 
ROOT
HETATM    1  O1  MIQ B 502       4.726   6.192   0.073  1.00142.91    -0.171 OA
HETATM    2  C2  MIQ B 502       4.274   6.584  -1.190  1.00141.17     0.195 A 
HETATM    3  C3  MIQ B 502       5.164   7.076  -2.376  1.00141.71     0.035 A 
HETATM    4  C4  MIQ B 502       6.624   7.268  -2.543  1.00142.86     0.046 A 
HETATM    5  C5  MIQ B 502       7.149   7.739  -3.772  1.00139.53     0.031 A 
HETATM    6  C12 MIQ B 502       6.247   8.036  -4.876  1.00139.38     0.030 A 
HETATM    7  C13 MIQ B 502       4.847   7.851  -4.717  1.00141.18     0.019 A 
HETATM    8  C14 MIQ B 502       4.302   7.353  -3.424  1.00138.77     0.033 A 
HETATM    9  C15 MIQ B 502       2.870   7.031  -2.887  1.00142.10     0.195 A 
HETATM   10  N17 MIQ B 502       3.032   6.617  -1.641  1.00139.42    -0.288 N 
HETATM   11  O16 MIQ B 502       1.667   7.160  -3.584  1.00148.93    -0.171 OA
ENDROOT
BRANCH  10  12
HETATM   12  C18 MIQ B 502       1.900   6.240  -0.815  1.00139.82     0.187 C 
HETATM   13  C19 MIQ B 502       1.041   5.256  -1.618  1.00140.06     0.247 C 
HETATM   14  O25 MIQ B 502       1.554   4.317  -2.116  1.00143.95    -0.271 OA
HETATM   15  N20 MIQ B 502      -0.386   5.442  -1.779  1.00140.02    -0.296 N 
HETATM   16  H13 MIQ B 502      -0.934   4.796  -2.311  1.00142.77     0.171 HD
HETATM   17  C21 MIQ B 502      -0.988   6.601  -1.170  1.00142.22     0.224 C 
HETATM   18  C22 MIQ B 502      -0.139   7.857  -1.110  1.00139.52     0.106 C 
HETATM   19  O24 MIQ B 502      -2.086   6.571  -0.736  1.00146.13    -0.273 OA
HETATM   20  C23 MIQ B 502       1.132   7.483  -0.368  1.00139.15     0.045 C 
ENDBRANCH  10  12
BRANCH   5  21
HETATM   21  N6  MIQ B 502       8.580   7.937  -3.917  1.00140.95    -0.377 N 
HETATM   22  C7  MIQ B 502       9.070   9.272  -4.210  1.00142.12     0.149 C 
HETATM   23  C8  MIQ B 502      10.403   9.240  -4.947  1.00144.10     0.187 C 
HETATM   24  O9  MIQ B 502      11.330   8.379  -4.357  1.00148.65    -0.388 OA
HETATM   25  C10 MIQ B 502      10.935   7.500  -3.346  1.00147.44     0.187 C 
HETATM   26  C11 MIQ B 502       9.506   6.968  -3.359  1.00144.08     0.149 C 
ENDBRANCH   5  21
TORSDOF 2
ENDMDL
MODEL 9
REMARK VINA RESULT:      -7.6      1.858      2.529
REMARK  2 active torsions:
REMARK  status: ('A' for Active; 'I' for Inactive)
REMARK    1  A    between atoms: C5_5  and  N6_21 
REMARK    2  A    between atoms: C18_14  and  N17_19 
ROOT
HETATM    1  O1  MIQ B 502       2.514   5.632  -0.776  1.00142.91    -0.171 OA
HETATM    2  C2  MIQ B 502       3.792   5.108  -0.983  1.00141.17     0.195 A 
HETATM    3  C3  MIQ B 502       4.560   4.145  -0.022  1.00141.71     0.035 A 
HETATM    4  C4  MIQ B 502       4.227   3.530   1.284  1.00142.86     0.046 A 
HETATM    5  C5  MIQ B 502       5.154   2.673   1.930  1.00139.53     0.031 A 
HETATM    6  C12 MIQ B 502       6.439   2.397   1.306  1.00139.38     0.030 A 
HETATM    7  C13 MIQ B 502       6.759   2.987   0.053  1.00141.18     0.019 A 
HETATM    8  C14 MIQ B 502       5.781   3.883  -0.622  1.00138.77     0.033 A 
HETATM    9  C15 MIQ B 502       5.770   4.687  -1.963  1.00142.10     0.195 A 
HETATM   10  N17 MIQ B 502       4.601   5.305  -2.009  1.00139.42    -0.288 N 
HETATM   11  O16 MIQ B 502       6.791   4.741  -2.914  1.00148.93    -0.171 OA
ENDROOT
BRANCH  10  12
HETATM   12  C18 MIQ B 502       4.244   6.167  -3.120  1.00139.82     0.187 C 
HETATM   13  C19 MIQ B 502       3.875   7.541  -2.546  1.00140.06     0.247 C 
HETATM   14  O25 MIQ B 502       4.618   8.071  -1.798  1.00143.95    -0.271 OA
HETATM   15  N20 MIQ B 502       2.640   8.210  -2.901  1.00140.02    -0.296 N 
HETATM   16  H13 MIQ B 502       2.408   9.104  -2.514  1.00142.77     0.171 HD
HETATM   17  C21 MIQ B 502       1.745   7.539  -3.807  1.00142.22     0.224 C 
HETATM   18  C22 MIQ B 502       1.699   6.025  -3.722  1.00139.52     0.106 C 
HETATM   19  O24 MIQ B 502       1.084   8.139  -4.581  1.00146.13    -0.273 OA
HETATM   20  C23 MIQ B 502       3.120   5.538  -3.941  1.00139.15     0.045 C 
ENDBRANCH  10  12
BRANCH   5  21
HETATM   21  N6  MIQ B 502       4.820   2.089   3.217  1.00140.95    -0.377 N 
HETATM   22  C7  MIQ B 502       5.545   0.908   3.652  1.00142.12     0.149 C 
HETATM   23  C8  MIQ B 502       4.724   0.058   4.613  1.00144.10     0.187 C 
HETATM   24  O9  MIQ B 502       4.136   0.808   5.634  1.00148.65    -0.388 OA
HETATM   25  C10 MIQ B 502       4.145   2.204   5.583  1.00147.44     0.187 C 
HETATM   26  C11 MIQ B 502       4.130   2.884   4.217  1.00144.08     0.149 C 
ENDBRANCH   5  21
TORSDOF 2
ENDMDL
