MODEL 1
REMARK VINA RESULT:      -7.5      0.000      0.000
REMARK  2 active torsions:
REMARK  status: ('A' for Active; 'I' for Inactive)
REMARK    1  A    between atoms: C5_5  and  N6_21 
REMARK    2  A    between atoms: C18_14  and  N17_19 
ROOT
HETATM    1  O1  MIQ B 502      17.833   7.681  10.033  1.00142.91    -0.171 OA
HETATM    2  C2  MIQ B 502      16.913   6.673  10.332  1.00141.17     0.195 A 
HETATM    3  C3  MIQ B 502      17.231   5.315  11.036  1.00141.71     0.035 A 
HETATM    4  C4  MIQ B 502      18.474   4.708  11.567  1.00142.86     0.046 A 
HETATM    5  C5  MIQ B 502      18.446   3.425  12.170  1.00139.53     0.031 A 
HETATM    6  C12 MIQ B 502      17.187   2.701  12.267  1.00139.38     0.030 A 
HETATM    7  C13 MIQ B 502      15.994   3.282  11.759  1.00141.18     0.019 A 
HETATM    8  C14 MIQ B 502      16.030   4.631  11.130  1.00138.77     0.033 A 
HETATM    9  C15 MIQ B 502      14.961   5.569  10.481  1.00142.10     0.195 A 
HETATM   10  N17 MIQ B 502      15.613   6.654  10.095  1.00139.42    -0.288 N 
HETATM   11  O16 MIQ B 502      13.597   5.310  10.338  1.00148.93    -0.171 OA
ENDROOT
BRANCH  10  12
HETATM   12  C18 MIQ B 502      14.934   7.750   9.430  1.00139.82     0.187 C 
HETATM   13  C19 MIQ B 502      15.733   8.098   8.168  1.00140.06     0.247 C 
HETATM   14  O25 MIQ B 502      16.024   7.238   7.415  1.00143.95    -0.271 OA
HETATM   15  N20 MIQ B 502      16.137   9.457   7.870  1.00140.02    -0.296 N 
HETATM   16  H13 MIQ B 502      16.664   9.670   7.046  1.00142.77     0.171 HD
HETATM   17  C21 MIQ B 502      15.779  10.488   8.810  1.00142.22     0.224 C 
HETATM   18  C22 MIQ B 502      15.743  10.093  10.274  1.00139.52     0.106 C 
HETATM   19  O24 MIQ B 502      15.521  11.585   8.455  1.00146.13    -0.273 OA
HETATM   20  C23 MIQ B 502      14.771   8.932  10.383  1.00139.15     0.045 C 
ENDBRANCH  10  12
BRANCH   5  21
HETATM   21  N6  MIQ B 502      19.674   2.837  12.672  1.00140.95    -0.377 N 
HETATM   22  C7  MIQ B 502      20.361   3.495  13.771  1.00142.12     0.149 C 
HETATM   23  C8  MIQ B 502      21.855   3.200  13.766  1.00144.10     0.187 C 
HETATM   24  O9  MIQ B 502      22.140   1.842  13.612  1.00148.65    -0.388 OA
HETATM   25  C10 MIQ B 502      21.129   0.941  13.268  1.00147.44     0.187 C 
HETATM   26  C11 MIQ B 502      19.968   1.439  12.413  1.00144.08     0.149 C 
ENDBRANCH   5  21
TORSDOF 2
ENDMDL
MODEL 2
REMARK VINA RESULT:      -7.3      1.455      2.590
REMARK  2 active torsions:
REMARK  status: ('A' for Active; 'I' for Inactive)
REMARK    1  A    between atoms: C5_5  and  N6_21 
REMARK    2  A    between atoms: C18_14  and  N17_19 
ROOT
HETATM    1  O1  MIQ B 502      14.444   4.985  10.426  1.00142.91    -0.171 OA
HETATM    2  C2  MIQ B 502      15.743   5.482  10.552  1.00141.17     0.195 A 
HETATM    3  C3  MIQ B 502      16.949   4.750  11.221  1.00141.71     0.035 A 
HETATM    4  C4  MIQ B 502      17.105   3.428  11.873  1.00142.86     0.046 A 
HETATM    5  C5  MIQ B 502      18.360   3.032  12.400  1.00139.53     0.031 A 
HETATM    6  C12 MIQ B 502      19.502   3.929  12.299  1.00139.38     0.030 A 
HETATM    7  C13 MIQ B 502      19.353   5.196  11.673  1.00141.18     0.019 A 
HETATM    8  C14 MIQ B 502      18.034   5.606  11.120  1.00138.77     0.033 A 
HETATM    9  C15 MIQ B 502      17.497   6.876  10.383  1.00142.10     0.195 A 
HETATM   10  N17 MIQ B 502      16.218   6.644  10.138  1.00139.42    -0.288 N 
HETATM   11  O16 MIQ B 502      18.225   8.022  10.054  1.00148.93    -0.171 OA
ENDROOT
BRANCH  10  12
HETATM   12  C18 MIQ B 502      15.384   7.626   9.471  1.00139.82     0.187 C 
HETATM   13  C19 MIQ B 502      16.110   8.065   8.193  1.00140.06     0.247 C 
HETATM   14  O25 MIQ B 502      16.508   7.244   7.445  1.00143.95    -0.271 OA
HETATM   15  N20 MIQ B 502      16.317   9.463   7.874  1.00140.02    -0.296 N 
HETATM   16  H13 MIQ B 502      16.798   9.736   7.040  1.00142.77     0.171 HD
HETATM   17  C21 MIQ B 502      15.832  10.446   8.808  1.00142.22     0.224 C 
HETATM   18  C22 MIQ B 502      15.871  10.070  10.276  1.00139.52     0.106 C 
HETATM   19  O24 MIQ B 502      15.419  11.492   8.444  1.00146.13    -0.273 OA
HETATM   20  C23 MIQ B 502      15.071   8.787  10.413  1.00139.15     0.045 C 
ENDBRANCH  10  12
BRANCH   5  21
HETATM   21  N6  MIQ B 502      18.494   1.740  13.048  1.00140.95    -0.377 N 
HETATM   22  C7  MIQ B 502      18.954   0.611  12.259  1.00142.12     0.149 C 
HETATM   23  C8  MIQ B 502      18.453  -0.715  12.816  1.00144.10     0.187 C 
HETATM   24  O9  MIQ B 502      18.645  -0.833  14.194  1.00148.65    -0.388 OA
HETATM   25  C10 MIQ B 502      19.040   0.273  14.950  1.00147.44     0.187 C 
HETATM   26  C11 MIQ B 502      18.605   1.662  14.494  1.00144.08     0.149 C 
ENDBRANCH   5  21
TORSDOF 2
ENDMDL
MODEL 3
REMARK VINA RESULT:      -7.2      3.484      7.410
REMARK  2 active torsions:
REMARK  status: ('A' for Active; 'I' for Inactive)
REMARK    1  A    between atoms: C5_5  and  N6_21 
REMARK    2  A    between atoms: C18_14  and  N17_19 
ROOT
HETATM    1  O1  MIQ B 502      16.377   4.173  10.742  1.00142.91    -0.171 OA
HETATM    2  C2  MIQ B 502      16.468   4.869   9.534  1.00141.17     0.195 A 
HETATM    3  C3  MIQ B 502      16.571   6.418   9.368  1.00141.71     0.035 A 
HETATM    4  C4  MIQ B 502      16.606   7.546  10.329  1.00142.86     0.046 A 
HETATM    5  C5  MIQ B 502      16.709   8.881   9.864  1.00139.53     0.031 A 
HETATM    6  C12 MIQ B 502      16.780   9.145   8.434  1.00139.38     0.030 A 
HETATM    7  C13 MIQ B 502      16.747   8.064   7.512  1.00141.18     0.019 A 
HETATM    8  C14 MIQ B 502      16.642   6.664   8.007  1.00138.77     0.033 A 
HETATM    9  C15 MIQ B 502      16.584   5.258   7.324  1.00142.10     0.195 A 
HETATM   10  N17 MIQ B 502      16.491   4.378   8.307  1.00139.42    -0.288 N 
HETATM   11  O16 MIQ B 502      16.619   4.993   5.954  1.00148.93    -0.171 OA
ENDROOT
BRANCH  10  12
HETATM   12  C18 MIQ B 502      16.399   2.954   8.043  1.00139.82     0.187 C 
HETATM   13  C19 MIQ B 502      15.190   2.412   8.815  1.00140.06     0.247 C 
HETATM   14  O25 MIQ B 502      14.146   2.950   8.701  1.00143.95    -0.271 OA
HETATM   15  N20 MIQ B 502      15.292   1.253   9.678  1.00140.02    -0.296 N 
HETATM   16  H13 MIQ B 502      14.497   0.914  10.182  1.00142.77     0.171 HD
HETATM   17  C21 MIQ B 502      16.579   0.621   9.808  1.00142.22     0.224 C 
HETATM   18  C22 MIQ B 502      17.794   1.527   9.738  1.00139.52     0.106 C 
HETATM   19  O24 MIQ B 502      16.682  -0.547   9.958  1.00146.13    -0.273 OA
HETATM   20  C23 MIQ B 502      17.709   2.259   8.411  1.00139.15     0.045 C 
ENDBRANCH  10  12
BRANCH   5  21
HETATM   21  N6  MIQ B 502      16.727   9.977  10.816  1.00140.95    -0.377 N 
HETATM   22  C7  MIQ B 502      17.645   9.905  11.940  1.00142.12     0.149 C 
HETATM   23  C8  MIQ B 502      17.145  10.707  13.134  1.00144.10     0.187 C 
HETATM   24  O9  MIQ B 502      16.725  11.993  12.788  1.00148.65    -0.388 OA
HETATM   25  C10 MIQ B 502      16.583  12.354  11.446  1.00147.44     0.187 C 
HETATM   26  C11 MIQ B 502      16.199  11.276  10.437  1.00144.08     0.149 C 
ENDBRANCH   5  21
TORSDOF 2
ENDMDL
MODEL 4
REMARK VINA RESULT:      -7.2      3.147      3.475
REMARK  2 active torsions:
REMARK  status: ('A' for Active; 'I' for Inactive)
REMARK    1  A    between atoms: C5_5  and  N6_21 
REMARK    2  A    between atoms: C18_14  and  N17_19 
ROOT
HETATM    1  O1  MIQ B 502      17.159   7.433   9.501  1.00142.91    -0.171 OA
HETATM    2  C2  MIQ B 502      15.963   6.713   9.550  1.00141.17     0.195 A 
HETATM    3  C3  MIQ B 502      15.803   5.175   9.329  1.00141.71     0.035 A 
HETATM    4  C4  MIQ B 502      16.760   4.083   9.030  1.00142.86     0.046 A 
HETATM    5  C5  MIQ B 502      16.302   2.749   8.883  1.00139.53     0.031 A 
HETATM    6  C12 MIQ B 502      14.884   2.452   9.027  1.00139.38     0.030 A 
HETATM    7  C13 MIQ B 502      13.966   3.498   9.314  1.00141.18     0.019 A 
HETATM    8  C14 MIQ B 502      14.453   4.896   9.470  1.00138.77     0.033 A 
HETATM    9  C15 MIQ B 502      13.772   6.269   9.781  1.00142.10     0.195 A 
HETATM   10  N17 MIQ B 502      14.745   7.165   9.791  1.00139.42    -0.288 N 
HETATM   11  O16 MIQ B 502      12.412   6.497   9.999  1.00148.93    -0.171 OA
ENDROOT
BRANCH  10  12
HETATM   12  C18 MIQ B 502      14.477   8.571  10.035  1.00139.82     0.187 C 
HETATM   13  C19 MIQ B 502      15.152   9.376   8.918  1.00140.06     0.247 C 
HETATM   14  O25 MIQ B 502      14.955   9.078   7.794  1.00143.95    -0.271 OA
HETATM   15  N20 MIQ B 502      16.023  10.497   9.204  1.00140.02    -0.296 N 
HETATM   16  H13 MIQ B 502      16.463  11.011   8.466  1.00142.77     0.171 HD
HETATM   17  C21 MIQ B 502      16.257  10.834  10.585  1.00142.22     0.224 C 
HETATM   18  C22 MIQ B 502      16.281   9.684  11.572  1.00139.52     0.106 C 
HETATM   19  O24 MIQ B 502      16.416  11.954  10.929  1.00146.13    -0.273 OA
HETATM   20  C23 MIQ B 502      14.950   8.967  11.432  1.00139.15     0.045 C 
ENDBRANCH  10  12
BRANCH   5  21
HETATM   21  N6  MIQ B 502      17.248   1.692   8.576  1.00140.95    -0.377 N 
HETATM   22  C7  MIQ B 502      18.569   1.746   9.177  1.00142.12     0.149 C 
HETATM   23  C8  MIQ B 502      19.610   1.026   8.330  1.00144.10     0.187 C 
HETATM   24  O9  MIQ B 502      19.193  -0.242   7.919  1.00148.65    -0.388 OA
HETATM   25  C10 MIQ B 502      17.867  -0.644   8.100  1.00147.44     0.187 C 
HETATM   26  C11 MIQ B 502      16.772   0.417   8.068  1.00144.08     0.149 C 
ENDBRANCH   5  21
TORSDOF 2
ENDMDL
MODEL 5
REMARK VINA RESULT:      -7.0      3.692      4.259
REMARK  2 active torsions:
REMARK  status: ('A' for Active; 'I' for Inactive)
REMARK    1  A    between atoms: C5_5  and  N6_21 
REMARK    2  A    between atoms: C18_14  and  N17_19 
ROOT
HETATM    1  O1  MIQ B 502      17.352   8.279   9.030  1.00142.91    -0.171 OA
HETATM    2  C2  MIQ B 502      16.323   7.422   9.426  1.00141.17     0.195 A 
HETATM    3  C3  MIQ B 502      16.201   5.904   9.075  1.00141.71     0.035 A 
HETATM    4  C4  MIQ B 502      17.044   4.968   8.295  1.00142.86     0.046 A 
HETATM    5  C5  MIQ B 502      16.663   3.610   8.150  1.00139.53     0.031 A 
HETATM    6  C12 MIQ B 502      15.436   3.134   8.773  1.00139.38     0.030 A 
HETATM    7  C13 MIQ B 502      14.628   4.031   9.523  1.00141.18     0.019 A 
HETATM    8  C14 MIQ B 502      15.035   5.455   9.673  1.00138.77     0.033 A 
HETATM    9  C15 MIQ B 502      14.429   6.701  10.399  1.00142.10     0.195 A 
HETATM   10  N17 MIQ B 502      15.263   7.701  10.166  1.00139.42    -0.288 N 
HETATM   11  O16 MIQ B 502      13.247   6.743  11.140  1.00148.93    -0.171 OA
ENDROOT
BRANCH  10  12
HETATM   12  C18 MIQ B 502      15.010   9.034  10.680  1.00139.82     0.187 C 
HETATM   13  C19 MIQ B 502      15.196  10.024   9.524  1.00140.06     0.247 C 
HETATM   14  O25 MIQ B 502      14.635   9.831   8.504  1.00143.95    -0.271 OA
HETATM   15  N20 MIQ B 502      16.039  11.195   9.650  1.00140.02    -0.296 N 
HETATM   16  H13 MIQ B 502      16.157  11.831   8.885  1.00142.77     0.171 HD
HETATM   17  C21 MIQ B 502      16.722  11.403  10.901  1.00142.22     0.224 C 
HETATM   18  C22 MIQ B 502      17.165  10.162  11.650  1.00139.52     0.106 C 
HETATM   19  O24 MIQ B 502      16.921  12.489  11.323  1.00146.13    -0.273 OA
HETATM   20  C23 MIQ B 502      15.919   9.325  11.873  1.00139.15     0.045 C 
ENDBRANCH  10  12
BRANCH   5  21
HETATM   21  N6  MIQ B 502      17.490   2.708   7.370  1.00140.95    -0.377 N 
HETATM   22  C7  MIQ B 502      17.550   2.890   5.930  1.00142.12     0.149 C 
HETATM   23  C8  MIQ B 502      17.875   1.590   5.206  1.00144.10     0.187 C 
HETATM   24  O9  MIQ B 502      18.958   0.911   5.767  1.00148.65    -0.388 OA
HETATM   25  C10 MIQ B 502      19.486   1.314   6.996  1.00147.44     0.187 C 
HETATM   26  C11 MIQ B 502      18.552   1.956   8.016  1.00144.08     0.149 C 
ENDBRANCH   5  21
TORSDOF 2
ENDMDL
MODEL 6
REMARK VINA RESULT:      -7.0      4.187      5.204
REMARK  2 active torsions:
REMARK  status: ('A' for Active; 'I' for Inactive)
REMARK    1  A    between atoms: C5_5  and  N6_21 
REMARK    2  A    between atoms: C18_14  and  N17_19 
ROOT
HETATM    1  O1  MIQ B 502      16.509   6.867   7.893  1.00142.91    -0.171 OA
HETATM    2  C2  MIQ B 502      15.892   5.891   8.679  1.00141.17     0.195 A 
HETATM    3  C3  MIQ B 502      15.836   4.360   8.372  1.00141.71     0.035 A 
HETATM    4  C4  MIQ B 502      16.362   3.522   7.269  1.00142.86     0.046 A 
HETATM    5  C5  MIQ B 502      16.146   2.121   7.268  1.00139.53     0.031 A 
HETATM    6  C12 MIQ B 502      15.404   1.503   8.357  1.00139.38     0.030 A 
HETATM    7  C13 MIQ B 502      14.900   2.306   9.416  1.00141.18     0.019 A 
HETATM    8  C14 MIQ B 502      15.132   3.776   9.413  1.00138.77     0.033 A 
HETATM    9  C15 MIQ B 502      14.749   4.951  10.371  1.00142.10     0.195 A 
HETATM   10  N17 MIQ B 502      15.246   6.047   9.822  1.00139.42    -0.288 N 
HETATM   11  O16 MIQ B 502      14.027   4.857  11.562  1.00148.93    -0.171 OA
ENDROOT
BRANCH  10  12
HETATM   12  C18 MIQ B 502      15.069   7.350  10.436  1.00139.82     0.187 C 
HETATM   13  C19 MIQ B 502      14.294   8.231   9.448  1.00140.06     0.247 C 
HETATM   14  O25 MIQ B 502      13.291   7.825   8.979  1.00143.95    -0.271 OA
HETATM   15  N20 MIQ B 502      14.757   9.553   9.079  1.00140.02    -0.296 N 
HETATM   16  H13 MIQ B 502      14.246  10.116   8.428  1.00142.77     0.171 HD
HETATM   17  C21 MIQ B 502      15.990  10.022   9.658  1.00142.22     0.224 C 
HETATM   18  C22 MIQ B 502      17.056   8.978   9.929  1.00139.52     0.106 C 
HETATM   19  O24 MIQ B 502      16.158  11.164   9.913  1.00146.13    -0.273 OA
HETATM   20  C23 MIQ B 502      16.421   7.939  10.834  1.00139.15     0.045 C 
ENDBRANCH  10  12
BRANCH   5  21
HETATM   21  N6  MIQ B 502      16.655   1.314   6.173  1.00140.95    -0.377 N 
HETATM   22  C7  MIQ B 502      15.764   0.351   5.548  1.00142.12     0.149 C 
HETATM   23  C8  MIQ B 502      16.529  -0.810   4.926  1.00144.10     0.187 C 
HETATM   24  O9  MIQ B 502      17.604  -0.393   4.139  1.00148.65    -0.388 OA
HETATM   25  C10 MIQ B 502      18.019   0.941   4.156  1.00147.44     0.187 C 
HETATM   26  C11 MIQ B 502      17.830   1.747   5.438  1.00144.08     0.149 C 
ENDBRANCH   5  21
TORSDOF 2
ENDMDL
MODEL 7
REMARK VINA RESULT:      -6.9     15.725     17.471
REMARK  2 active torsions:
REMARK  status: ('A' for Active; 'I' for Inactive)
REMARK    1  A    between atoms: C5_5  and  N6_21 
REMARK    2  A    between atoms: C18_14  and  N17_19 
ROOT
HETATM    1  O1  MIQ B 502       7.921  12.693  24.538  1.00142.91    -0.171 OA
HETATM    2  C2  MIQ B 502       8.278  13.554  23.498  1.00141.17     0.195 A 
HETATM    3  C3  MIQ B 502       9.731  13.959  23.094  1.00141.71     0.035 A 
HETATM    4  C4  MIQ B 502      11.071  13.603  23.618  1.00142.86     0.046 A 
HETATM    5  C5  MIQ B 502      12.240  14.145  23.025  1.00139.53     0.031 A 
HETATM    6  C12 MIQ B 502      12.122  15.055  21.895  1.00139.38     0.030 A 
HETATM    7  C13 MIQ B 502      10.837  15.396  21.392  1.00141.18     0.019 A 
HETATM    8  C14 MIQ B 502       9.614  14.822  22.017  1.00138.77     0.033 A 
HETATM    9  C15 MIQ B 502       8.079  14.953  21.750  1.00142.10     0.195 A 
HETATM   10  N17 MIQ B 502       7.485  14.190  22.652  1.00139.42    -0.288 N 
HETATM   11  O16 MIQ B 502       7.465  15.724  20.760  1.00148.93    -0.171 OA
ENDROOT
BRANCH  10  12
HETATM   12  C18 MIQ B 502       6.040  14.078  22.716  1.00139.82     0.187 C 
HETATM   13  C19 MIQ B 502       5.607  14.418  24.148  1.00140.06     0.247 C 
HETATM   14  O25 MIQ B 502       5.994  15.415  24.645  1.00143.95    -0.271 OA
HETATM   15  N20 MIQ B 502       4.731  13.550  24.907  1.00140.02    -0.296 N 
HETATM   16  H13 MIQ B 502       4.461  13.780  25.843  1.00142.77     0.171 HD
HETATM   17  C21 MIQ B 502       4.280  12.333  24.283  1.00142.22     0.224 C 
HETATM   18  C22 MIQ B 502       5.247  11.658  23.328  1.00139.52     0.106 C 
HETATM   19  O24 MIQ B 502       3.208  11.887  24.501  1.00146.13    -0.273 OA
HETATM   20  C23 MIQ B 502       5.594  12.687  22.268  1.00139.15     0.045 C 
ENDBRANCH  10  12
BRANCH   5  21
HETATM   21  N6  MIQ B 502      13.545  13.799  23.558  1.00140.95    -0.377 N 
HETATM   22  C7  MIQ B 502      13.723  12.492  24.168  1.00142.12     0.149 C 
HETATM   23  C8  MIQ B 502      14.837  12.496  25.206  1.00144.10     0.187 C 
HETATM   24  O9  MIQ B 502      16.007  13.104  24.746  1.00148.65    -0.388 OA
HETATM   25  C10 MIQ B 502      16.008  13.818  23.545  1.00147.44     0.187 C 
HETATM   26  C11 MIQ B 502      14.725  14.519  23.112  1.00144.08     0.149 C 
ENDBRANCH   5  21
TORSDOF 2
ENDMDL
MODEL 8
REMARK VINA RESULT:      -6.9      4.355      5.301
REMARK  2 active torsions:
REMARK  status: ('A' for Active; 'I' for Inactive)
REMARK    1  A    between atoms: C5_5  and  N6_21 
REMARK    2  A    between atoms: C18_14  and  N17_19 
ROOT
HETATM    1  O1  MIQ B 502      15.344   4.359  10.638  1.00142.91    -0.171 OA
HETATM    2  C2  MIQ B 502      15.825   4.931   9.457  1.00141.17     0.195 A 
HETATM    3  C3  MIQ B 502      16.331   4.157   8.198  1.00141.71     0.035 A 
HETATM    4  C4  MIQ B 502      16.455   2.718   7.868  1.00142.86     0.046 A 
HETATM    5  C5  MIQ B 502      16.963   2.313   6.608  1.00139.53     0.031 A 
HETATM    6  C12 MIQ B 502      17.363   3.317   5.633  1.00139.38     0.030 A 
HETATM    7  C13 MIQ B 502      17.243   4.698   5.949  1.00141.18     0.019 A 
HETATM    8  C14 MIQ B 502      16.707   5.117   7.273  1.00138.77     0.033 A 
HETATM    9  C15 MIQ B 502      16.433   6.494   7.961  1.00142.10     0.195 A 
HETATM   10  N17 MIQ B 502      15.945   6.213   9.158  1.00139.42    -0.288 N 
HETATM   11  O16 MIQ B 502      16.660   7.760   7.418  1.00148.93    -0.171 OA
ENDROOT
BRANCH  10  12
HETATM   12  C18 MIQ B 502      15.586   7.261  10.095  1.00139.82     0.187 C 
HETATM   13  C19 MIQ B 502      14.676   8.253   9.360  1.00140.06     0.247 C 
HETATM   14  O25 MIQ B 502      13.737   7.847   8.772  1.00143.95    -0.271 OA
HETATM   15  N20 MIQ B 502      14.933   9.679   9.372  1.00140.02    -0.296 N 
HETATM   16  H13 MIQ B 502      14.336  10.315   8.882  1.00142.77     0.171 HD
HETATM   17  C21 MIQ B 502      16.091  10.149  10.088  1.00142.22     0.224 C 
HETATM   18  C22 MIQ B 502      17.303   9.238  10.097  1.00139.52     0.106 C 
HETATM   19  O24 MIQ B 502      16.092  11.192  10.644  1.00146.13    -0.273 OA
HETATM   20  C23 MIQ B 502      16.842   7.912  10.673  1.00139.15     0.045 C 
ENDBRANCH  10  12
BRANCH   5  21
HETATM   21  N6  MIQ B 502      17.093   0.899   6.304  1.00140.95    -0.377 N 
HETATM   22  C7  MIQ B 502      17.218  -0.040   7.405  1.00142.12     0.149 C 
HETATM   23  C8  MIQ B 502      17.965  -1.302   6.994  1.00144.10     0.187 C 
HETATM   24  O9  MIQ B 502      17.494  -1.846   5.797  1.00148.65    -0.388 OA
HETATM   25  C10 MIQ B 502      16.599  -1.130   4.998  1.00147.44     0.187 C 
HETATM   26  C11 MIQ B 502      16.668   0.394   5.010  1.00144.08     0.149 C 
ENDBRANCH   5  21
TORSDOF 2
ENDMDL
MODEL 9
REMARK VINA RESULT:      -6.8      4.319      7.711
REMARK  2 active torsions:
REMARK  status: ('A' for Active; 'I' for Inactive)
REMARK    1  A    between atoms: C5_5  and  N6_21 
REMARK    2  A    between atoms: C18_14  and  N17_19 
ROOT
HETATM    1  O1  MIQ B 502      17.934   3.846   6.762  1.00142.91    -0.171 OA
HETATM    2  C2  MIQ B 502      16.817   3.642   7.576  1.00141.17     0.195 A 
HETATM    3  C3  MIQ B 502      16.075   4.732   8.414  1.00141.71     0.035 A 
HETATM    4  C4  MIQ B 502      16.282   6.187   8.604  1.00142.86     0.046 A 
HETATM    5  C5  MIQ B 502      15.419   6.929   9.449  1.00139.53     0.031 A 
HETATM    6  C12 MIQ B 502      14.325   6.257  10.134  1.00139.38     0.030 A 
HETATM    7  C13 MIQ B 502      14.125   4.862   9.952  1.00141.18     0.019 A 
HETATM    8  C14 MIQ B 502      15.033   4.088   9.060  1.00138.77     0.033 A 
HETATM    9  C15 MIQ B 502      15.127   2.590   8.621  1.00142.10     0.195 A 
HETATM   10  N17 MIQ B 502      16.163   2.515   7.801  1.00139.42    -0.288 N 
HETATM   11  O16 MIQ B 502      14.289   1.548   9.019  1.00148.93    -0.171 OA
ENDROOT
BRANCH  10  12
HETATM   12  C18 MIQ B 502      16.565   1.256   7.202  1.00139.82     0.187 C 
HETATM   13  C19 MIQ B 502      18.065   1.072   7.463  1.00140.06     0.247 C 
HETATM   14  O25 MIQ B 502      18.477   1.188   8.563  1.00143.95    -0.271 OA
HETATM   15  N20 MIQ B 502      18.992   0.753   6.397  1.00140.02    -0.296 N 
HETATM   16  H13 MIQ B 502      19.970   0.642   6.580  1.00142.77     0.171 HD
HETATM   17  C21 MIQ B 502      18.467   0.627   5.062  1.00142.22     0.224 C 
HETATM   18  C22 MIQ B 502      17.297   1.522   4.702  1.00139.52     0.106 C 
HETATM   19  O24 MIQ B 502      18.924  -0.142   4.289  1.00146.13    -0.273 OA
HETATM   20  C23 MIQ B 502      16.206   1.235   5.717  1.00139.15     0.045 C 
ENDBRANCH  10  12
BRANCH   5  21
HETATM   21  N6  MIQ B 502      15.643   8.351   9.638  1.00140.95    -0.377 N 
HETATM   22  C7  MIQ B 502      14.734   9.287   8.999  1.00142.12     0.149 C 
HETATM   23  C8  MIQ B 502      15.399  10.630   8.727  1.00144.10     0.187 C 
HETATM   24  O9  MIQ B 502      16.089  11.129   9.834  1.00148.65    -0.388 OA
HETATM   25  C10 MIQ B 502      16.303  10.324  10.956  1.00147.44     0.187 C 
HETATM   26  C11 MIQ B 502      16.441   8.818  10.758  1.00144.08     0.149 C 
ENDBRANCH   5  21
TORSDOF 2
ENDMDL
