MODEL 1
REMARK VINA RESULT:      -6.9      0.000      0.000
REMARK  2 active torsions:
REMARK  status: ('A' for Active; 'I' for Inactive)
REMARK    1  A    between atoms: C5_5  and  N6_21 
REMARK    2  A    between atoms: C18_14  and  N17_19 
ROOT
HETATM    1  O1  MIQ B 502      11.052  12.474  16.127  1.00142.91    -0.171 OA
HETATM    2  C2  MIQ B 502      11.524  12.253  14.831  1.00141.17     0.195 A 
HETATM    3  C3  MIQ B 502      12.990  11.891  14.433  1.00141.71     0.035 A 
HETATM    4  C4  MIQ B 502      14.235  11.681  15.210  1.00142.86     0.046 A 
HETATM    5  C5  MIQ B 502      15.445  11.352  14.550  1.00139.53     0.031 A 
HETATM    6  C12 MIQ B 502      15.465  11.220  13.100  1.00139.38     0.030 A 
HETATM    7  C13 MIQ B 502      14.272  11.420  12.355  1.00141.18     0.019 A 
HETATM    8  C14 MIQ B 502      13.003  11.763  13.054  1.00138.77     0.033 A 
HETATM    9  C15 MIQ B 502      11.536  12.046  12.593  1.00142.10     0.195 A 
HETATM   10  N17 MIQ B 502      10.849  12.296  13.695  1.00139.42    -0.288 N 
HETATM   11  O16 MIQ B 502      11.056  12.038  11.282  1.00148.93    -0.171 OA
ENDROOT
BRANCH  10  12
HETATM   12  C18 MIQ B 502       9.435  12.621  13.649  1.00139.82     0.187 C 
HETATM   13  C19 MIQ B 502       9.241  13.965  14.361  1.00140.06     0.247 C 
HETATM   14  O25 MIQ B 502       9.913  14.883  14.052  1.00143.95    -0.271 OA
HETATM   15  N20 MIQ B 502       8.248  14.142  15.401  1.00140.02    -0.296 N 
HETATM   16  H13 MIQ B 502       8.135  15.023  15.862  1.00142.77     0.171 HD
HETATM   17  C21 MIQ B 502       7.446  13.003  15.768  1.00142.22     0.224 C 
HETATM   18  C22 MIQ B 502       8.115  11.645  15.689  1.00139.52     0.106 C 
HETATM   19  O24 MIQ B 502       6.321  13.124  16.109  1.00146.13    -0.273 OA
HETATM   20  C23 MIQ B 502       8.610  11.491  14.262  1.00139.15     0.045 C 
ENDBRANCH  10  12
BRANCH   5  21
HETATM   21  N6  MIQ B 502      16.660  11.163  15.322  1.00140.95    -0.377 N 
HETATM   22  C7  MIQ B 502      17.903  10.917  14.613  1.00142.12     0.149 C 
HETATM   23  C8  MIQ B 502      18.895  10.129  15.459  1.00144.10     0.187 C 
HETATM   24  O9  MIQ B 502      19.036  10.643  16.750  1.00148.65    -0.388 OA
HETATM   25  C10 MIQ B 502      18.160  11.624  17.220  1.00147.44     0.187 C 
HETATM   26  C11 MIQ B 502      16.729  11.639  16.693  1.00144.08     0.149 C 
ENDBRANCH   5  21
TORSDOF 2
ENDMDL
MODEL 2
REMARK VINA RESULT:      -6.7      4.332      7.886
REMARK  2 active torsions:
REMARK  status: ('A' for Active; 'I' for Inactive)
REMARK    1  A    between atoms: C5_5  and  N6_21 
REMARK    2  A    between atoms: C18_14  and  N17_19 
ROOT
HETATM    1  O1  MIQ B 502      10.433  14.695  12.813  1.00142.91    -0.171 OA
HETATM    2  C2  MIQ B 502       9.886  13.447  13.119  1.00141.17     0.195 A 
HETATM    3  C3  MIQ B 502       8.965  13.117  14.337  1.00141.71     0.035 A 
HETATM    4  C4  MIQ B 502       8.420  13.928  15.451  1.00142.86     0.046 A 
HETATM    5  C5  MIQ B 502       7.587  13.331  16.431  1.00139.53     0.031 A 
HETATM    6  C12 MIQ B 502       7.267  11.913  16.342  1.00139.38     0.030 A 
HETATM    7  C13 MIQ B 502       7.789  11.136  15.273  1.00141.18     0.019 A 
HETATM    8  C14 MIQ B 502       8.660  11.769  14.245  1.00138.77     0.033 A 
HETATM    9  C15 MIQ B 502       9.396  11.259  12.963  1.00142.10     0.195 A 
HETATM   10  N17 MIQ B 502      10.022  12.309  12.459  1.00139.42    -0.288 N 
HETATM   11  O16 MIQ B 502       9.391   9.957  12.458  1.00148.93    -0.171 OA
ENDROOT
BRANCH  10  12
HETATM   12  C18 MIQ B 502      10.831  12.205  11.259  1.00139.82     0.187 C 
HETATM   13  C19 MIQ B 502      12.209  12.803  11.570  1.00140.06     0.247 C 
HETATM   14  O25 MIQ B 502      12.793  12.437  12.528  1.00143.95    -0.271 OA
HETATM   15  N20 MIQ B 502      12.818  13.803  10.717  1.00140.02    -0.296 N 
HETATM   16  H13 MIQ B 502      13.715  14.190  10.935  1.00142.77     0.171 HD
HETATM   17  C21 MIQ B 502      12.082  14.241   9.560  1.00142.22     0.224 C 
HETATM   18  C22 MIQ B 502      10.571  14.286   9.690  1.00139.52     0.106 C 
HETATM   19  O24 MIQ B 502      12.629  14.546   8.558  1.00146.13    -0.273 OA
HETATM   20  C23 MIQ B 502      10.131  12.888  10.085  1.00139.15     0.045 C 
ENDBRANCH  10  12
BRANCH   5  21
HETATM   21  N6  MIQ B 502       7.072  14.134  17.526  1.00140.95    -0.377 N 
HETATM   22  C7  MIQ B 502       6.454  13.457  18.652  1.00142.12     0.149 C 
HETATM   23  C8  MIQ B 502       5.433  14.342  19.357  1.00144.10     0.187 C 
HETATM   24  O9  MIQ B 502       5.917  15.624  19.623  1.00148.65    -0.388 OA
HETATM   25  C10 MIQ B 502       7.125  16.054  19.067  1.00147.44     0.187 C 
HETATM   26  C11 MIQ B 502       7.544  15.495  17.712  1.00144.08     0.149 C 
ENDBRANCH   5  21
TORSDOF 2
ENDMDL
MODEL 3
REMARK VINA RESULT:      -6.6      2.631      3.996
REMARK  2 active torsions:
REMARK  status: ('A' for Active; 'I' for Inactive)
REMARK    1  A    between atoms: C5_5  and  N6_21 
REMARK    2  A    between atoms: C18_14  and  N17_19 
ROOT
HETATM    1  O1  MIQ B 502      13.572  12.487  11.052  1.00142.91    -0.171 OA
HETATM    2  C2  MIQ B 502      13.423  12.208  12.412  1.00141.17     0.195 A 
HETATM    3  C3  MIQ B 502      14.521  11.631  13.362  1.00141.71     0.035 A 
HETATM    4  C4  MIQ B 502      15.935  11.234  13.161  1.00142.86     0.046 A 
HETATM    5  C5  MIQ B 502      16.699  10.732  14.245  1.00139.53     0.031 A 
HETATM    6  C12 MIQ B 502      16.090  10.607  15.561  1.00139.38     0.030 A 
HETATM    7  C13 MIQ B 502      14.735  10.989  15.754  1.00141.18     0.019 A 
HETATM    8  C14 MIQ B 502      13.938  11.517  14.613  1.00138.77     0.033 A 
HETATM    9  C15 MIQ B 502      12.470  12.027  14.440  1.00142.10     0.195 A 
HETATM   10  N17 MIQ B 502      12.351  12.372  13.169  1.00139.42    -0.288 N 
HETATM   11  O16 MIQ B 502      11.489  12.098  15.430  1.00148.93    -0.171 OA
ENDROOT
BRANCH  10  12
HETATM   12  C18 MIQ B 502      11.101  12.881  12.637  1.00139.82     0.187 C 
HETATM   13  C19 MIQ B 502      10.753  12.058  11.391  1.00140.06     0.247 C 
HETATM   14  O25 MIQ B 502      10.754  10.880  11.460  1.00143.95    -0.271 OA
HETATM   15  N20 MIQ B 502      10.415  12.686  10.130  1.00140.02    -0.296 N 
HETATM   16  H13 MIQ B 502      10.196  12.137   9.322  1.00142.77     0.171 HD
HETATM   17  C21 MIQ B 502      10.430  14.125  10.068  1.00142.22     0.224 C 
HETATM   18  C22 MIQ B 502      11.459  14.833  10.928  1.00139.52     0.106 C 
HETATM   19  O24 MIQ B 502       9.674  14.721   9.383  1.00146.13    -0.273 OA
HETATM   20  C23 MIQ B 502      11.214  14.379  12.355  1.00139.15     0.045 C 
ENDBRANCH  10  12
BRANCH   5  21
HETATM   21  N6  MIQ B 502      18.078  10.333  14.031  1.00140.95    -0.377 N 
HETATM   22  C7  MIQ B 502      18.690  10.611  12.743  1.00142.12     0.149 C 
HETATM   23  C8  MIQ B 502      19.812   9.632  12.422  1.00144.10     0.187 C 
HETATM   24  O9  MIQ B 502      20.704   9.462  13.483  1.00148.65    -0.388 OA
HETATM   25  C10 MIQ B 502      20.408   9.979  14.747  1.00147.44     0.187 C 
HETATM   26  C11 MIQ B 502      18.946  10.083  15.168  1.00144.08     0.149 C 
ENDBRANCH   5  21
TORSDOF 2
ENDMDL
MODEL 4
REMARK VINA RESULT:      -6.4      1.517      2.577
REMARK  2 active torsions:
REMARK  status: ('A' for Active; 'I' for Inactive)
REMARK    1  A    between atoms: C5_5  and  N6_21 
REMARK    2  A    between atoms: C18_14  and  N17_19 
ROOT
HETATM    1  O1  MIQ B 502      12.206  12.190  11.448  1.00142.91    -0.171 OA
HETATM    2  C2  MIQ B 502      12.392  12.080  12.828  1.00141.17     0.195 A 
HETATM    3  C3  MIQ B 502      13.705  11.639  13.549  1.00141.71     0.035 A 
HETATM    4  C4  MIQ B 502      15.047  11.236  13.066  1.00142.86     0.046 A 
HETATM    5  C5  MIQ B 502      16.064  10.882  13.988  1.00139.53     0.031 A 
HETATM    6  C12 MIQ B 502      15.788  10.915  15.417  1.00139.38     0.030 A 
HETATM    7  C13 MIQ B 502      14.502  11.303  15.881  1.00141.18     0.019 A 
HETATM    8  C14 MIQ B 502      13.438  11.676  14.908  1.00138.77     0.033 A 
HETATM    9  C15 MIQ B 502      11.951  12.143  15.031  1.00142.10     0.195 A 
HETATM   10  N17 MIQ B 502      11.522  12.325  13.793  1.00139.42    -0.288 N 
HETATM   11  O16 MIQ B 502      11.227  12.326  16.211  1.00148.93    -0.171 OA
ENDROOT
BRANCH  10  12
HETATM   12  C18 MIQ B 502      10.162  12.750  13.518  1.00139.82     0.187 C 
HETATM   13  C19 MIQ B 502       9.938  14.090  14.229  1.00140.06     0.247 C 
HETATM   14  O25 MIQ B 502      10.713  14.964  14.069  1.00143.95    -0.271 OA
HETATM   15  N20 MIQ B 502       8.795  14.315  15.090  1.00140.02    -0.296 N 
HETATM   16  H13 MIQ B 502       8.663  15.192  15.554  1.00142.77     0.171 HD
HETATM   17  C21 MIQ B 502       7.868  13.229  15.278  1.00142.22     0.224 C 
HETATM   18  C22 MIQ B 502       8.449  11.828  15.270  1.00139.52     0.106 C 
HETATM   19  O24 MIQ B 502       6.711  13.423  15.426  1.00146.13    -0.273 OA
HETATM   20  C23 MIQ B 502       9.171  11.669  13.945  1.00139.15     0.045 C 
ENDBRANCH  10  12
BRANCH   5  21
HETATM   21  N6  MIQ B 502      17.370  10.475  13.500  1.00140.95    -0.377 N 
HETATM   22  C7  MIQ B 502      17.729  10.794  12.129  1.00142.12     0.149 C 
HETATM   23  C8  MIQ B 502      18.751   9.814  11.567  1.00144.10     0.187 C 
HETATM   24  O9  MIQ B 502      19.826   9.595  12.430  1.00148.65    -0.388 OA
HETATM   25  C10 MIQ B 502      19.787  10.069  13.744  1.00147.44     0.187 C 
HETATM   26  C11 MIQ B 502      18.434  10.174  14.441  1.00144.08     0.149 C 
ENDBRANCH   5  21
TORSDOF 2
ENDMDL
MODEL 5
REMARK VINA RESULT:      -6.3      2.221      8.055
REMARK  2 active torsions:
REMARK  status: ('A' for Active; 'I' for Inactive)
REMARK    1  A    between atoms: C5_5  and  N6_21 
REMARK    2  A    between atoms: C18_14  and  N17_19 
ROOT
HETATM    1  O1  MIQ B 502      15.033  10.793  15.742  1.00142.91    -0.171 OA
HETATM    2  C2  MIQ B 502      14.843  11.983  15.035  1.00141.17     0.195 A 
HETATM    3  C3  MIQ B 502      13.478  12.699  14.786  1.00141.71     0.035 A 
HETATM    4  C4  MIQ B 502      12.081  12.394  15.175  1.00142.86     0.046 A 
HETATM    5  C5  MIQ B 502      11.025  13.259  14.792  1.00139.53     0.031 A 
HETATM    6  C12 MIQ B 502      11.316  14.453  14.012  1.00139.38     0.030 A 
HETATM    7  C13 MIQ B 502      12.655  14.747  13.639  1.00141.18     0.019 A 
HETATM    8  C14 MIQ B 502      13.760  13.836  14.046  1.00138.77     0.033 A 
HETATM    9  C15 MIQ B 502      15.310  13.826  13.836  1.00142.10     0.195 A 
HETATM   10  N17 MIQ B 502      15.753  12.739  14.446  1.00139.42    -0.288 N 
HETATM   11  O16 MIQ B 502      16.066  14.772  13.143  1.00148.93    -0.171 OA
ENDROOT
BRANCH  10  12
HETATM   12  C18 MIQ B 502      17.162  12.392  14.444  1.00139.82     0.187 C 
HETATM   13  C19 MIQ B 502      17.281  10.922  14.024  1.00140.06     0.247 C 
HETATM   14  O25 MIQ B 502      16.737  10.558  13.042  1.00143.95    -0.271 OA
HETATM   15  N20 MIQ B 502      18.049   9.966  14.795  1.00140.02    -0.296 N 
HETATM   16  H13 MIQ B 502      18.114   9.008  14.513  1.00142.77     0.171 HD
HETATM   17  C21 MIQ B 502      18.696  10.432  15.995  1.00142.22     0.224 C 
HETATM   18  C22 MIQ B 502      17.984  11.521  16.774  1.00139.52     0.106 C 
HETATM   19  O24 MIQ B 502      19.733   9.989  16.350  1.00146.13    -0.273 OA
HETATM   20  C23 MIQ B 502      17.782  12.677  15.812  1.00139.15     0.045 C 
ENDBRANCH  10  12
BRANCH   5  21
HETATM   21  N6  MIQ B 502       9.659  12.940  15.167  1.00140.95    -0.377 N 
HETATM   22  C7  MIQ B 502       8.609  13.887  14.836  1.00142.12     0.149 C 
HETATM   23  C8  MIQ B 502       7.426  13.782  15.791  1.00144.10     0.187 C 
HETATM   24  O9  MIQ B 502       7.003  12.466  15.988  1.00148.65    -0.388 OA
HETATM   25  C10 MIQ B 502       7.772  11.397  15.520  1.00147.44     0.187 C 
HETATM   26  C11 MIQ B 502       9.286  11.565  15.447  1.00144.08     0.149 C 
ENDBRANCH   5  21
TORSDOF 2
ENDMDL
MODEL 6
REMARK VINA RESULT:      -6.1      2.943      8.348
REMARK  2 active torsions:
REMARK  status: ('A' for Active; 'I' for Inactive)
REMARK    1  A    between atoms: C5_5  and  N6_21 
REMARK    2  A    between atoms: C18_14  and  N17_19 
ROOT
HETATM    1  O1  MIQ B 502      16.594  10.958  13.783  1.00142.91    -0.171 OA
HETATM    2  C2  MIQ B 502      15.971  12.040  14.410  1.00141.17     0.195 A 
HETATM    3  C3  MIQ B 502      14.555  12.609  14.076  1.00141.71     0.035 A 
HETATM    4  C4  MIQ B 502      13.511  12.233  13.093  1.00142.86     0.046 A 
HETATM    5  C5  MIQ B 502      12.295  12.958  13.026  1.00139.53     0.031 A 
HETATM    6  C12 MIQ B 502      12.071  14.078  13.930  1.00139.38     0.030 A 
HETATM    7  C13 MIQ B 502      13.070  14.438  14.873  1.00141.18     0.019 A 
HETATM    8  C14 MIQ B 502      14.345  13.671  14.940  1.00138.77     0.033 A 
HETATM    9  C15 MIQ B 502      15.637  13.761  15.816  1.00142.10     0.195 A 
HETATM   10  N17 MIQ B 502      16.430  12.789  15.397  1.00139.42    -0.288 N 
HETATM   11  O16 MIQ B 502      15.896  14.684  16.830  1.00148.93    -0.171 OA
ENDROOT
BRANCH  10  12
HETATM   12  C18 MIQ B 502      17.742  12.578  15.980  1.00139.82     0.187 C 
HETATM   13  C19 MIQ B 502      18.763  12.543  14.836  1.00140.06     0.247 C 
HETATM   14  O25 MIQ B 502      18.769  13.416  14.043  1.00143.95    -0.271 OA
HETATM   15  N20 MIQ B 502      19.726  11.469  14.704  1.00140.02    -0.296 N 
HETATM   16  H13 MIQ B 502      20.382  11.454  13.949  1.00142.77     0.171 HD
HETATM   17  C21 MIQ B 502      19.691  10.409  15.679  1.00142.22     0.224 C 
HETATM   18  C22 MIQ B 502      18.330  10.039  16.235  1.00139.52     0.106 C 
HETATM   19  O24 MIQ B 502      20.677   9.860  16.029  1.00146.13    -0.273 OA
HETATM   20  C23 MIQ B 502      17.748  11.308  16.830  1.00139.15     0.045 C 
ENDBRANCH  10  12
BRANCH   5  21
HETATM   21  N6  MIQ B 502      11.288  12.588  12.049  1.00140.95    -0.377 N 
HETATM   22  C7  MIQ B 502      11.455  13.034  10.676  1.00142.12     0.149 C 
HETATM   23  C8  MIQ B 502      10.121  13.158   9.952  1.00144.10     0.187 C 
HETATM   24  O9  MIQ B 502       9.306  12.037  10.120  1.00148.65    -0.388 OA
HETATM   25  C10 MIQ B 502       9.640  11.052  11.053  1.00147.44     0.187 C 
HETATM   26  C11 MIQ B 502      10.404  11.465  12.307  1.00144.08     0.149 C 
ENDBRANCH   5  21
TORSDOF 2
ENDMDL
MODEL 7
REMARK VINA RESULT:      -6.0     14.689     17.689
REMARK  2 active torsions:
REMARK  status: ('A' for Active; 'I' for Inactive)
REMARK    1  A    between atoms: C5_5  and  N6_21 
REMARK    2  A    between atoms: C18_14  and  N17_19 
ROOT
HETATM    1  O1  MIQ B 502      11.408   0.815  29.050  1.00142.91    -0.171 OA
HETATM    2  C2  MIQ B 502      11.545   1.959  28.262  1.00141.17     0.195 A 
HETATM    3  C3  MIQ B 502      10.380   2.809  27.660  1.00141.71     0.035 A 
HETATM    4  C4  MIQ B 502       8.903   2.699  27.718  1.00142.86     0.046 A 
HETATM    5  C5  MIQ B 502       8.088   3.649  27.053  1.00139.53     0.031 A 
HETATM    6  C12 MIQ B 502       8.705   4.737  26.308  1.00139.38     0.030 A 
HETATM    7  C13 MIQ B 502      10.121   4.843  26.253  1.00141.18     0.019 A 
HETATM    8  C14 MIQ B 502      10.973   3.844  26.956  1.00138.77     0.033 A 
HETATM    9  C15 MIQ B 502      12.514   3.637  27.123  1.00142.10     0.195 A 
HETATM   10  N17 MIQ B 502      12.658   2.557  27.872  1.00139.42    -0.288 N 
HETATM   11  O16 MIQ B 502      13.527   4.433  26.585  1.00148.93    -0.171 OA
ENDROOT
BRANCH  10  12
HETATM   12  C18 MIQ B 502      13.971   2.049  28.224  1.00139.82     0.187 C 
HETATM   13  C19 MIQ B 502      14.780   3.211  28.812  1.00140.06     0.247 C 
HETATM   14  O25 MIQ B 502      14.311   3.858  29.679  1.00143.95    -0.271 OA
HETATM   15  N20 MIQ B 502      16.109   3.535  28.335  1.00140.02    -0.296 N 
HETATM   16  H13 MIQ B 502      16.624   4.300  28.723  1.00142.77     0.171 HD
HETATM   17  C21 MIQ B 502      16.656   2.737  27.268  1.00142.22     0.224 C 
HETATM   18  C22 MIQ B 502      15.673   2.208  26.241  1.00139.52     0.106 C 
HETATM   19  O24 MIQ B 502      17.812   2.503  27.202  1.00146.13    -0.273 OA
HETATM   20  C23 MIQ B 502      14.636   1.408  27.007  1.00139.15     0.045 C 
ENDBRANCH  10  12
BRANCH   5  21
HETATM   21  N6  MIQ B 502       6.643   3.521  27.106  1.00140.95    -0.377 N 
HETATM   22  C7  MIQ B 502       5.996   3.490  28.406  1.00142.12     0.149 C 
HETATM   23  C8  MIQ B 502       4.672   2.737  28.365  1.00144.10     0.187 C 
HETATM   24  O9  MIQ B 502       3.856   3.130  27.302  1.00148.65    -0.388 OA
HETATM   25  C10 MIQ B 502       4.359   3.955  26.292  1.00147.44     0.187 C 
HETATM   26  C11 MIQ B 502       5.841   3.861  25.944  1.00144.08     0.149 C 
ENDBRANCH   5  21
TORSDOF 2
ENDMDL
MODEL 8
REMARK VINA RESULT:      -5.9      4.514      6.003
REMARK  2 active torsions:
REMARK  status: ('A' for Active; 'I' for Inactive)
REMARK    1  A    between atoms: C5_5  and  N6_21 
REMARK    2  A    between atoms: C18_14  and  N17_19 
ROOT
HETATM    1  O1  MIQ B 502       8.334  15.936  15.642  1.00142.91    -0.171 OA
HETATM    2  C2  MIQ B 502       8.211  14.562  15.421  1.00141.17     0.195 A 
HETATM    3  C3  MIQ B 502       8.976  13.729  14.344  1.00141.71     0.035 A 
HETATM    4  C4  MIQ B 502       9.981  14.076  13.312  1.00142.86     0.046 A 
HETATM    5  C5  MIQ B 502      10.508  13.074  12.459  1.00139.53     0.031 A 
HETATM    6  C12 MIQ B 502      10.060  11.696  12.600  1.00139.38     0.030 A 
HETATM    7  C13 MIQ B 502       9.098  11.362  13.591  1.00141.18     0.019 A 
HETATM    8  C14 MIQ B 502       8.549  12.418  14.485  1.00138.77     0.033 A 
HETATM    9  C15 MIQ B 502       7.514  12.438  15.656  1.00142.10     0.195 A 
HETATM   10  N17 MIQ B 502       7.446  13.695  16.062  1.00139.42    -0.288 N 
HETATM   11  O16 MIQ B 502       6.805  11.348  16.164  1.00148.93    -0.171 OA
ENDROOT
BRANCH  10  12
HETATM   12  C18 MIQ B 502       6.561  14.096  17.140  1.00139.82     0.187 C 
HETATM   13  C19 MIQ B 502       5.684  15.243  16.623  1.00140.06     0.247 C 
HETATM   14  O25 MIQ B 502       5.105  15.112  15.604  1.00143.95    -0.271 OA
HETATM   15  N20 MIQ B 502       5.542  16.485  17.355  1.00140.02    -0.296 N 
HETATM   16  H13 MIQ B 502       4.972  17.229  17.003  1.00142.77     0.171 HD
HETATM   17  C21 MIQ B 502       6.267  16.626  18.592  1.00142.22     0.224 C 
HETATM   18  C22 MIQ B 502       7.616  15.939  18.673  1.00139.52     0.106 C 
HETATM   19  O24 MIQ B 502       5.827  17.243  19.499  1.00146.13    -0.273 OA
HETATM   20  C23 MIQ B 502       7.369  14.470  18.381  1.00139.15     0.045 C 
ENDBRANCH  10  12
BRANCH   5  21
HETATM   21  N6  MIQ B 502      11.481  13.431  11.442  1.00140.95    -0.377 N 
HETATM   22  C7  MIQ B 502      12.314  12.382  10.879  1.00142.12     0.149 C 
HETATM   23  C8  MIQ B 502      13.641  12.925  10.365  1.00144.10     0.187 C 
HETATM   24  O9  MIQ B 502      13.492  14.061   9.568  1.00148.65    -0.388 OA
HETATM   25  C10 MIQ B 502      12.258  14.712   9.487  1.00147.44     0.187 C 
HETATM   26  C11 MIQ B 502      11.329  14.668  10.696  1.00144.08     0.149 C 
ENDBRANCH   5  21
TORSDOF 2
ENDMDL
MODEL 9
REMARK VINA RESULT:      -5.9      4.438      7.001
REMARK  2 active torsions:
REMARK  status: ('A' for Active; 'I' for Inactive)
REMARK    1  A    between atoms: C5_5  and  N6_21 
REMARK    2  A    between atoms: C18_14  and  N17_19 
ROOT
HETATM    1  O1  MIQ B 502       5.586  14.821  15.806  1.00142.91    -0.171 OA
HETATM    2  C2  MIQ B 502       6.831  14.870  16.437  1.00141.17     0.195 A 
HETATM    3  C3  MIQ B 502       8.162  14.254  15.901  1.00141.71     0.035 A 
HETATM    4  C4  MIQ B 502       8.514  13.496  14.676  1.00142.86     0.046 A 
HETATM    5  C5  MIQ B 502       9.845  13.059  14.462  1.00139.53     0.031 A 
HETATM    6  C12 MIQ B 502      10.872  13.356  15.450  1.00139.38     0.030 A 
HETATM    7  C13 MIQ B 502      10.536  14.083  16.624  1.00141.18     0.019 A 
HETATM    8  C14 MIQ B 502       9.137  14.542  16.843  1.00138.77     0.033 A 
HETATM    9  C15 MIQ B 502       8.406  15.343  17.970  1.00142.10     0.195 A 
HETATM   10  N17 MIQ B 502       7.143  15.438  17.590  1.00139.42    -0.288 N 
HETATM   11  O16 MIQ B 502       8.976  15.849  19.139  1.00148.93    -0.171 OA
ENDROOT
BRANCH  10  12
HETATM   12  C18 MIQ B 502       6.154  16.113  18.410  1.00139.82     0.187 C 
HETATM   13  C19 MIQ B 502       4.995  15.136  18.643  1.00140.06     0.247 C 
HETATM   14  O25 MIQ B 502       5.227  14.050  19.038  1.00143.95    -0.271 OA
HETATM   15  N20 MIQ B 502       3.618  15.513  18.396  1.00140.02    -0.296 N 
HETATM   16  H13 MIQ B 502       2.870  14.864  18.546  1.00142.77     0.171 HD
HETATM   17  C21 MIQ B 502       3.360  16.842  17.904  1.00142.22     0.224 C 
HETATM   18  C22 MIQ B 502       4.406  17.442  16.984  1.00139.52     0.106 C 
HETATM   19  O24 MIQ B 502       2.383  17.434  18.207  1.00146.13    -0.273 OA
HETATM   20  C23 MIQ B 502       5.717  17.419  17.749  1.00139.15     0.045 C 
ENDBRANCH  10  12
BRANCH   5  21
HETATM   21  N6  MIQ B 502      10.172  12.305  13.265  1.00140.95    -0.377 N 
HETATM   22  C7  MIQ B 502      11.565  12.211  12.862  1.00142.12     0.149 C 
HETATM   23  C8  MIQ B 502      11.710  11.994  11.361  1.00144.10     0.187 C 
HETATM   24  O9  MIQ B 502      10.878  10.983  10.876  1.00148.65    -0.388 OA
HETATM   25  C10 MIQ B 502       9.881  10.436  11.687  1.00147.44     0.187 C 
HETATM   26  C11 MIQ B 502       9.236  11.322  12.748  1.00144.08     0.149 C 
ENDBRANCH   5  21
TORSDOF 2
ENDMDL
