MODEL 1
REMARK VINA RESULT:      -7.9      0.000      0.000
REMARK  2 active torsions:
REMARK  status: ('A' for Active; 'I' for Inactive)
REMARK    1  A    between atoms: C5_5  and  N6_21 
REMARK    2  A    between atoms: C18_14  and  N17_19 
ROOT
HETATM    1  O1  MIQ B 502      -0.831  -7.000 -15.250  1.00142.91    -0.171 OA
HETATM    2  C2  MIQ B 502      -1.446  -6.364 -16.331  1.00141.17     0.195 A 
HETATM    3  C3  MIQ B 502      -2.258  -7.060 -17.469  1.00141.71     0.035 A 
HETATM    4  C4  MIQ B 502      -2.613  -8.471 -17.753  1.00142.86     0.046 A 
HETATM    5  C5  MIQ B 502      -3.385  -8.800 -18.895  1.00139.53     0.031 A 
HETATM    6  C12 MIQ B 502      -3.831  -7.746 -19.795  1.00139.38     0.030 A 
HETATM    7  C13 MIQ B 502      -3.492  -6.393 -19.523  1.00141.18     0.019 A 
HETATM    8  C14 MIQ B 502      -2.684  -6.053 -18.320  1.00138.77     0.033 A 
HETATM    9  C15 MIQ B 502      -2.133  -4.724 -17.706  1.00142.10     0.195 A 
HETATM   10  N17 MIQ B 502      -1.476  -5.073 -16.611  1.00139.42    -0.288 N 
HETATM   11  O16 MIQ B 502      -2.301  -3.435 -18.215  1.00148.93    -0.171 OA
ENDROOT
BRANCH  10  12
HETATM   12  C18 MIQ B 502      -0.810  -4.087 -15.782  1.00139.82     0.187 C 
HETATM   13  C19 MIQ B 502      -1.842  -3.016 -15.407  1.00140.06     0.247 C 
HETATM   14  O25 MIQ B 502      -2.878  -3.349 -14.950  1.00143.95    -0.271 OA
HETATM   15  N20 MIQ B 502      -1.580  -1.604 -15.594  1.00140.02    -0.296 N 
HETATM   16  H13 MIQ B 502      -2.265  -0.915 -15.351  1.00142.77     0.171 HD
HETATM   17  C21 MIQ B 502      -0.314  -1.222 -16.163  1.00142.22     0.224 C 
HETATM   18  C22 MIQ B 502       0.285  -2.168 -17.187  1.00139.52     0.106 C 
HETATM   19  O24 MIQ B 502       0.232  -0.224 -15.843  1.00146.13    -0.273 OA
HETATM   20  C23 MIQ B 502       0.409  -3.518 -16.506  1.00139.15     0.045 C 
ENDBRANCH  10  12
BRANCH   5  21
HETATM   21  N6  MIQ B 502      -3.712 -10.188 -19.169  1.00140.95    -0.377 N 
HETATM   22  C7  MIQ B 502      -5.111 -10.578 -19.202  1.00142.12     0.149 C 
HETATM   23  C8  MIQ B 502      -5.300 -12.048 -18.852  1.00144.10     0.187 C 
HETATM   24  O9  MIQ B 502      -4.430 -12.889 -19.549  1.00148.65    -0.388 OA
HETATM   25  C10 MIQ B 502      -3.371 -12.355 -20.288  1.00147.44     0.187 C 
HETATM   26  C11 MIQ B 502      -2.740 -11.048 -19.819  1.00144.08     0.149 C 
ENDBRANCH   5  21
TORSDOF 2
ENDMDL
MODEL 2
REMARK VINA RESULT:      -7.4     24.337     26.669
REMARK  2 active torsions:
REMARK  status: ('A' for Active; 'I' for Inactive)
REMARK    1  A    between atoms: C5_5  and  N6_21 
REMARK    2  A    between atoms: C18_14  and  N17_19 
ROOT
HETATM    1  O1  MIQ B 502     -26.552   0.565  -7.880  1.00142.91    -0.171 OA
HETATM    2  C2  MIQ B 502     -25.234   0.469  -8.330  1.00141.17     0.195 A 
HETATM    3  C3  MIQ B 502     -24.141   1.580  -8.225  1.00141.71     0.035 A 
HETATM    4  C4  MIQ B 502     -24.135   2.955  -7.672  1.00142.86     0.046 A 
HETATM    5  C5  MIQ B 502     -22.958   3.743  -7.722  1.00139.53     0.031 A 
HETATM    6  C12 MIQ B 502     -21.748   3.197  -8.321  1.00139.38     0.030 A 
HETATM    7  C13 MIQ B 502     -21.752   1.879  -8.850  1.00141.18     0.019 A 
HETATM    8  C14 MIQ B 502     -22.991   1.055  -8.792  1.00138.77     0.033 A 
HETATM    9  C15 MIQ B 502     -23.372  -0.390  -9.251  1.00142.10     0.195 A 
HETATM   10  N17 MIQ B 502     -24.642  -0.556  -8.919  1.00139.42    -0.288 N 
HETATM   11  O16 MIQ B 502     -22.538  -1.313  -9.884  1.00148.93    -0.171 OA
ENDROOT
BRANCH  10  12
HETATM   12  C18 MIQ B 502     -25.346  -1.790  -9.211  1.00139.82     0.187 C 
HETATM   13  C19 MIQ B 502     -26.589  -1.437 -10.037  1.00140.06     0.247 C 
HETATM   14  O25 MIQ B 502     -26.470  -0.761 -10.996  1.00143.95    -0.271 OA
HETATM   15  N20 MIQ B 502     -27.908  -1.914  -9.675  1.00140.02    -0.296 N 
HETATM   16  H13 MIQ B 502     -28.712  -1.671 -10.218  1.00142.77     0.171 HD
HETATM   17  C21 MIQ B 502     -28.029  -2.729  -8.493  1.00142.22     0.224 C 
HETATM   18  C22 MIQ B 502     -27.080  -2.419  -7.352  1.00139.52     0.106 C 
HETATM   19  O24 MIQ B 502     -28.827  -3.598  -8.421  1.00146.13    -0.273 OA
HETATM   20  C23 MIQ B 502     -25.676  -2.532  -7.916  1.00139.15     0.045 C 
ENDBRANCH  10  12
BRANCH   5  21
HETATM   21  N6  MIQ B 502     -22.971   5.094  -7.190  1.00140.95    -0.377 N 
HETATM   22  C7  MIQ B 502     -23.732   6.111  -7.895  1.00142.12     0.149 C 
HETATM   23  C8  MIQ B 502     -23.174   7.508  -7.655  1.00144.10     0.187 C 
HETATM   24  O9  MIQ B 502     -22.931   7.771  -6.305  1.00148.65    -0.388 OA
HETATM   25  C10 MIQ B 502     -22.992   6.743  -5.361  1.00147.44     0.187 C 
HETATM   26  C11 MIQ B 502     -22.627   5.329  -5.799  1.00144.08     0.149 C 
ENDBRANCH   5  21
TORSDOF 2
ENDMDL
MODEL 3
REMARK VINA RESULT:      -7.2     24.635     27.107
REMARK  2 active torsions:
REMARK  status: ('A' for Active; 'I' for Inactive)
REMARK    1  A    between atoms: C5_5  and  N6_21 
REMARK    2  A    between atoms: C18_14  and  N17_19 
ROOT
HETATM    1  O1  MIQ B 502     -25.971   1.321  -7.588  1.00142.91    -0.171 OA
HETATM    2  C2  MIQ B 502     -24.669   1.717  -7.904  1.00141.17     0.195 A 
HETATM    3  C3  MIQ B 502     -24.008   3.085  -7.541  1.00141.71     0.035 A 
HETATM    4  C4  MIQ B 502     -24.484   4.287  -6.817  1.00142.86     0.046 A 
HETATM    5  C5  MIQ B 502     -23.629   5.403  -6.640  1.00139.53     0.031 A 
HETATM    6  C12 MIQ B 502     -22.274   5.367  -7.172  1.00139.38     0.030 A 
HETATM    7  C13 MIQ B 502     -21.816   4.214  -7.865  1.00141.18     0.019 A 
HETATM    8  C14 MIQ B 502     -22.718   3.044  -8.046  1.00138.77     0.033 A 
HETATM    9  C15 MIQ B 502     -22.578   1.643  -8.726  1.00142.10     0.195 A 
HETATM   10  N17 MIQ B 502     -23.742   1.036  -8.555  1.00139.42    -0.288 N 
HETATM   11  O16 MIQ B 502     -21.453   1.140  -9.381  1.00148.93    -0.171 OA
ENDROOT
BRANCH  10  12
HETATM   12  C18 MIQ B 502     -23.985  -0.296  -9.077  1.00139.82     0.187 C 
HETATM   13  C19 MIQ B 502     -25.264  -0.241  -9.921  1.00140.06     0.247 C 
HETATM   14  O25 MIQ B 502     -25.368   0.585 -10.757  1.00143.95    -0.271 OA
HETATM   15  N20 MIQ B 502     -26.349  -1.180  -9.725  1.00140.02    -0.296 N 
HETATM   16  H13 MIQ B 502     -27.182  -1.130 -10.278  1.00142.77     0.171 HD
HETATM   17  C21 MIQ B 502     -26.204  -2.172  -8.691  1.00142.22     0.224 C 
HETATM   18  C22 MIQ B 502     -25.428  -1.760  -7.455  1.00139.52     0.106 C 
HETATM   19  O24 MIQ B 502     -26.663  -3.256  -8.806  1.00146.13    -0.273 OA
HETATM   20  C23 MIQ B 502     -24.061  -1.308  -7.935  1.00139.15     0.045 C 
ENDBRANCH  10  12
BRANCH   5  21
HETATM   21  N6  MIQ B 502     -24.113   6.580  -5.941  1.00140.95    -0.377 N 
HETATM   22  C7  MIQ B 502     -24.601   6.429  -4.581  1.00142.12     0.149 C 
HETATM   23  C8  MIQ B 502     -25.623   7.499  -4.221  1.00144.10     0.187 C 
HETATM   24  O9  MIQ B 502     -25.206   8.786  -4.566  1.00148.65    -0.388 OA
HETATM   25  C10 MIQ B 502     -24.075   8.974  -5.364  1.00147.44     0.187 C 
HETATM   26  C11 MIQ B 502     -23.721   7.904  -6.391  1.00144.08     0.149 C 
ENDBRANCH   5  21
TORSDOF 2
ENDMDL
MODEL 4
REMARK VINA RESULT:      -7.2     24.904     26.489
REMARK  2 active torsions:
REMARK  status: ('A' for Active; 'I' for Inactive)
REMARK    1  A    between atoms: C5_5  and  N6_21 
REMARK    2  A    between atoms: C18_14  and  N17_19 
ROOT
HETATM    1  O1  MIQ B 502     -21.864   5.441  -5.463  1.00142.91    -0.171 OA
HETATM    2  C2  MIQ B 502     -22.867   5.669  -6.407  1.00141.17     0.195 A 
HETATM    3  C3  MIQ B 502     -23.408   4.635  -7.446  1.00141.71     0.035 A 
HETATM    4  C4  MIQ B 502     -23.078   3.221  -7.743  1.00142.86     0.046 A 
HETATM    5  C5  MIQ B 502     -23.761   2.527  -8.774  1.00139.53     0.031 A 
HETATM    6  C12 MIQ B 502     -24.792   3.208  -9.543  1.00139.38     0.030 A 
HETATM    7  C13 MIQ B 502     -25.110   4.563  -9.257  1.00141.18     0.019 A 
HETATM    8  C14 MIQ B 502     -24.391   5.286  -8.173  1.00138.77     0.033 A 
HETATM    9  C15 MIQ B 502     -24.462   6.732  -7.582  1.00142.10     0.195 A 
HETATM   10  N17 MIQ B 502     -23.559   6.776  -6.616  1.00139.42    -0.288 N 
HETATM   11  O16 MIQ B 502     -25.306   7.764  -7.995  1.00148.93    -0.171 OA
ENDROOT
BRANCH  10  12
HETATM   12  C18 MIQ B 502     -23.331   7.985  -5.846  1.00139.82     0.187 C 
HETATM   13  C19 MIQ B 502     -24.650   8.355  -5.157  1.00140.06     0.247 C 
HETATM   14  O25 MIQ B 502     -25.223   7.536  -4.530  1.00143.95    -0.271 OA
HETATM   15  N20 MIQ B 502     -25.212   9.687  -5.247  1.00140.02    -0.296 N 
HETATM   16  H13 MIQ B 502     -26.077   9.915  -4.798  1.00142.77     0.171 HD
HETATM   17  C21 MIQ B 502     -24.500  10.668  -6.026  1.00142.22     0.224 C 
HETATM   18  C22 MIQ B 502     -23.753  10.159  -7.244  1.00139.52     0.106 C 
HETATM   19  O24 MIQ B 502     -24.495  11.811  -5.726  1.00146.13    -0.273 OA
HETATM   20  C23 MIQ B 502     -22.791   9.095  -6.747  1.00139.15     0.045 C 
ENDBRANCH  10  12
BRANCH   5  21
HETATM   21  N6  MIQ B 502     -23.417   1.147  -9.064  1.00140.95    -0.377 N 
HETATM   22  C7  MIQ B 502     -24.240   0.409 -10.007  1.00142.12     0.149 C 
HETATM   23  C8  MIQ B 502     -24.201  -1.091  -9.743  1.00144.10     0.187 C 
HETATM   24  O9  MIQ B 502     -22.905  -1.579  -9.574  1.00148.65    -0.388 OA
HETATM   25  C10 MIQ B 502     -21.829  -0.699  -9.436  1.00147.44     0.187 C 
HETATM   26  C11 MIQ B 502     -22.076   0.660  -8.790  1.00144.08     0.149 C 
ENDBRANCH   5  21
TORSDOF 2
ENDMDL
MODEL 5
REMARK VINA RESULT:      -7.2     25.211     26.951
REMARK  2 active torsions:
REMARK  status: ('A' for Active; 'I' for Inactive)
REMARK    1  A    between atoms: C5_5  and  N6_21 
REMARK    2  A    between atoms: C18_14  and  N17_19 
ROOT
HETATM    1  O1  MIQ B 502     -26.692   6.522  -8.941  1.00142.91    -0.171 OA
HETATM    2  C2  MIQ B 502     -25.398   6.618  -8.426  1.00141.17     0.195 A 
HETATM    3  C3  MIQ B 502     -24.339   5.471  -8.374  1.00141.71     0.035 A 
HETATM    4  C4  MIQ B 502     -24.349   4.054  -8.808  1.00142.86     0.046 A 
HETATM    5  C5  MIQ B 502     -23.204   3.239  -8.624  1.00139.53     0.031 A 
HETATM    6  C12 MIQ B 502     -22.011   3.799  -8.005  1.00139.38     0.030 A 
HETATM    7  C13 MIQ B 502     -22.000   5.157  -7.589  1.00141.18     0.019 A 
HETATM    8  C14 MIQ B 502     -23.205   6.009  -7.787  1.00138.77     0.033 A 
HETATM    9  C15 MIQ B 502     -23.562   7.498  -7.474  1.00142.10     0.195 A 
HETATM   10  N17 MIQ B 502     -24.805   7.672  -7.891  1.00139.42    -0.288 N 
HETATM   11  O16 MIQ B 502     -22.733   8.448  -6.873  1.00148.93    -0.171 OA
ENDROOT
BRANCH  10  12
HETATM   12  C18 MIQ B 502     -25.482   8.947  -7.745  1.00139.82     0.187 C 
HETATM   13  C19 MIQ B 502     -24.595  10.023  -8.383  1.00140.06     0.247 C 
HETATM   14  O25 MIQ B 502     -24.192   9.861  -9.480  1.00143.95    -0.271 OA
HETATM   15  N20 MIQ B 502     -24.241  11.238  -7.678  1.00140.02    -0.296 N 
HETATM   16  H13 MIQ B 502     -23.656  11.930  -8.103  1.00142.77     0.171 HD
HETATM   17  C21 MIQ B 502     -24.737  11.408  -6.337  1.00142.22     0.224 C 
HETATM   18  C22 MIQ B 502     -24.881  10.152  -5.499  1.00139.52     0.106 C 
HETATM   19  O24 MIQ B 502     -25.022  12.474  -5.914  1.00146.13    -0.273 OA
HETATM   20  C23 MIQ B 502     -25.793   9.219  -6.274  1.00139.15     0.045 C 
ENDBRANCH  10  12
BRANCH   5  21
HETATM   21  N6  MIQ B 502     -23.233   1.849  -9.041  1.00140.95    -0.377 N 
HETATM   22  C7  MIQ B 502     -22.606   0.854  -8.188  1.00142.12     0.149 C 
HETATM   23  C8  MIQ B 502     -22.141  -0.362  -8.979  1.00144.10     0.187 C 
HETATM   24  O9  MIQ B 502     -23.119  -0.852  -9.847  1.00148.65    -0.388 OA
HETATM   25  C10 MIQ B 502     -24.283  -0.118 -10.088  1.00147.44     0.187 C 
HETATM   26  C11 MIQ B 502     -24.215   1.404 -10.014  1.00144.08     0.149 C 
ENDBRANCH   5  21
TORSDOF 2
ENDMDL
MODEL 6
REMARK VINA RESULT:      -7.0     25.820     27.521
REMARK  2 active torsions:
REMARK  status: ('A' for Active; 'I' for Inactive)
REMARK    1  A    between atoms: C5_5  and  N6_21 
REMARK    2  A    between atoms: C18_14  and  N17_19 
ROOT
HETATM    1  O1  MIQ B 502     -26.796   4.857  -5.893  1.00142.91    -0.171 OA
HETATM    2  C2  MIQ B 502     -25.507   5.268  -6.236  1.00141.17     0.195 A 
HETATM    3  C3  MIQ B 502     -24.438   4.418  -6.994  1.00141.71     0.035 A 
HETATM    4  C4  MIQ B 502     -24.435   3.042  -7.546  1.00142.86     0.046 A 
HETATM    5  C5  MIQ B 502     -23.284   2.535  -8.201  1.00139.53     0.031 A 
HETATM    6  C12 MIQ B 502     -22.100   3.372  -8.332  1.00139.38     0.030 A 
HETATM    7  C13 MIQ B 502     -22.103   4.691  -7.803  1.00141.18     0.019 A 
HETATM    8  C14 MIQ B 502     -23.315   5.218  -7.119  1.00138.77     0.033 A 
HETATM    9  C15 MIQ B 502     -23.688   6.574  -6.435  1.00142.10     0.195 A 
HETATM   10  N17 MIQ B 502     -24.931   6.435  -6.004  1.00139.42    -0.288 N 
HETATM   11  O16 MIQ B 502     -22.871   7.698  -6.306  1.00148.93    -0.171 OA
ENDROOT
BRANCH  10  12
HETATM   12  C18 MIQ B 502     -25.610   7.504  -5.295  1.00139.82     0.187 C 
HETATM   13  C19 MIQ B 502     -26.114   6.935  -3.963  1.00140.06     0.247 C 
HETATM   14  O25 MIQ B 502     -25.364   6.352  -3.265  1.00143.95    -0.271 OA
HETATM   15  N20 MIQ B 502     -27.488   7.099  -3.534  1.00140.02    -0.296 N 
HETATM   16  H13 MIQ B 502     -27.806   6.718  -2.665  1.00142.77     0.171 HD
HETATM   17  C21 MIQ B 502     -28.388   7.806  -4.408  1.00142.22     0.224 C 
HETATM   18  C22 MIQ B 502     -28.155   7.648  -5.898  1.00139.52     0.106 C 
HETATM   19  O24 MIQ B 502     -29.262   8.479  -3.983  1.00146.13    -0.273 OA
HETATM   20  C23 MIQ B 502     -26.726   8.089  -6.160  1.00139.15     0.045 C 
ENDBRANCH  10  12
BRANCH   5  21
HETATM   21  N6  MIQ B 502     -23.290   1.181  -8.724  1.00140.95    -0.377 N 
HETATM   22  C7  MIQ B 502     -22.912   0.093  -7.839  1.00142.12     0.149 C 
HETATM   23  C8  MIQ B 502     -22.347  -1.095  -8.607  1.00144.10     0.187 C 
HETATM   24  O9  MIQ B 502     -23.136  -1.461  -9.699  1.00148.65    -0.388 OA
HETATM   25  C10 MIQ B 502     -24.184  -0.639 -10.122  1.00147.44     0.187 C 
HETATM   26  C11 MIQ B 502     -24.059   0.867  -9.916  1.00144.08     0.149 C 
ENDBRANCH   5  21
TORSDOF 2
ENDMDL
MODEL 7
REMARK VINA RESULT:      -6.9     24.614     27.181
REMARK  2 active torsions:
REMARK  status: ('A' for Active; 'I' for Inactive)
REMARK    1  A    between atoms: C5_5  and  N6_21 
REMARK    2  A    between atoms: C18_14  and  N17_19 
ROOT
HETATM    1  O1  MIQ B 502     -21.458   5.010  -6.927  1.00142.91    -0.171 OA
HETATM    2  C2  MIQ B 502     -22.544   4.705  -7.750  1.00141.17     0.195 A 
HETATM    3  C3  MIQ B 502     -23.728   5.660  -8.106  1.00141.71     0.035 A 
HETATM    4  C4  MIQ B 502     -24.057   7.057  -7.734  1.00142.86     0.046 A 
HETATM    5  C5  MIQ B 502     -25.235   7.672  -8.230  1.00139.53     0.031 A 
HETATM    6  C12 MIQ B 502     -26.124   6.926  -9.109  1.00139.38     0.030 A 
HETATM    7  C13 MIQ B 502     -25.808   5.587  -9.466  1.00141.18     0.019 A 
HETATM    8  C14 MIQ B 502     -24.569   4.948  -8.945  1.00138.77     0.033 A 
HETATM    9  C15 MIQ B 502     -23.904   3.543  -9.111  1.00142.10     0.195 A 
HETATM   10  N17 MIQ B 502     -22.795   3.576  -8.390  1.00139.42    -0.288 N 
HETATM   11  O16 MIQ B 502     -24.388   2.473  -9.866  1.00148.93    -0.171 OA
ENDROOT
BRANCH  10  12
HETATM   12  C18 MIQ B 502     -21.919   2.424  -8.295  1.00139.82     0.187 C 
HETATM   13  C19 MIQ B 502     -21.561   1.989  -9.722  1.00140.06     0.247 C 
HETATM   14  O25 MIQ B 502     -21.152   2.793 -10.483  1.00143.95    -0.271 OA
HETATM   15  N20 MIQ B 502     -21.706   0.617 -10.162  1.00140.02    -0.296 N 
HETATM   16  H13 MIQ B 502     -21.475   0.348 -11.098  1.00142.77     0.171 HD
HETATM   17  C21 MIQ B 502     -22.218  -0.343  -9.218  1.00142.22     0.224 C 
HETATM   18  C22 MIQ B 502     -23.238   0.163  -8.217  1.00139.52     0.106 C 
HETATM   19  O24 MIQ B 502     -21.854  -1.468  -9.223  1.00146.13    -0.273 OA
HETATM   20  C23 MIQ B 502     -22.583   1.316  -7.479  1.00139.15     0.045 C 
ENDBRANCH  10  12
BRANCH   5  21
HETATM   21  N6  MIQ B 502     -25.552   9.035  -7.846  1.00140.95    -0.377 N 
HETATM   22  C7  MIQ B 502     -24.856   9.618  -6.712  1.00142.12     0.149 C 
HETATM   23  C8  MIQ B 502     -25.679  10.708  -6.038  1.00144.10     0.187 C 
HETATM   24  O9  MIQ B 502     -26.213  11.625  -6.946  1.00148.65    -0.388 OA
HETATM   25  C10 MIQ B 502     -26.158  11.375  -8.319  1.00147.44     0.187 C 
HETATM   26  C11 MIQ B 502     -26.187   9.928  -8.800  1.00144.08     0.149 C 
ENDBRANCH   5  21
TORSDOF 2
ENDMDL
MODEL 8
REMARK VINA RESULT:      -6.9     24.831     26.167
REMARK  2 active torsions:
REMARK  status: ('A' for Active; 'I' for Inactive)
REMARK    1  A    between atoms: C5_5  and  N6_21 
REMARK    2  A    between atoms: C18_14  and  N17_19 
ROOT
HETATM    1  O1  MIQ B 502     -25.335   4.542  -6.743  1.00142.91    -0.171 OA
HETATM    2  C2  MIQ B 502     -24.366   3.742  -7.354  1.00141.17     0.195 A 
HETATM    3  C3  MIQ B 502     -24.600   2.336  -7.992  1.00141.71     0.035 A 
HETATM    4  C4  MIQ B 502     -25.795   1.474  -8.151  1.00142.86     0.046 A 
HETATM    5  C5  MIQ B 502     -25.692   0.215  -8.794  1.00139.53     0.031 A 
HETATM    6  C12 MIQ B 502     -24.403  -0.233  -9.302  1.00139.38     0.030 A 
HETATM    7  C13 MIQ B 502     -23.256   0.593  -9.151  1.00141.18     0.019 A 
HETATM    8  C14 MIQ B 502     -23.372   1.916  -8.477  1.00138.77     0.033 A 
HETATM    9  C15 MIQ B 502     -22.371   3.068  -8.138  1.00142.10     0.195 A 
HETATM   10  N17 MIQ B 502     -23.080   3.999  -7.523  1.00139.42    -0.288 N 
HETATM   11  O16 MIQ B 502     -21.005   3.100  -8.427  1.00148.93    -0.171 OA
ENDROOT
BRANCH  10  12
HETATM   12  C18 MIQ B 502     -22.468   5.224  -7.042  1.00139.82     0.187 C 
HETATM   13  C19 MIQ B 502     -22.888   5.414  -5.580  1.00140.06     0.247 C 
HETATM   14  O25 MIQ B 502     -22.747   4.524  -4.819  1.00143.95    -0.271 OA
HETATM   15  N20 MIQ B 502     -23.450   6.662  -5.103  1.00140.02    -0.296 N 
HETATM   16  H13 MIQ B 502     -23.726   6.771  -4.147  1.00142.77     0.171 HD
HETATM   17  C21 MIQ B 502     -23.623   7.730  -6.053  1.00142.22     0.224 C 
HETATM   18  C22 MIQ B 502     -23.964   7.330  -7.475  1.00139.52     0.106 C 
HETATM   19  O24 MIQ B 502     -23.499   8.863  -5.738  1.00146.13    -0.273 OA
HETATM   20  C23 MIQ B 502     -22.857   6.399  -7.938  1.00139.15     0.045 C 
ENDBRANCH  10  12
BRANCH   5  21
HETATM   21  N6  MIQ B 502     -26.868  -0.625  -8.928  1.00140.95    -0.377 N 
HETATM   22  C7  MIQ B 502     -26.705  -1.969  -9.453  1.00142.12     0.149 C 
HETATM   23  C8  MIQ B 502     -27.973  -2.474 -10.130  1.00144.10     0.187 C 
HETATM   24  O9  MIQ B 502     -29.118  -2.269  -9.357  1.00148.65    -0.388 OA
HETATM   25  C10 MIQ B 502     -29.066  -1.473  -8.211  1.00147.44     0.187 C 
HETATM   26  C11 MIQ B 502     -28.067  -0.321  -8.167  1.00144.08     0.149 C 
ENDBRANCH   5  21
TORSDOF 2
ENDMDL
MODEL 9
REMARK VINA RESULT:      -6.7     25.499     28.202
REMARK  2 active torsions:
REMARK  status: ('A' for Active; 'I' for Inactive)
REMARK    1  A    between atoms: C5_5  and  N6_21 
REMARK    2  A    between atoms: C18_14  and  N17_19 
ROOT
HETATM    1  O1  MIQ B 502     -26.157   5.100  -9.461  1.00142.91    -0.171 OA
HETATM    2  C2  MIQ B 502     -24.995   5.326  -8.719  1.00141.17     0.195 A 
HETATM    3  C3  MIQ B 502     -24.677   6.595  -7.866  1.00141.71     0.035 A 
HETATM    4  C4  MIQ B 502     -25.421   7.846  -7.584  1.00142.86     0.046 A 
HETATM    5  C5  MIQ B 502     -24.857   8.841  -6.746  1.00139.53     0.031 A 
HETATM    6  C12 MIQ B 502     -23.541   8.631  -6.159  1.00139.38     0.030 A 
HETATM    7  C13 MIQ B 502     -22.829   7.431  -6.428  1.00141.18     0.019 A 
HETATM    8  C14 MIQ B 502     -23.427   6.389  -7.307  1.00138.77     0.033 A 
HETATM    9  C15 MIQ B 502     -22.966   4.984  -7.816  1.00142.10     0.195 A 
HETATM   10  N17 MIQ B 502     -23.946   4.533  -8.580  1.00139.42    -0.288 N 
HETATM   11  O16 MIQ B 502     -21.761   4.343  -7.522  1.00148.93    -0.171 OA
ENDROOT
BRANCH  10  12
HETATM   12  C18 MIQ B 502     -23.858   3.246  -9.244  1.00139.82     0.187 C 
HETATM   13  C19 MIQ B 502     -23.769   2.165  -8.160  1.00140.06     0.247 C 
HETATM   14  O25 MIQ B 502     -24.564   2.157  -7.288  1.00143.95    -0.271 OA
HETATM   15  N20 MIQ B 502     -22.738   1.148  -8.178  1.00140.02    -0.296 N 
HETATM   16  H13 MIQ B 502     -22.687   0.452  -7.461  1.00142.77     0.171 HD
HETATM   17  C21 MIQ B 502     -21.773   1.185  -9.247  1.00142.22     0.224 C 
HETATM   18  C22 MIQ B 502     -21.387   2.555  -9.770  1.00139.52     0.106 C 
HETATM   19  O24 MIQ B 502     -21.310   0.194  -9.696  1.00146.13    -0.273 OA
HETATM   20  C23 MIQ B 502     -22.675   3.227 -10.211  1.00139.15     0.045 C 
ENDBRANCH  10  12
BRANCH   5  21
HETATM   21  N6  MIQ B 502     -25.590  10.068  -6.491  1.00140.95    -0.377 N 
HETATM   22  C7  MIQ B 502     -26.755  10.013  -5.625  1.00142.12     0.149 C 
HETATM   23  C8  MIQ B 502     -27.752  11.120  -5.944  1.00144.10     0.187 C 
HETATM   24  O9  MIQ B 502     -27.153  12.375  -6.059  1.00148.65    -0.388 OA
HETATM   25  C10 MIQ B 502     -25.761  12.494  -6.101  1.00147.44     0.187 C 
HETATM   26  C11 MIQ B 502     -24.950  11.354  -6.708  1.00144.08     0.149 C 
ENDBRANCH   5  21
TORSDOF 2
ENDMDL
