MODEL 1
REMARK VINA RESULT:      -6.7      0.000      0.000
REMARK  2 active torsions:
REMARK  status: ('A' for Active; 'I' for Inactive)
REMARK    1  A    between atoms: C5_5  and  N6_21 
REMARK    2  A    between atoms: C18_14  and  N17_19 
ROOT
HETATM    1  O1  MIQ B 502      10.939   2.912  17.777  1.00142.91    -0.171 OA
HETATM    2  C2  MIQ B 502      11.565   1.719  18.146  1.00141.17     0.195 A 
HETATM    3  C3  MIQ B 502      12.618   0.931  17.304  1.00141.71     0.035 A 
HETATM    4  C4  MIQ B 502      13.241   1.160  15.979  1.00142.86     0.046 A 
HETATM    5  C5  MIQ B 502      14.193   0.243  15.466  1.00139.53     0.031 A 
HETATM    6  C12 MIQ B 502      14.559  -0.930  16.247  1.00139.38     0.030 A 
HETATM    7  C13 MIQ B 502      13.963  -1.150  17.517  1.00141.18     0.019 A 
HETATM    8  C14 MIQ B 502      12.966  -0.182  18.052  1.00138.77     0.033 A 
HETATM    9  C15 MIQ B 502      12.125  -0.084  19.366  1.00142.10     0.195 A 
HETATM   10  N17 MIQ B 502      11.408   1.022  19.259  1.00139.42    -0.288 N 
HETATM   11  O16 MIQ B 502      12.131  -0.986  20.432  1.00148.93    -0.171 OA
ENDROOT
BRANCH  10  12
HETATM   12  C18 MIQ B 502      10.486   1.431  20.302  1.00139.82     0.187 C 
HETATM   13  C19 MIQ B 502       9.095   1.568  19.670  1.00140.06     0.247 C 
HETATM   14  O25 MIQ B 502       8.665   0.678  19.026  1.00143.95    -0.271 OA
HETATM   15  N20 MIQ B 502       8.290   2.759  19.846  1.00140.02    -0.296 N 
HETATM   16  H13 MIQ B 502       7.387   2.839  19.422  1.00142.77     0.171 HD
HETATM   17  C21 MIQ B 502       8.841   3.836  20.627  1.00142.22     0.224 C 
HETATM   18  C22 MIQ B 502      10.343   4.034  20.552  1.00139.52     0.106 C 
HETATM   19  O24 MIQ B 502       8.155   4.527  21.298  1.00146.13    -0.273 OA
HETATM   20  C23 MIQ B 502      10.972   2.717  20.968  1.00139.15     0.045 C 
ENDBRANCH  10  12
BRANCH   5  21
HETATM   21  N6  MIQ B 502      14.784   0.472  14.160  1.00140.95    -0.377 N 
HETATM   22  C7  MIQ B 502      15.834  -0.423  13.706  1.00142.12     0.149 C 
HETATM   23  C8  MIQ B 502      16.768   0.253  12.711  1.00144.10     0.187 C 
HETATM   24  O9  MIQ B 502      16.085   0.933  11.701  1.00148.65    -0.388 OA
HETATM   25  C10 MIQ B 502      14.704   1.129  11.788  1.00147.44     0.187 C 
HETATM   26  C11 MIQ B 502      14.071   1.260  13.169  1.00144.08     0.149 C 
ENDBRANCH   5  21
TORSDOF 2
ENDMDL
MODEL 2
REMARK VINA RESULT:      -6.7      3.608      5.675
REMARK  2 active torsions:
REMARK  status: ('A' for Active; 'I' for Inactive)
REMARK    1  A    between atoms: C5_5  and  N6_21 
REMARK    2  A    between atoms: C18_14  and  N17_19 
ROOT
HETATM    1  O1  MIQ B 502      11.233   2.211  21.279  1.00142.91    -0.171 OA
HETATM    2  C2  MIQ B 502      11.332   1.594  20.030  1.00141.17     0.195 A 
HETATM    3  C3  MIQ B 502      11.998   0.212  19.735  1.00141.71     0.035 A 
HETATM    4  C4  MIQ B 502      12.671  -0.798  20.586  1.00142.86     0.046 A 
HETATM    5  C5  MIQ B 502      13.187  -1.988  20.014  1.00139.53     0.031 A 
HETATM    6  C12 MIQ B 502      13.054  -2.219  18.583  1.00139.38     0.030 A 
HETATM    7  C13 MIQ B 502      12.408  -1.251  17.767  1.00141.18     0.019 A 
HETATM    8  C14 MIQ B 502      11.866  -0.005  18.373  1.00138.77     0.033 A 
HETATM    9  C15 MIQ B 502      11.113   1.249  17.820  1.00142.10     0.195 A 
HETATM   10  N17 MIQ B 502      10.891   2.031  18.864  1.00139.42    -0.288 N 
HETATM   11  O16 MIQ B 502      10.754   1.491  16.493  1.00148.93    -0.171 OA
ENDROOT
BRANCH  10  12
HETATM   12  C18 MIQ B 502      10.218   3.309  18.723  1.00139.82     0.187 C 
HETATM   13  C19 MIQ B 502      11.154   4.394  19.268  1.00140.06     0.247 C 
HETATM   14  O25 MIQ B 502      12.269   4.439  18.883  1.00143.95    -0.271 OA
HETATM   15  N20 MIQ B 502      10.707   5.371  20.239  1.00140.02    -0.296 N 
HETATM   16  H13 MIQ B 502      11.331   6.071  20.592  1.00142.77     0.171 HD
HETATM   17  C21 MIQ B 502       9.346   5.290  20.701  1.00142.22     0.224 C 
HETATM   18  C22 MIQ B 502       8.744   3.901  20.805  1.00139.52     0.106 C 
HETATM   19  O24 MIQ B 502       8.728   6.258  20.979  1.00146.13    -0.273 OA
HETATM   20  C23 MIQ B 502       8.862   3.276  19.427  1.00139.15     0.045 C 
ENDBRANCH  10  12
BRANCH   5  21
HETATM   21  N6  MIQ B 502      13.857  -2.961  20.857  1.00140.95    -0.377 N 
HETATM   22  C7  MIQ B 502      15.218  -3.347  20.526  1.00142.12     0.149 C 
HETATM   23  C8  MIQ B 502      15.549  -4.747  21.026  1.00144.10     0.187 C 
HETATM   24  O9  MIQ B 502      15.178  -4.951  22.357  1.00148.65    -0.388 OA
HETATM   25  C10 MIQ B 502      14.382  -4.014  23.021  1.00147.44     0.187 C 
HETATM   26  C11 MIQ B 502      13.380  -3.201  22.208  1.00144.08     0.149 C 
ENDBRANCH   5  21
TORSDOF 2
ENDMDL
MODEL 3
REMARK VINA RESULT:      -6.6      2.135      7.988
REMARK  2 active torsions:
REMARK  status: ('A' for Active; 'I' for Inactive)
REMARK    1  A    between atoms: C5_5  and  N6_21 
REMARK    2  A    between atoms: C18_14  and  N17_19 
ROOT
HETATM    1  O1  MIQ B 502      13.640   2.207  16.795  1.00142.91    -0.171 OA
HETATM    2  C2  MIQ B 502      12.366   1.686  17.034  1.00141.17     0.195 A 
HETATM    3  C3  MIQ B 502      11.364   2.167  18.132  1.00141.71     0.035 A 
HETATM    4  C4  MIQ B 502      11.421   3.223  19.171  1.00142.86     0.046 A 
HETATM    5  C5  MIQ B 502      10.323   3.428  20.044  1.00139.53     0.031 A 
HETATM    6  C12 MIQ B 502       9.134   2.597  19.918  1.00139.38     0.030 A 
HETATM    7  C13 MIQ B 502       9.079   1.586  18.922  1.00141.18     0.019 A 
HETATM    8  C14 MIQ B 502      10.234   1.376  18.006  1.00138.77     0.033 A 
HETATM    9  C15 MIQ B 502      10.536   0.399  16.823  1.00142.10     0.195 A 
HETATM   10  N17 MIQ B 502      11.750   0.705  16.398  1.00139.42    -0.288 N 
HETATM   11  O16 MIQ B 502       9.691  -0.594  16.324  1.00148.93    -0.171 OA
ENDROOT
BRANCH  10  12
HETATM   12  C18 MIQ B 502      12.374  -0.017  15.304  1.00139.82     0.187 C 
HETATM   13  C19 MIQ B 502      13.730  -0.535  15.799  1.00140.06     0.247 C 
HETATM   14  O25 MIQ B 502      13.782  -1.138  16.811  1.00143.95    -0.271 OA
HETATM   15  N20 MIQ B 502      14.952  -0.309  15.054  1.00140.02    -0.296 N 
HETATM   16  H13 MIQ B 502      15.832  -0.646  15.391  1.00142.77     0.171 HD
HETATM   17  C21 MIQ B 502      14.864   0.439  13.826  1.00142.22     0.224 C 
HETATM   18  C22 MIQ B 502      13.819   1.537  13.770  1.00139.52     0.106 C 
HETATM   19  O24 MIQ B 502      15.570   0.204  12.908  1.00146.13    -0.273 OA
HETATM   20  C23 MIQ B 502      12.485   0.878  14.071  1.00139.15     0.045 C 
ENDBRANCH  10  12
BRANCH   5  21
HETATM   21  N6  MIQ B 502      10.398   4.456  21.067  1.00140.95    -0.377 N 
HETATM   22  C7  MIQ B 502       9.193   4.786  21.809  1.00142.12     0.149 C 
HETATM   23  C8  MIQ B 502       9.222   6.217  22.332  1.00144.10     0.187 C 
HETATM   24  O9  MIQ B 502      10.422   6.539  22.968  1.00148.65    -0.388 OA
HETATM   25  C10 MIQ B 502      11.519   5.677  22.889  1.00147.44     0.187 C 
HETATM   26  C11 MIQ B 502      11.683   4.818  21.639  1.00144.08     0.149 C 
ENDBRANCH   5  21
TORSDOF 2
ENDMDL
MODEL 4
REMARK VINA RESULT:      -6.5      3.671      6.231
REMARK  2 active torsions:
REMARK  status: ('A' for Active; 'I' for Inactive)
REMARK    1  A    between atoms: C5_5  and  N6_21 
REMARK    2  A    between atoms: C18_14  and  N17_19 
ROOT
HETATM    1  O1  MIQ B 502      11.308   0.096  20.920  1.00142.91    -0.171 OA
HETATM    2  C2  MIQ B 502      12.084  -0.211  19.800  1.00141.17     0.195 A 
HETATM    3  C3  MIQ B 502      13.149  -1.349  19.699  1.00141.71     0.035 A 
HETATM    4  C4  MIQ B 502      13.637  -2.375  20.651  1.00142.86     0.046 A 
HETATM    5  C5  MIQ B 502      14.638  -3.299  20.258  1.00139.53     0.031 A 
HETATM    6  C12 MIQ B 502      15.189  -3.238  18.912  1.00139.38     0.030 A 
HETATM    7  C13 MIQ B 502      14.721  -2.255  17.999  1.00141.18     0.019 A 
HETATM    8  C14 MIQ B 502      13.668  -1.290  18.416  1.00138.77     0.033 A 
HETATM    9  C15 MIQ B 502      12.920  -0.108  17.716  1.00142.10     0.195 A 
HETATM   10  N17 MIQ B 502      12.081   0.377  18.616  1.00139.42    -0.288 N 
HETATM   11  O16 MIQ B 502      13.107   0.341  16.407  1.00148.93    -0.171 OA
ENDROOT
BRANCH  10  12
HETATM   12  C18 MIQ B 502      11.222   1.508  18.318  1.00139.82     0.187 C 
HETATM   13  C19 MIQ B 502      11.455   2.570  19.399  1.00140.06     0.247 C 
HETATM   14  O25 MIQ B 502      12.557   2.908  19.646  1.00143.95    -0.271 OA
HETATM   15  N20 MIQ B 502      10.356   3.176  20.123  1.00140.02    -0.296 N 
HETATM   16  H13 MIQ B 502      10.522   3.864  20.832  1.00142.77     0.171 HD
HETATM   17  C21 MIQ B 502       9.020   2.739  19.811  1.00142.22     0.224 C 
HETATM   18  C22 MIQ B 502       8.854   1.285  19.414  1.00139.52     0.106 C 
HETATM   19  O24 MIQ B 502       8.101   3.481  19.858  1.00146.13    -0.273 OA
HETATM   20  C23 MIQ B 502       9.765   1.058  18.221  1.00139.15     0.045 C 
ENDBRANCH  10  12
BRANCH   5  21
HETATM   21  N6  MIQ B 502      15.118  -4.289  21.205  1.00140.95    -0.377 N 
HETATM   22  C7  MIQ B 502      14.440  -4.411  22.485  1.00142.12     0.149 C 
HETATM   23  C8  MIQ B 502      15.364  -4.955  23.567  1.00144.10     0.187 C 
HETATM   24  O9  MIQ B 502      16.074  -6.085  23.158  1.00148.65    -0.388 OA
HETATM   25  C10 MIQ B 502      16.068  -6.477  21.817  1.00147.44     0.187 C 
HETATM   26  C11 MIQ B 502      15.927  -5.403  20.744  1.00144.08     0.149 C 
ENDBRANCH   5  21
TORSDOF 2
ENDMDL
MODEL 5
REMARK VINA RESULT:      -6.3      3.761      7.322
REMARK  2 active torsions:
REMARK  status: ('A' for Active; 'I' for Inactive)
REMARK    1  A    between atoms: C5_5  and  N6_21 
REMARK    2  A    between atoms: C18_14  and  N17_19 
ROOT
HETATM    1  O1  MIQ B 502      14.672  -1.146  16.360  1.00142.91    -0.171 OA
HETATM    2  C2  MIQ B 502      13.817  -0.768  17.397  1.00141.17     0.195 A 
HETATM    3  C3  MIQ B 502      13.697  -1.460  18.792  1.00141.71     0.035 A 
HETATM    4  C4  MIQ B 502      14.376  -2.621  19.416  1.00142.86     0.046 A 
HETATM    5  C5  MIQ B 502      14.046  -3.021  20.735  1.00139.53     0.031 A 
HETATM    6  C12 MIQ B 502      13.033  -2.287  21.481  1.00139.38     0.030 A 
HETATM    7  C13 MIQ B 502      12.383  -1.174  20.884  1.00141.18     0.019 A 
HETATM    8  C14 MIQ B 502      12.736  -0.756  19.499  1.00138.77     0.033 A 
HETATM    9  C15 MIQ B 502      12.257   0.380  18.538  1.00142.10     0.195 A 
HETATM   10  N17 MIQ B 502      12.954   0.233  17.423  1.00139.42    -0.288 N 
HETATM   11  O16 MIQ B 502      11.288   1.348  18.806  1.00148.93    -0.171 OA
ENDROOT
BRANCH  10  12
HETATM   12  C18 MIQ B 502      12.760   1.115  16.287  1.00139.82     0.187 C 
HETATM   13  C19 MIQ B 502      12.397   0.246  15.077  1.00140.06     0.247 C 
HETATM   14  O25 MIQ B 502      11.525  -0.543  15.176  1.00143.95    -0.271 OA
HETATM   15  N20 MIQ B 502      13.090   0.370  13.812  1.00140.02    -0.296 N 
HETATM   16  H13 MIQ B 502      12.847  -0.208  13.031  1.00142.77     0.171 HD
HETATM   17  C21 MIQ B 502      14.157   1.332  13.719  1.00142.22     0.224 C 
HETATM   18  C22 MIQ B 502      14.981   1.560  14.972  1.00139.52     0.106 C 
HETATM   19  O24 MIQ B 502      14.375   1.919  12.716  1.00146.13    -0.273 OA
HETATM   20  C23 MIQ B 502      14.006   1.971  16.060  1.00139.15     0.045 C 
ENDBRANCH  10  12
BRANCH   5  21
HETATM   21  N6  MIQ B 502      14.708  -4.169  21.328  1.00140.95    -0.377 N 
HETATM   22  C7  MIQ B 502      15.960  -4.624  20.748  1.00142.12     0.149 C 
HETATM   23  C8  MIQ B 502      16.196  -6.108  20.997  1.00144.10     0.187 C 
HETATM   24  O9  MIQ B 502      15.985  -6.476  22.327  1.00148.65    -0.388 OA
HETATM   25  C10 MIQ B 502      15.396  -5.582  23.224  1.00147.44     0.187 C 
HETATM   26  C11 MIQ B 502      14.392  -4.566  22.689  1.00144.08     0.149 C 
ENDBRANCH   5  21
TORSDOF 2
ENDMDL
MODEL 6
REMARK VINA RESULT:      -6.3      1.733      2.511
REMARK  2 active torsions:
REMARK  status: ('A' for Active; 'I' for Inactive)
REMARK    1  A    between atoms: C5_5  and  N6_21 
REMARK    2  A    between atoms: C18_14  and  N17_19 
ROOT
HETATM    1  O1  MIQ B 502      12.619   3.907  18.712  1.00142.91    -0.171 OA
HETATM    2  C2  MIQ B 502      11.807   2.801  18.453  1.00141.17     0.195 A 
HETATM    3  C3  MIQ B 502      12.019   1.746  17.320  1.00141.71     0.035 A 
HETATM    4  C4  MIQ B 502      13.042   1.581  16.261  1.00142.86     0.046 A 
HETATM    5  C5  MIQ B 502      12.967   0.492  15.356  1.00139.53     0.031 A 
HETATM    6  C12 MIQ B 502      11.880  -0.469  15.470  1.00139.38     0.030 A 
HETATM    7  C13 MIQ B 502      10.900  -0.312  16.487  1.00141.18     0.019 A 
HETATM    8  C14 MIQ B 502      10.985   0.832  17.435  1.00138.77     0.033 A 
HETATM    9  C15 MIQ B 502      10.125   1.322  18.647  1.00142.10     0.195 A 
HETATM   10  N17 MIQ B 502      10.717   2.416  19.095  1.00139.42    -0.288 N 
HETATM   11  O16 MIQ B 502       8.968   0.723  19.146  1.00148.93    -0.171 OA
ENDROOT
BRANCH  10  12
HETATM   12  C18 MIQ B 502      10.180   3.161  20.219  1.00139.82     0.187 C 
HETATM   13  C19 MIQ B 502      10.012   4.619  19.776  1.00140.06     0.247 C 
HETATM   14  O25 MIQ B 502       9.432   4.854  18.776  1.00143.95    -0.271 OA
HETATM   15  N20 MIQ B 502      10.539   5.720  20.556  1.00140.02    -0.296 N 
HETATM   16  H13 MIQ B 502      10.428   6.668  20.253  1.00142.77     0.171 HD
HETATM   17  C21 MIQ B 502      11.252   5.408  21.768  1.00142.22     0.224 C 
HETATM   18  C22 MIQ B 502      12.056   4.122  21.774  1.00139.52     0.106 C 
HETATM   19  O24 MIQ B 502      11.205   6.117  22.712  1.00146.13    -0.273 OA
HETATM   20  C23 MIQ B 502      11.084   3.004  21.441  1.00139.15     0.045 C 
ENDBRANCH  10  12
BRANCH   5  21
HETATM   21  N6  MIQ B 502      13.968   0.351  14.313  1.00140.95    -0.377 N 
HETATM   22  C7  MIQ B 502      14.049   1.375  13.286  1.00142.12     0.149 C 
HETATM   23  C8  MIQ B 502      14.621   0.829  11.984  1.00144.10     0.187 C 
HETATM   24  O9  MIQ B 502      15.784   0.080  12.173  1.00148.65    -0.388 OA
HETATM   25  C10 MIQ B 502      16.188  -0.287  13.459  1.00147.44     0.187 C 
HETATM   26  C11 MIQ B 502      15.119  -0.509  14.524  1.00144.08     0.149 C 
ENDBRANCH   5  21
TORSDOF 2
ENDMDL
MODEL 7
REMARK VINA RESULT:      -6.3     18.728     21.282
REMARK  2 active torsions:
REMARK  status: ('A' for Active; 'I' for Inactive)
REMARK    1  A    between atoms: C5_5  and  N6_21 
REMARK    2  A    between atoms: C18_14  and  N17_19 
ROOT
HETATM    1  O1  MIQ B 502      -4.304  -8.777  25.521  1.00142.91    -0.171 OA
HETATM    2  C2  MIQ B 502      -3.513  -9.271  24.481  1.00141.17     0.195 A 
HETATM    3  C3  MIQ B 502      -2.953 -10.724  24.360  1.00141.71     0.035 A 
HETATM    4  C4  MIQ B 502      -3.061 -11.933  25.211  1.00142.86     0.046 A 
HETATM    5  C5  MIQ B 502      -2.426 -13.140  24.826  1.00139.53     0.031 A 
HETATM    6  C12 MIQ B 502      -1.663 -13.192  23.586  1.00139.38     0.030 A 
HETATM    7  C13 MIQ B 502      -1.560 -12.034  22.770  1.00141.18     0.019 A 
HETATM    8  C14 MIQ B 502      -2.231 -10.770  23.178  1.00138.77     0.033 A 
HETATM    9  C15 MIQ B 502      -2.345  -9.337  22.562  1.00142.10     0.195 A 
HETATM   10  N17 MIQ B 502      -3.087  -8.636  23.403  1.00139.42    -0.288 N 
HETATM   11  O16 MIQ B 502      -1.775  -8.893  21.368  1.00148.93    -0.171 OA
ENDROOT
BRANCH  10  12
HETATM   12  C18 MIQ B 502      -3.393  -7.238  23.159  1.00139.82     0.187 C 
HETATM   13  C19 MIQ B 502      -2.980  -6.445  24.405  1.00140.06     0.247 C 
HETATM   14  O25 MIQ B 502      -1.895  -6.588  24.846  1.00143.95    -0.271 OA
HETATM   15  N20 MIQ B 502      -3.885  -5.518  25.055  1.00140.02    -0.296 N 
HETATM   16  H13 MIQ B 502      -3.605  -5.011  25.871  1.00142.77     0.171 HD
HETATM   17  C21 MIQ B 502      -5.207  -5.369  24.505  1.00142.22     0.224 C 
HETATM   18  C22 MIQ B 502      -5.829  -6.604  23.881  1.00139.52     0.106 C 
HETATM   19  O24 MIQ B 502      -5.776  -4.333  24.534  1.00146.13    -0.273 OA
HETATM   20  C23 MIQ B 502      -4.869  -7.072  22.802  1.00139.15     0.045 C 
ENDBRANCH  10  12
BRANCH   5  21
HETATM   21  N6  MIQ B 502      -2.528 -14.312  25.676  1.00140.95    -0.377 N 
HETATM   22  C7  MIQ B 502      -2.971 -15.563  25.085  1.00142.12     0.149 C 
HETATM   23  C8  MIQ B 502      -3.635 -16.473  26.111  1.00144.10     0.187 C 
HETATM   24  O9  MIQ B 502      -2.892 -16.598  27.287  1.00148.65    -0.388 OA
HETATM   25  C10 MIQ B 502      -1.793 -15.768  27.522  1.00147.44     0.187 C 
HETATM   26  C11 MIQ B 502      -1.803 -14.361  26.934  1.00144.08     0.149 C 
ENDBRANCH   5  21
TORSDOF 2
ENDMDL
MODEL 8
REMARK VINA RESULT:      -6.2      3.337      5.691
REMARK  2 active torsions:
REMARK  status: ('A' for Active; 'I' for Inactive)
REMARK    1  A    between atoms: C5_5  and  N6_21 
REMARK    2  A    between atoms: C18_14  and  N17_19 
ROOT
HETATM    1  O1  MIQ B 502      15.681  -2.721  19.646  1.00142.91    -0.171 OA
HETATM    2  C2  MIQ B 502      14.517  -1.959  19.530  1.00141.17     0.195 A 
HETATM    3  C3  MIQ B 502      14.047  -1.181  18.259  1.00141.71     0.035 A 
HETATM    4  C4  MIQ B 502      14.614  -1.012  16.900  1.00142.86     0.046 A 
HETATM    5  C5  MIQ B 502      13.937  -0.225  15.934  1.00139.53     0.031 A 
HETATM    6  C12 MIQ B 502      12.678   0.419  16.280  1.00139.38     0.030 A 
HETATM    7  C13 MIQ B 502      12.134   0.257  17.583  1.00141.18     0.019 A 
HETATM    8  C14 MIQ B 502      12.848  -0.572  18.592  1.00138.77     0.033 A 
HETATM    9  C15 MIQ B 502      12.572  -0.975  20.078  1.00142.10     0.195 A 
HETATM   10  N17 MIQ B 502      13.586  -1.742  20.443  1.00139.42    -0.288 N 
HETATM   11  O16 MIQ B 502      11.477  -0.596  20.856  1.00148.93    -0.171 OA
ENDROOT
BRANCH  10  12
HETATM   12  C18 MIQ B 502      13.674  -2.293  21.782  1.00139.82     0.187 C 
HETATM   13  C19 MIQ B 502      15.074  -1.980  22.325  1.00140.06     0.247 C 
HETATM   14  O25 MIQ B 502      15.475  -0.872  22.278  1.00143.95    -0.271 OA
HETATM   15  N20 MIQ B 502      15.917  -3.008  22.901  1.00140.02    -0.296 N 
HETATM   16  H13 MIQ B 502      16.831  -2.791  23.246  1.00142.77     0.171 HD
HETATM   17  C21 MIQ B 502      15.409  -4.355  22.938  1.00142.22     0.224 C 
HETATM   18  C22 MIQ B 502      14.510  -4.775  21.792  1.00139.52     0.106 C 
HETATM   19  O24 MIQ B 502      15.677  -5.092  23.822  1.00146.13    -0.273 OA
HETATM   20  C23 MIQ B 502      13.357  -3.788  21.763  1.00139.15     0.045 C 
ENDBRANCH  10  12
BRANCH   5  21
HETATM   21  N6  MIQ B 502      14.511  -0.057  14.611  1.00140.95    -0.377 N 
HETATM   22  C7  MIQ B 502      14.189   1.146  13.863  1.00142.12     0.149 C 
HETATM   23  C8  MIQ B 502      14.286   0.923  12.359  1.00144.10     0.187 C 
HETATM   24  O9  MIQ B 502      15.467   0.282  11.980  1.00148.65    -0.388 OA
HETATM   25  C10 MIQ B 502      16.310  -0.276  12.944  1.00147.44     0.187 C 
HETATM   26  C11 MIQ B 502      15.693  -0.811  14.232  1.00144.08     0.149 C 
ENDBRANCH   5  21
TORSDOF 2
ENDMDL
MODEL 9
REMARK VINA RESULT:      -6.2     18.971     20.882
REMARK  2 active torsions:
REMARK  status: ('A' for Active; 'I' for Inactive)
REMARK    1  A    between atoms: C5_5  and  N6_21 
REMARK    2  A    between atoms: C18_14  and  N17_19 
ROOT
HETATM    1  O1  MIQ B 502      -5.628  -8.445  25.332  1.00142.91    -0.171 OA
HETATM    2  C2  MIQ B 502      -4.803  -8.307  24.213  1.00141.17     0.195 A 
HETATM    3  C3  MIQ B 502      -3.688  -9.303  23.760  1.00141.71     0.035 A 
HETATM    4  C4  MIQ B 502      -3.188 -10.588  24.304  1.00142.86     0.046 A 
HETATM    5  C5  MIQ B 502      -2.136 -11.281  23.653  1.00139.53     0.031 A 
HETATM    6  C12 MIQ B 502      -1.545 -10.725  22.444  1.00139.38     0.030 A 
HETATM    7  C13 MIQ B 502      -2.025  -9.494  21.922  1.00141.18     0.019 A 
HETATM    8  C14 MIQ B 502      -3.131  -8.773  22.608  1.00138.77     0.033 A 
HETATM    9  C15 MIQ B 502      -3.905  -7.440  22.344  1.00142.10     0.195 A 
HETATM   10  N17 MIQ B 502      -4.793  -7.334  23.318  1.00139.42    -0.288 N 
HETATM   11  O16 MIQ B 502      -3.695  -6.546  21.292  1.00148.93    -0.171 OA
ENDROOT
BRANCH  10  12
HETATM   12  C18 MIQ B 502      -5.690  -6.196  23.405  1.00139.82     0.187 C 
HETATM   13  C19 MIQ B 502      -5.476  -5.536  24.773  1.00140.06     0.247 C 
HETATM   14  O25 MIQ B 502      -4.381  -5.260  25.114  1.00143.95    -0.271 OA
HETATM   15  N20 MIQ B 502      -6.583  -5.234  25.657  1.00140.02    -0.296 N 
HETATM   16  H13 MIQ B 502      -6.429  -4.808  26.550  1.00142.77     0.171 HD
HETATM   17  C21 MIQ B 502      -7.909  -5.589  25.222  1.00142.22     0.224 C 
HETATM   18  C22 MIQ B 502      -8.036  -6.840  24.374  1.00139.52     0.106 C 
HETATM   19  O24 MIQ B 502      -8.850  -4.933  25.510  1.00146.13    -0.273 OA
HETATM   20  C23 MIQ B 502      -7.134  -6.638  23.171  1.00139.15     0.045 C 
ENDBRANCH  10  12
BRANCH   5  21
HETATM   21  N6  MIQ B 502      -1.646 -12.531  24.204  1.00140.95    -0.377 N 
HETATM   22  C7  MIQ B 502      -2.213 -13.009  25.454  1.00142.12     0.149 C 
HETATM   23  C8  MIQ B 502      -1.238 -13.894  26.219  1.00144.10     0.187 C 
HETATM   24  O9  MIQ B 502      -0.650 -14.874  25.418  1.00148.65    -0.388 OA
HETATM   25  C10 MIQ B 502      -0.803 -14.838  24.029  1.00147.44     0.187 C 
HETATM   26  C11 MIQ B 502      -0.962 -13.483  23.347  1.00144.08     0.149 C 
ENDBRANCH   5  21
TORSDOF 2
ENDMDL
