MODEL 1
REMARK VINA RESULT:      -7.0      0.000      0.000
REMARK  2 active torsions:
REMARK  status: ('A' for Active; 'I' for Inactive)
REMARK    1  A    between atoms: C5_5  and  N6_21 
REMARK    2  A    between atoms: C18_14  and  N17_19 
ROOT
HETATM    1  O1  MIQ B 502       9.786 -13.963  17.720  1.00142.91    -0.171 OA
HETATM    2  C2  MIQ B 502       9.675 -12.742  17.051  1.00141.17     0.195 A 
HETATM    3  C3  MIQ B 502      10.017 -12.478  15.550  1.00141.71     0.035 A 
HETATM    4  C4  MIQ B 502      10.515 -13.340  14.451  1.00142.86     0.046 A 
HETATM    5  C5  MIQ B 502      10.733 -12.799  13.159  1.00139.53     0.031 A 
HETATM    6  C12 MIQ B 502      10.466 -11.390  12.911  1.00139.38     0.030 A 
HETATM    7  C13 MIQ B 502       9.987 -10.564  13.963  1.00141.18     0.019 A 
HETATM    8  C14 MIQ B 502       9.757 -11.137  15.317  1.00138.77     0.033 A 
HETATM    9  C15 MIQ B 502       9.251 -10.566  16.682  1.00142.10     0.195 A 
HETATM   10  N17 MIQ B 502       9.263 -11.581  17.530  1.00139.42    -0.288 N 
HETATM   11  O16 MIQ B 502       8.868  -9.250  16.946  1.00148.93    -0.171 OA
ENDROOT
BRANCH  10  12
HETATM   12  C18 MIQ B 502       8.865 -11.415  18.915  1.00139.82     0.187 C 
HETATM   13  C19 MIQ B 502       9.938 -12.072  19.792  1.00140.06     0.247 C 
HETATM   14  O25 MIQ B 502      11.071 -11.791  19.623  1.00143.95    -0.271 OA
HETATM   15  N20 MIQ B 502       9.599 -13.025  20.829  1.00140.02    -0.296 N 
HETATM   16  H13 MIQ B 502      10.310 -13.452  21.390  1.00142.77     0.171 HD
HETATM   17  C21 MIQ B 502       8.210 -13.360  21.009  1.00142.22     0.224 C 
HETATM   18  C22 MIQ B 502       7.345 -13.371  19.764  1.00139.52     0.106 C 
HETATM   19  O24 MIQ B 502       7.768 -13.608  22.077  1.00146.13    -0.273 OA
HETATM   20  C23 MIQ B 502       7.469 -11.993  19.140  1.00139.15     0.045 C 
ENDBRANCH  10  12
BRANCH   5  21
HETATM   21  N6  MIQ B 502      11.236 -13.651  12.097  1.00140.95    -0.377 N 
HETATM   22  C7  MIQ B 502      10.555 -14.907  11.833  1.00142.12     0.149 C 
HETATM   23  C8  MIQ B 502      11.487 -15.940  11.213  1.00144.10     0.187 C 
HETATM   24  O9  MIQ B 502      12.233 -15.430  10.149  1.00148.65    -0.388 OA
HETATM   25  C10 MIQ B 502      12.247 -14.058   9.888  1.00147.44     0.187 C 
HETATM   26  C11 MIQ B 502      12.080 -13.091  11.056  1.00144.08     0.149 C 
ENDBRANCH   5  21
TORSDOF 2
ENDMDL
MODEL 2
REMARK VINA RESULT:      -6.8      3.622      7.882
REMARK  2 active torsions:
REMARK  status: ('A' for Active; 'I' for Inactive)
REMARK    1  A    between atoms: C5_5  and  N6_21 
REMARK    2  A    between atoms: C18_14  and  N17_19 
ROOT
HETATM    1  O1  MIQ B 502      11.823 -12.020  16.760  1.00142.91    -0.171 OA
HETATM    2  C2  MIQ B 502      11.010 -11.960  17.894  1.00141.17     0.195 A 
HETATM    3  C3  MIQ B 502      11.465 -12.198  19.369  1.00141.71     0.035 A 
HETATM    4  C4  MIQ B 502      12.769 -12.526  19.993  1.00142.86     0.046 A 
HETATM    5  C5  MIQ B 502      12.872 -12.682  21.398  1.00139.53     0.031 A 
HETATM    6  C12 MIQ B 502      11.690 -12.518  22.232  1.00139.38     0.030 A 
HETATM    7  C13 MIQ B 502      10.440 -12.203  21.634  1.00141.18     0.019 A 
HETATM    8  C14 MIQ B 502      10.339 -12.038  20.159  1.00138.77     0.033 A 
HETATM    9  C15 MIQ B 502       9.177 -11.699  19.168  1.00142.10     0.195 A 
HETATM   10  N17 MIQ B 502       9.717 -11.693  17.961  1.00139.42    -0.288 N 
HETATM   11  O16 MIQ B 502       7.842 -11.455  19.497  1.00148.93    -0.171 OA
ENDROOT
BRANCH  10  12
HETATM   12  C18 MIQ B 502       8.921 -11.428  16.776  1.00139.82     0.187 C 
HETATM   13  C19 MIQ B 502       9.318 -12.453  15.707  1.00140.06     0.247 C 
HETATM   14  O25 MIQ B 502       9.327 -13.599  15.984  1.00143.95    -0.271 OA
HETATM   15  N20 MIQ B 502       9.677 -12.053  14.362  1.00140.02    -0.296 N 
HETATM   16  H13 MIQ B 502       9.941 -12.732  13.675  1.00142.77     0.171 HD
HETATM   17  C21 MIQ B 502       9.669 -10.647  14.051  1.00142.22     0.224 C 
HETATM   18  C22 MIQ B 502      10.058  -9.700  15.170  1.00139.52     0.106 C 
HETATM   19  O24 MIQ B 502       9.369 -10.253  12.978  1.00146.13    -0.273 OA
HETATM   20  C23 MIQ B 502       9.111  -9.981  16.322  1.00139.15     0.045 C 
ENDBRANCH  10  12
BRANCH   5  21
HETATM   21  N6  MIQ B 502      14.153 -13.018  21.994  1.00140.95    -0.377 N 
HETATM   22  C7  MIQ B 502      15.339 -12.320  21.530  1.00142.12     0.149 C 
HETATM   23  C8  MIQ B 502      16.600 -13.153  21.719  1.00144.10     0.187 C 
HETATM   24  O9  MIQ B 502      16.697 -13.711  22.995  1.00148.65    -0.388 OA
HETATM   25  C10 MIQ B 502      15.609 -13.665  23.872  1.00147.44     0.187 C 
HETATM   26  C11 MIQ B 502      14.200 -13.677  23.287  1.00144.08     0.149 C 
ENDBRANCH   5  21
TORSDOF 2
ENDMDL
MODEL 3
REMARK VINA RESULT:      -6.8      2.217      7.895
REMARK  2 active torsions:
REMARK  status: ('A' for Active; 'I' for Inactive)
REMARK    1  A    between atoms: C5_5  and  N6_21 
REMARK    2  A    between atoms: C18_14  and  N17_19 
ROOT
HETATM    1  O1  MIQ B 502      11.816 -13.802  15.635  1.00142.91    -0.171 OA
HETATM    2  C2  MIQ B 502      11.042 -12.693  15.286  1.00141.17     0.195 A 
HETATM    3  C3  MIQ B 502      10.211 -11.804  16.265  1.00141.71     0.035 A 
HETATM    4  C4  MIQ B 502       9.991 -11.833  17.730  1.00142.86     0.046 A 
HETATM    5  C5  MIQ B 502       9.162 -10.864  18.350  1.00139.53     0.031 A 
HETATM    6  C12 MIQ B 502       8.523  -9.836  17.541  1.00139.38     0.030 A 
HETATM    7  C13 MIQ B 502       8.734  -9.808  16.136  1.00141.18     0.019 A 
HETATM    8  C14 MIQ B 502       9.608 -10.826  15.491  1.00138.77     0.033 A 
HETATM    9  C15 MIQ B 502      10.068 -11.109  14.024  1.00142.10     0.195 A 
HETATM   10  N17 MIQ B 502      10.855 -12.170  14.086  1.00139.42    -0.288 N 
HETATM   11  O16 MIQ B 502       9.713 -10.387  12.883  1.00148.93    -0.171 OA
ENDROOT
BRANCH  10  12
HETATM   12  C18 MIQ B 502      11.461 -12.735  12.895  1.00139.82     0.187 C 
HETATM   13  C19 MIQ B 502      11.168 -14.240  12.890  1.00140.06     0.247 C 
HETATM   14  O25 MIQ B 502      10.058 -14.611  13.038  1.00143.95    -0.271 OA
HETATM   15  N20 MIQ B 502      12.216 -15.222  12.702  1.00140.02    -0.296 N 
HETATM   16  H13 MIQ B 502      12.013 -16.202  12.708  1.00142.77     0.171 HD
HETATM   17  C21 MIQ B 502      13.565 -14.745  12.534  1.00142.22     0.224 C 
HETATM   18  C22 MIQ B 502      13.940 -13.483  13.287  1.00139.52     0.106 C 
HETATM   19  O24 MIQ B 502      14.337 -15.308  11.839  1.00146.13    -0.273 OA
HETATM   20  C23 MIQ B 502      12.954 -12.413  12.854  1.00139.15     0.045 C 
ENDBRANCH  10  12
BRANCH   5  21
HETATM   21  N6  MIQ B 502       8.944 -10.913  19.784  1.00140.95    -0.377 N 
HETATM   22  C7  MIQ B 502       7.815 -10.187  20.340  1.00142.12     0.149 C 
HETATM   23  C8  MIQ B 502       8.057  -9.785  21.790  1.00144.10     0.187 C 
HETATM   24  O9  MIQ B 502       8.533 -10.837  22.573  1.00148.65    -0.388 OA
HETATM   25  C10 MIQ B 502       8.946 -12.032  21.978  1.00147.44     0.187 C 
HETATM   26  C11 MIQ B 502       9.533 -11.982  20.572  1.00144.08     0.149 C 
ENDBRANCH   5  21
TORSDOF 2
ENDMDL
MODEL 4
REMARK VINA RESULT:      -6.8      2.160      8.194
REMARK  2 active torsions:
REMARK  status: ('A' for Active; 'I' for Inactive)
REMARK    1  A    between atoms: C5_5  and  N6_21 
REMARK    2  A    between atoms: C18_14  and  N17_19 
ROOT
HETATM    1  O1  MIQ B 502      12.379 -14.917  14.962  1.00142.91    -0.171 OA
HETATM    2  C2  MIQ B 502      11.931 -13.772  14.299  1.00141.17     0.195 A 
HETATM    3  C3  MIQ B 502      10.966 -12.689  14.878  1.00141.71     0.035 A 
HETATM    4  C4  MIQ B 502      10.280 -12.528  16.182  1.00142.86     0.046 A 
HETATM    5  C5  MIQ B 502       9.445 -11.407  16.419  1.00139.53     0.031 A 
HETATM    6  C12 MIQ B 502       9.261 -10.409  15.374  1.00139.38     0.030 A 
HETATM    7  C13 MIQ B 502       9.920 -10.563  14.125  1.00141.18     0.019 A 
HETATM    8  C14 MIQ B 502      10.797 -11.740  13.882  1.00138.77     0.033 A 
HETATM    9  C15 MIQ B 502      11.663 -12.237  12.679  1.00142.10     0.195 A 
HETATM   10  N17 MIQ B 502      12.224 -13.368  13.074  1.00139.42    -0.288 N 
HETATM   11  O16 MIQ B 502      11.809 -11.611  11.440  1.00148.93    -0.171 OA
ENDROOT
BRANCH  10  12
HETATM   12  C18 MIQ B 502      13.095 -14.128  12.198  1.00139.82     0.187 C 
HETATM   13  C19 MIQ B 502      14.234 -13.203  11.752  1.00140.06     0.247 C 
HETATM   14  O25 MIQ B 502      14.842 -12.605  12.567  1.00143.95    -0.271 OA
HETATM   15  N20 MIQ B 502      14.588 -13.046  10.356  1.00140.02    -0.296 N 
HETATM   16  H13 MIQ B 502      15.330 -12.434  10.078  1.00142.77     0.171 HD
HETATM   17  C21 MIQ B 502      13.824 -13.778   9.380  1.00142.22     0.224 C 
HETATM   18  C22 MIQ B 502      12.356 -13.998   9.689  1.00139.52     0.106 C 
HETATM   19  O24 MIQ B 502      14.320 -14.191   8.390  1.00146.13    -0.273 OA
HETATM   20  C23 MIQ B 502      12.299 -14.708  11.029  1.00139.15     0.045 C 
ENDBRANCH  10  12
BRANCH   5  21
HETATM   21  N6  MIQ B 502       8.768 -11.270  17.695  1.00140.95    -0.377 N 
HETATM   22  C7  MIQ B 502       8.777 -12.397  18.611  1.00142.12     0.149 C 
HETATM   23  C8  MIQ B 502       7.572 -12.384  19.542  1.00144.10     0.187 C 
HETATM   24  O9  MIQ B 502       7.354 -11.137  20.132  1.00148.65    -0.388 OA
HETATM   25  C10 MIQ B 502       8.057 -10.013  19.691  1.00147.44     0.187 C 
HETATM   26  C11 MIQ B 502       8.486  -9.949  18.228  1.00144.08     0.149 C 
ENDBRANCH   5  21
TORSDOF 2
ENDMDL
MODEL 5
REMARK VINA RESULT:      -6.7      1.922      2.627
REMARK  2 active torsions:
REMARK  status: ('A' for Active; 'I' for Inactive)
REMARK    1  A    between atoms: C5_5  and  N6_21 
REMARK    2  A    between atoms: C18_14  and  N17_19 
ROOT
HETATM    1  O1  MIQ B 502      10.795 -15.353  16.522  1.00142.91    -0.171 OA
HETATM    2  C2  MIQ B 502      10.451 -14.122  15.960  1.00141.17     0.195 A 
HETATM    3  C3  MIQ B 502      10.871 -13.603  14.548  1.00141.71     0.035 A 
HETATM    4  C4  MIQ B 502      11.683 -14.180  13.451  1.00142.86     0.046 A 
HETATM    5  C5  MIQ B 502      11.893 -13.449  12.254  1.00139.53     0.031 A 
HETATM    6  C12 MIQ B 502      11.307 -12.125  12.103  1.00139.38     0.030 A 
HETATM    7  C13 MIQ B 502      10.527 -11.572  13.155  1.00141.18     0.019 A 
HETATM    8  C14 MIQ B 502      10.308 -12.345  14.408  1.00138.77     0.033 A 
HETATM    9  C15 MIQ B 502       9.533 -12.082  15.740  1.00142.10     0.195 A 
HETATM   10  N17 MIQ B 502       9.711 -13.160  16.485  1.00139.42    -0.288 N 
HETATM   11  O16 MIQ B 502       8.805 -10.938  16.072  1.00148.93    -0.171 OA
ENDROOT
BRANCH  10  12
HETATM   12  C18 MIQ B 502       9.140 -13.264  17.815  1.00139.82     0.187 C 
HETATM   13  C19 MIQ B 502       7.631 -13.018  17.697  1.00140.06     0.247 C 
HETATM   14  O25 MIQ B 502       7.009 -13.628  16.902  1.00143.95    -0.271 OA
HETATM   15  N20 MIQ B 502       6.945 -12.060  18.540  1.00140.02    -0.296 N 
HETATM   16  H13 MIQ B 502       5.961 -11.904  18.449  1.00142.77     0.171 HD
HETATM   17  C21 MIQ B 502       7.728 -11.321  19.496  1.00142.22     0.224 C 
HETATM   18  C22 MIQ B 502       9.150 -10.979  19.094  1.00139.52     0.106 C 
HETATM   19  O24 MIQ B 502       7.285 -11.003  20.544  1.00146.13    -0.273 OA
HETATM   20  C23 MIQ B 502       9.835 -12.294  18.770  1.00139.15     0.045 C 
ENDBRANCH  10  12
BRANCH   5  21
HETATM   21  N6  MIQ B 502      12.703 -14.020  11.193  1.00140.95    -0.377 N 
HETATM   22  C7  MIQ B 502      13.832 -13.255  10.692  1.00142.12     0.149 C 
HETATM   23  C8  MIQ B 502      14.168 -13.615   9.251  1.00144.10     0.187 C 
HETATM   24  O9  MIQ B 502      14.239 -14.993   9.037  1.00148.65    -0.388 OA
HETATM   25  C10 MIQ B 502      13.807 -15.885  10.022  1.00147.44     0.187 C 
HETATM   26  C11 MIQ B 502      12.679 -15.453  10.953  1.00144.08     0.149 C 
ENDBRANCH   5  21
TORSDOF 2
ENDMDL
MODEL 6
REMARK VINA RESULT:      -6.6     17.007     20.153
REMARK  2 active torsions:
REMARK  status: ('A' for Active; 'I' for Inactive)
REMARK    1  A    between atoms: C5_5  and  N6_21 
REMARK    2  A    between atoms: C18_14  and  N17_19 
ROOT
HETATM    1  O1  MIQ B 502      28.763  -7.174   7.303  1.00142.91    -0.171 OA
HETATM    2  C2  MIQ B 502      27.413  -7.092   6.953  1.00141.17     0.195 A 
HETATM    3  C3  MIQ B 502      26.840  -7.008   5.502  1.00141.71     0.035 A 
HETATM    4  C4  MIQ B 502      27.466  -6.994   4.159  1.00142.86     0.046 A 
HETATM    5  C5  MIQ B 502      26.661  -6.909   2.994  1.00139.53     0.031 A 
HETATM    6  C12 MIQ B 502      25.212  -6.838   3.121  1.00139.38     0.030 A 
HETATM    7  C13 MIQ B 502      24.612  -6.853   4.409  1.00141.18     0.019 A 
HETATM    8  C14 MIQ B 502      25.462  -6.944   5.627  1.00138.77     0.033 A 
HETATM    9  C15 MIQ B 502      25.178  -6.989   7.164  1.00142.10     0.195 A 
HETATM   10  N17 MIQ B 502      26.360  -7.073   7.752  1.00139.42    -0.288 N 
HETATM   11  O16 MIQ B 502      23.928  -6.945   7.785  1.00148.93    -0.171 OA
ENDROOT
BRANCH  10  12
HETATM   12  C18 MIQ B 502      26.486  -7.119   9.196  1.00139.82     0.187 C 
HETATM   13  C19 MIQ B 502      25.635  -8.290   9.703  1.00140.06     0.247 C 
HETATM   14  O25 MIQ B 502      25.772  -9.355   9.215  1.00143.95    -0.271 OA
HETATM   15  N20 MIQ B 502      24.670  -8.127  10.770  1.00140.02    -0.296 N 
HETATM   16  H13 MIQ B 502      24.116  -8.898  11.088  1.00142.77     0.171 HD
HETATM   17  C21 MIQ B 502      24.513  -6.815  11.344  1.00142.22     0.224 C 
HETATM   18  C22 MIQ B 502      24.700  -5.636  10.408  1.00139.52     0.106 C 
HETATM   19  O24 MIQ B 502      24.257  -6.667  12.488  1.00146.13    -0.273 OA
HETATM   20  C23 MIQ B 502      26.087  -5.777   9.808  1.00139.15     0.045 C 
ENDBRANCH  10  12
BRANCH   5  21
HETATM   21  N6  MIQ B 502      27.288  -6.881   1.685  1.00140.95    -0.377 N 
HETATM   22  C7  MIQ B 502      27.802  -5.616   1.189  1.00142.12     0.149 C 
HETATM   23  C8  MIQ B 502      27.822  -5.569  -0.334  1.00144.10     0.187 C 
HETATM   24  O9  MIQ B 502      28.389  -6.709  -0.905  1.00148.65    -0.388 OA
HETATM   25  C10 MIQ B 502      28.669  -7.830  -0.120  1.00147.44     0.187 C 
HETATM   26  C11 MIQ B 502      27.787  -8.110   1.093  1.00144.08     0.149 C 
ENDBRANCH   5  21
TORSDOF 2
ENDMDL
MODEL 7
REMARK VINA RESULT:      -6.5      2.196      8.418
REMARK  2 active torsions:
REMARK  status: ('A' for Active; 'I' for Inactive)
REMARK    1  A    between atoms: C5_5  and  N6_21 
REMARK    2  A    between atoms: C18_14  and  N17_19 
ROOT
HETATM    1  O1  MIQ B 502       9.715 -10.958  12.899  1.00142.91    -0.171 OA
HETATM    2  C2  MIQ B 502      10.615 -11.754  13.612  1.00141.17     0.195 A 
HETATM    3  C3  MIQ B 502      10.625 -11.975  15.158  1.00141.71     0.035 A 
HETATM    4  C4  MIQ B 502       9.777 -11.474  16.265  1.00142.86     0.046 A 
HETATM    5  C5  MIQ B 502      10.040 -11.863  17.603  1.00139.53     0.031 A 
HETATM    6  C12 MIQ B 502      11.150 -12.761  17.889  1.00139.38     0.030 A 
HETATM    7  C13 MIQ B 502      11.963 -13.243  16.828  1.00141.18     0.019 A 
HETATM    8  C14 MIQ B 502      11.680 -12.833  15.425  1.00138.77     0.033 A 
HETATM    9  C15 MIQ B 502      12.327 -13.146  14.037  1.00142.10     0.195 A 
HETATM   10  N17 MIQ B 502      11.619 -12.475  13.144  1.00139.42    -0.288 N 
HETATM   11  O16 MIQ B 502      13.431 -13.966  13.795  1.00148.93    -0.171 OA
ENDROOT
BRANCH  10  12
HETATM   12  C18 MIQ B 502      11.946 -12.517  11.731  1.00139.82     0.187 C 
HETATM   13  C19 MIQ B 502      11.861 -13.979  11.274  1.00140.06     0.247 C 
HETATM   14  O25 MIQ B 502      10.891 -14.603  11.520  1.00143.95    -0.271 OA
HETATM   15  N20 MIQ B 502      12.937 -14.614  10.542  1.00140.02    -0.296 N 
HETATM   16  H13 MIQ B 502      12.872 -15.571  10.255  1.00142.77     0.171 HD
HETATM   17  C21 MIQ B 502      14.116 -13.834  10.263  1.00142.22     0.224 C 
HETATM   18  C22 MIQ B 502      14.514 -12.805  11.304  1.00139.52     0.106 C 
HETATM   19  O24 MIQ B 502      14.737 -13.987   9.270  1.00146.13    -0.273 OA
HETATM   20  C23 MIQ B 502      13.317 -11.889  11.484  1.00139.15     0.045 C 
ENDBRANCH  10  12
BRANCH   5  21
HETATM   21  N6  MIQ B 502       9.211 -11.352  18.679  1.00140.95    -0.377 N 
HETATM   22  C7  MIQ B 502       9.466 -11.814  20.032  1.00142.12     0.149 C 
HETATM   23  C8  MIQ B 502       8.217 -11.746  20.902  1.00144.10     0.187 C 
HETATM   24  O9  MIQ B 502       7.554 -10.521  20.804  1.00148.65    -0.388 OA
HETATM   25  C10 MIQ B 502       7.916  -9.596  19.822  1.00147.44     0.187 C 
HETATM   26  C11 MIQ B 502       8.470 -10.116  18.499  1.00144.08     0.149 C 
ENDBRANCH   5  21
TORSDOF 2
ENDMDL
MODEL 8
REMARK VINA RESULT:      -6.5      4.449     11.444
REMARK  2 active torsions:
REMARK  status: ('A' for Active; 'I' for Inactive)
REMARK    1  A    between atoms: C5_5  and  N6_21 
REMARK    2  A    between atoms: C18_14  and  N17_19 
ROOT
HETATM    1  O1  MIQ B 502      12.327 -13.187   7.291  1.00142.91    -0.171 OA
HETATM    2  C2  MIQ B 502      13.453 -13.565   8.025  1.00141.17     0.195 A 
HETATM    3  C3  MIQ B 502      13.607 -13.501   9.578  1.00141.71     0.035 A 
HETATM    4  C4  MIQ B 502      12.707 -13.070  10.674  1.00142.86     0.046 A 
HETATM    5  C5  MIQ B 502      13.139 -13.131  12.023  1.00139.53     0.031 A 
HETATM    6  C12 MIQ B 502      14.475 -13.622  12.332  1.00139.38     0.030 A 
HETATM    7  C13 MIQ B 502      15.337 -14.037  11.281  1.00141.18     0.019 A 
HETATM    8  C14 MIQ B 502      14.877 -13.972   9.867  1.00138.77     0.033 A 
HETATM    9  C15 MIQ B 502      15.516 -14.331   8.486  1.00142.10     0.195 A 
HETATM   10  N17 MIQ B 502      14.598 -14.049   7.575  1.00139.42    -0.288 N 
HETATM   11  O16 MIQ B 502      16.796 -14.841   8.265  1.00148.93    -0.171 OA
ENDROOT
BRANCH  10  12
HETATM   12  C18 MIQ B 502      14.852 -14.244   6.160  1.00139.82     0.187 C 
HETATM   13  C19 MIQ B 502      15.326 -15.689   5.964  1.00140.06     0.247 C 
HETATM   14  O25 MIQ B 502      14.691 -16.571   6.424  1.00143.95    -0.271 OA
HETATM   15  N20 MIQ B 502      16.532 -16.004   5.225  1.00140.02    -0.296 N 
HETATM   16  H13 MIQ B 502      16.834 -16.951   5.110  1.00142.77     0.171 HD
HETATM   17  C21 MIQ B 502      17.295 -14.910   4.683  1.00142.22     0.224 C 
HETATM   18  C22 MIQ B 502      17.304 -13.622   5.484  1.00139.52     0.106 C 
HETATM   19  O24 MIQ B 502      17.881 -15.011   3.661  1.00146.13    -0.273 OA
HETATM   20  C23 MIQ B 502      15.853 -13.208   5.651  1.00139.15     0.045 C 
ENDBRANCH  10  12
BRANCH   5  21
HETATM   21  N6  MIQ B 502      12.253 -12.691  13.085  1.00140.95    -0.377 N 
HETATM   22  C7  MIQ B 502      10.960 -12.135  12.725  1.00142.12     0.149 C 
HETATM   23  C8  MIQ B 502      10.443 -11.168  13.782  1.00144.10     0.187 C 
HETATM   24  O9  MIQ B 502      10.532 -11.681  15.078  1.00148.65    -0.388 OA
HETATM   25  C10 MIQ B 502      11.245 -12.857  15.326  1.00147.44     0.187 C 
HETATM   26  C11 MIQ B 502      12.439 -13.187  14.437  1.00144.08     0.149 C 
ENDBRANCH   5  21
TORSDOF 2
ENDMDL
MODEL 9
REMARK VINA RESULT:      -6.5      2.761      9.103
REMARK  2 active torsions:
REMARK  status: ('A' for Active; 'I' for Inactive)
REMARK    1  A    between atoms: C5_5  and  N6_21 
REMARK    2  A    between atoms: C18_14  and  N17_19 
ROOT
HETATM    1  O1  MIQ B 502      13.339 -12.379  10.824  1.00142.91    -0.171 OA
HETATM    2  C2  MIQ B 502      12.583 -13.434  11.339  1.00141.17     0.195 A 
HETATM    3  C3  MIQ B 502      11.589 -13.355  12.541  1.00141.71     0.035 A 
HETATM    4  C4  MIQ B 502      11.159 -12.256  13.438  1.00142.86     0.046 A 
HETATM    5  C5  MIQ B 502      10.214 -12.498  14.467  1.00139.53     0.031 A 
HETATM    6  C12 MIQ B 502       9.662 -13.834  14.641  1.00139.38     0.030 A 
HETATM    7  C13 MIQ B 502      10.073 -14.888  13.781  1.00141.18     0.019 A 
HETATM    8  C14 MIQ B 502      11.064 -14.627  12.702  1.00138.77     0.033 A 
HETATM    9  C15 MIQ B 502      11.735 -15.501  11.592  1.00142.10     0.195 A 
HETATM   10  N17 MIQ B 502      12.542 -14.690  10.928  1.00139.42    -0.288 N 
HETATM   11  O16 MIQ B 502      11.524 -16.860  11.357  1.00148.93    -0.171 OA
ENDROOT
BRANCH  10  12
HETATM   12  C18 MIQ B 502      13.352 -15.166   9.822  1.00139.82     0.187 C 
HETATM   13  C19 MIQ B 502      14.771 -14.615  10.010  1.00140.06     0.247 C 
HETATM   14  O25 MIQ B 502      15.313 -14.761  11.048  1.00143.95    -0.271 OA
HETATM   15  N20 MIQ B 502      15.469 -13.924   8.946  1.00140.02    -0.296 N 
HETATM   16  H13 MIQ B 502      16.393 -13.563   9.083  1.00142.77     0.171 HD
HETATM   17  C21 MIQ B 502      14.783 -13.749   7.691  1.00142.22     0.224 C 
HETATM   18  C22 MIQ B 502      13.280 -13.557   7.758  1.00139.52     0.106 C 
HETATM   19  O24 MIQ B 502      15.364 -13.761   6.662  1.00146.13    -0.273 OA
HETATM   20  C23 MIQ B 502      12.723 -14.764   8.490  1.00139.15     0.045 C 
ENDBRANCH  10  12
BRANCH   5  21
HETATM   21  N6  MIQ B 502       9.814 -11.415  15.347  1.00140.95    -0.377 N 
HETATM   22  C7  MIQ B 502       9.970 -11.592  16.780  1.00142.12     0.149 C 
HETATM   23  C8  MIQ B 502       8.978 -10.746  17.569  1.00144.10     0.187 C 
HETATM   24  O9  MIQ B 502       8.927  -9.421  17.133  1.00148.65    -0.388 OA
HETATM   25  C10 MIQ B 502       9.564  -9.040  15.949  1.00147.44     0.187 C 
HETATM   26  C11 MIQ B 502       9.691 -10.065  14.827  1.00144.08     0.149 C 
ENDBRANCH   5  21
TORSDOF 2
ENDMDL
