MODEL 1
REMARK VINA RESULT:      -6.8      0.000      0.000
REMARK  2 active torsions:
REMARK  status: ('A' for Active; 'I' for Inactive)
REMARK    1  A    between atoms: C5_5  and  N6_21 
REMARK    2  A    between atoms: C18_14  and  N17_19 
ROOT
HETATM    1  O1  MIQ B 502     -18.114  -9.164   3.524  1.00142.91    -0.171 OA
HETATM    2  C2  MIQ B 502     -17.191  -8.773   4.497  1.00141.17     0.195 A 
HETATM    3  C3  MIQ B 502     -16.254  -9.720   5.313  1.00141.71     0.035 A 
HETATM    4  C4  MIQ B 502     -16.049 -11.188   5.324  1.00142.86     0.046 A 
HETATM    5  C5  MIQ B 502     -15.099 -11.772   6.199  1.00139.53     0.031 A 
HETATM    6  C12 MIQ B 502     -14.320 -10.924   7.090  1.00139.38     0.030 A 
HETATM    7  C13 MIQ B 502     -14.516  -9.516   7.079  1.00141.18     0.019 A 
HETATM    8  C14 MIQ B 502     -15.513  -8.909   6.156  1.00138.77     0.033 A 
HETATM    9  C15 MIQ B 502     -15.992  -7.450   5.862  1.00142.10     0.195 A 
HETATM   10  N17 MIQ B 502     -16.917  -7.551   4.922  1.00139.42    -0.288 N 
HETATM   11  O16 MIQ B 502     -15.536  -6.281   6.474  1.00148.93    -0.171 OA
ENDROOT
BRANCH  10  12
HETATM   12  C18 MIQ B 502     -17.604  -6.382   4.405  1.00139.82     0.187 C 
HETATM   13  C19 MIQ B 502     -16.539  -5.394   3.912  1.00140.06     0.247 C 
HETATM   14  O25 MIQ B 502     -15.700  -5.773   3.176  1.00143.95    -0.271 OA
HETATM   15  N20 MIQ B 502     -16.539  -4.005   4.322  1.00140.02    -0.296 N 
HETATM   16  H13 MIQ B 502     -15.835  -3.372   3.998  1.00142.77     0.171 HD
HETATM   17  C21 MIQ B 502     -17.568  -3.569   5.230  1.00142.22     0.224 C 
HETATM   18  C22 MIQ B 502     -18.047  -4.581   6.253  1.00139.52     0.106 C 
HETATM   19  O24 MIQ B 502     -18.020  -2.478   5.174  1.00146.13    -0.273 OA
HETATM   20  C23 MIQ B 502     -18.524  -5.791   5.472  1.00139.15     0.045 C 
ENDBRANCH  10  12
BRANCH   5  21
HETATM   21  N6  MIQ B 502     -14.919 -13.212   6.210  1.00140.95    -0.377 N 
HETATM   22  C7  MIQ B 502     -15.386 -13.980   5.069  1.00142.12     0.149 C 
HETATM   23  C8  MIQ B 502     -15.733 -15.413   5.451  1.00144.10     0.187 C 
HETATM   24  O9  MIQ B 502     -14.739 -16.027   6.216  1.00148.65    -0.388 OA
HETATM   25  C10 MIQ B 502     -13.682 -15.276   6.736  1.00147.44     0.187 C 
HETATM   26  C11 MIQ B 502     -13.930 -13.813   7.088  1.00144.08     0.149 C 
ENDBRANCH   5  21
TORSDOF 2
ENDMDL
MODEL 2
REMARK VINA RESULT:      -6.5     17.232     19.973
REMARK  2 active torsions:
REMARK  status: ('A' for Active; 'I' for Inactive)
REMARK    1  A    between atoms: C5_5  and  N6_21 
REMARK    2  A    between atoms: C18_14  and  N17_19 
ROOT
HETATM    1  O1  MIQ B 502     -25.939   1.591  -9.345  1.00142.91    -0.171 OA
HETATM    2  C2  MIQ B 502     -24.635   1.539  -8.850  1.00141.17     0.195 A 
HETATM    3  C3  MIQ B 502     -24.204   1.743  -7.363  1.00141.71     0.035 A 
HETATM    4  C4  MIQ B 502     -24.952   2.025  -6.115  1.00142.86     0.046 A 
HETATM    5  C5  MIQ B 502     -24.265   2.159  -4.882  1.00139.53     0.031 A 
HETATM    6  C12 MIQ B 502     -22.817   2.018  -4.843  1.00139.38     0.030 A 
HETATM    7  C13 MIQ B 502     -22.099   1.746  -6.039  1.00141.18     0.019 A 
HETATM    8  C14 MIQ B 502     -22.826   1.605  -7.330  1.00138.77     0.033 A 
HETATM    9  C15 MIQ B 502     -22.399   1.313  -8.805  1.00142.10     0.195 A 
HETATM   10  N17 MIQ B 502     -23.515   1.308  -9.515  1.00139.42    -0.288 N 
HETATM   11  O16 MIQ B 502     -21.101   1.103  -9.274  1.00148.93    -0.171 OA
ENDROOT
BRANCH  10  12
HETATM   12  C18 MIQ B 502     -23.501   1.082 -10.948  1.00139.82     0.187 C 
HETATM   13  C19 MIQ B 502     -24.239   2.250 -11.613  1.00140.06     0.247 C 
HETATM   14  O25 MIQ B 502     -23.933   3.356 -11.339  1.00143.95    -0.271 OA
HETATM   15  N20 MIQ B 502     -25.300   2.035 -12.575  1.00140.02    -0.296 N 
HETATM   16  H13 MIQ B 502     -25.779   2.806 -12.997  1.00142.77     0.171 HD
HETATM   17  C21 MIQ B 502     -25.663   0.676 -12.886  1.00142.22     0.224 C 
HETATM   18  C22 MIQ B 502     -25.548  -0.334 -11.761  1.00139.52     0.106 C 
HETATM   19  O24 MIQ B 502     -26.027   0.365 -13.967  1.00146.13    -0.273 OA
HETATM   20  C23 MIQ B 502     -24.110  -0.280 -11.277  1.00139.15     0.045 C 
ENDBRANCH  10  12
BRANCH   5  21
HETATM   21  N6  MIQ B 502     -25.009   2.449  -3.670  1.00140.95    -0.377 N 
HETATM   22  C7  MIQ B 502     -24.501   3.471  -2.771  1.00142.12     0.149 C 
HETATM   23  C8  MIQ B 502     -24.948   3.238  -1.333  1.00144.10     0.187 C 
HETATM   24  O9  MIQ B 502     -26.314   2.974  -1.225  1.00148.65    -0.388 OA
HETATM   25  C10 MIQ B 502     -27.081   2.731  -2.368  1.00147.44     0.187 C 
HETATM   26  C11 MIQ B 502     -26.410   2.078  -3.571  1.00144.08     0.149 C 
ENDBRANCH   5  21
TORSDOF 2
ENDMDL
MODEL 3
REMARK VINA RESULT:      -6.4     18.224     21.782
REMARK  2 active torsions:
REMARK  status: ('A' for Active; 'I' for Inactive)
REMARK    1  A    between atoms: C5_5  and  N6_21 
REMARK    2  A    between atoms: C18_14  and  N17_19 
ROOT
HETATM    1  O1  MIQ B 502     -28.126   1.139 -10.063  1.00142.91    -0.171 OA
HETATM    2  C2  MIQ B 502     -26.900   0.668 -10.538  1.00141.17     0.195 A 
HETATM    3  C3  MIQ B 502     -25.509   0.864  -9.855  1.00141.71     0.035 A 
HETATM    4  C4  MIQ B 502     -25.071   1.537  -8.609  1.00142.86     0.046 A 
HETATM    5  C5  MIQ B 502     -23.702   1.545  -8.242  1.00139.53     0.031 A 
HETATM    6  C12 MIQ B 502     -22.721   0.889  -9.095  1.00139.38     0.030 A 
HETATM    7  C13 MIQ B 502     -23.141   0.243 -10.289  1.00141.18     0.019 A 
HETATM    8  C14 MIQ B 502     -24.580   0.235 -10.668  1.00138.77     0.033 A 
HETATM    9  C15 MIQ B 502     -25.399  -0.355 -11.862  1.00142.10     0.195 A 
HETATM   10  N17 MIQ B 502     -26.661  -0.029 -11.636  1.00139.42    -0.288 N 
HETATM   11  O16 MIQ B 502     -24.895  -1.076 -12.946  1.00148.93    -0.171 OA
ENDROOT
BRANCH  10  12
HETATM   12  C18 MIQ B 502     -27.717  -0.402 -12.559  1.00139.82     0.187 C 
HETATM   13  C19 MIQ B 502     -27.590  -1.906 -12.832  1.00140.06     0.247 C 
HETATM   14  O25 MIQ B 502     -27.517  -2.652 -11.921  1.00143.95    -0.271 OA
HETATM   15  N20 MIQ B 502     -27.562  -2.438 -14.179  1.00140.02    -0.296 N 
HETATM   16  H13 MIQ B 502     -27.472  -3.421 -14.344  1.00142.77     0.171 HD
HETATM   17  C21 MIQ B 502     -27.642  -1.505 -15.274  1.00142.22     0.224 C 
HETATM   18  C22 MIQ B 502     -26.995  -0.150 -15.063  1.00139.52     0.106 C 
HETATM   19  O24 MIQ B 502     -28.190  -1.784 -16.283  1.00146.13    -0.273 OA
HETATM   20  C23 MIQ B 502     -27.640   0.448 -13.826  1.00139.15     0.045 C 
ENDBRANCH  10  12
BRANCH   5  21
HETATM   21  N6  MIQ B 502     -23.285   2.221  -7.027  1.00140.95    -0.377 N 
HETATM   22  C7  MIQ B 502     -22.213   3.197  -7.107  1.00142.12     0.149 C 
HETATM   23  C8  MIQ B 502     -21.465   3.331  -5.787  1.00144.10     0.187 C 
HETATM   24  O9  MIQ B 502     -22.319   3.471  -4.691  1.00148.65    -0.388 OA
HETATM   25  C10 MIQ B 502     -23.693   3.265  -4.833  1.00147.44     0.187 C 
HETATM   26  C11 MIQ B 502     -24.176   2.267  -5.880  1.00144.08     0.149 C 
ENDBRANCH   5  21
TORSDOF 2
ENDMDL
MODEL 4
REMARK VINA RESULT:      -6.3     17.547     21.108
REMARK  2 active torsions:
REMARK  status: ('A' for Active; 'I' for Inactive)
REMARK    1  A    between atoms: C5_5  and  N6_21 
REMARK    2  A    between atoms: C18_14  and  N17_19 
ROOT
HETATM    1  O1  MIQ B 502     -24.408   1.461  -7.764  1.00142.91    -0.171 OA
HETATM    2  C2  MIQ B 502     -23.966   1.261  -9.074  1.00141.17     0.195 A 
HETATM    3  C3  MIQ B 502     -24.843   0.809 -10.284  1.00141.71     0.035 A 
HETATM    4  C4  MIQ B 502     -26.281   0.480 -10.434  1.00142.86     0.046 A 
HETATM    5  C5  MIQ B 502     -26.799   0.093 -11.696  1.00139.53     0.031 A 
HETATM    6  C12 MIQ B 502     -25.914   0.018 -12.849  1.00139.38     0.030 A 
HETATM    7  C13 MIQ B 502     -24.536   0.334 -12.706  1.00141.18     0.019 A 
HETATM    8  C14 MIQ B 502     -23.998   0.743 -11.379  1.00138.77     0.033 A 
HETATM    9  C15 MIQ B 502     -22.587   1.157 -10.846  1.00142.10     0.195 A 
HETATM   10  N17 MIQ B 502     -22.745   1.413  -9.558  1.00139.42    -0.288 N 
HETATM   11  O16 MIQ B 502     -21.405   1.236 -11.583  1.00148.93    -0.171 OA
ENDROOT
BRANCH  10  12
HETATM   12  C18 MIQ B 502     -21.628   1.816  -8.723  1.00139.82     0.187 C 
HETATM   13  C19 MIQ B 502     -21.506   0.799  -7.582  1.00140.06     0.247 C 
HETATM   14  O25 MIQ B 502     -21.472  -0.352  -7.837  1.00143.95    -0.271 OA
HETATM   15  N20 MIQ B 502     -21.426   1.212  -6.196  1.00140.02    -0.296 N 
HETATM   16  H13 MIQ B 502     -21.353   0.538  -5.460  1.00142.77     0.171 HD
HETATM   17  C21 MIQ B 502     -21.480   2.623  -5.909  1.00142.22     0.224 C 
HETATM   18  C22 MIQ B 502     -22.341   3.471  -6.824  1.00139.52     0.106 C 
HETATM   19  O24 MIQ B 502     -20.878   3.093  -5.007  1.00146.13    -0.273 OA
HETATM   20  C23 MIQ B 502     -21.822   3.250  -8.233  1.00139.15     0.045 C 
ENDBRANCH  10  12
BRANCH   5  21
HETATM   21  N6  MIQ B 502     -28.206  -0.241 -11.825  1.00140.95    -0.377 N 
HETATM   22  C7  MIQ B 502     -29.150   0.357 -10.896  1.00142.12     0.149 C 
HETATM   23  C8  MIQ B 502     -30.388  -0.510 -10.707  1.00144.10     0.187 C 
HETATM   24  O9  MIQ B 502     -30.935  -0.947 -11.915  1.00148.65    -0.388 OA
HETATM   25  C10 MIQ B 502     -30.238  -0.770 -13.113  1.00147.44     0.187 C 
HETATM   26  C11 MIQ B 502     -28.713  -0.775 -13.077  1.00144.08     0.149 C 
ENDBRANCH   5  21
TORSDOF 2
ENDMDL
MODEL 5
REMARK VINA RESULT:      -6.2     17.847     21.282
REMARK  2 active torsions:
REMARK  status: ('A' for Active; 'I' for Inactive)
REMARK    1  A    between atoms: C5_5  and  N6_21 
REMARK    2  A    between atoms: C18_14  and  N17_19 
ROOT
HETATM    1  O1  MIQ B 502     -21.442   1.215 -11.522  1.00142.91    -0.171 OA
HETATM    2  C2  MIQ B 502     -22.612   1.142 -10.763  1.00141.17     0.195 A 
HETATM    3  C3  MIQ B 502     -24.015   0.684 -11.273  1.00141.71     0.035 A 
HETATM    4  C4  MIQ B 502     -24.520   0.221 -12.588  1.00142.86     0.046 A 
HETATM    5  C5  MIQ B 502     -25.883  -0.136 -12.746  1.00139.53     0.031 A 
HETATM    6  C12 MIQ B 502     -26.790  -0.049 -11.611  1.00139.38     0.030 A 
HETATM    7  C13 MIQ B 502     -26.306   0.393 -10.350  1.00141.18     0.019 A 
HETATM    8  C14 MIQ B 502     -24.873   0.765 -10.189  1.00138.77     0.033 A 
HETATM    9  C15 MIQ B 502     -23.998   1.276  -8.998  1.00142.10     0.195 A 
HETATM   10  N17 MIQ B 502     -22.777   1.431  -9.484  1.00139.42    -0.288 N 
HETATM   11  O16 MIQ B 502     -24.424   1.519  -7.692  1.00148.93    -0.171 OA
ENDROOT
BRANCH  10  12
HETATM   12  C18 MIQ B 502     -21.688   1.913  -8.654  1.00139.82     0.187 C 
HETATM   13  C19 MIQ B 502     -21.467   0.892  -7.532  1.00140.06     0.247 C 
HETATM   14  O25 MIQ B 502     -21.338  -0.248  -7.808  1.00143.95    -0.271 OA
HETATM   15  N20 MIQ B 502     -21.404   1.288  -6.140  1.00140.02    -0.296 N 
HETATM   16  H13 MIQ B 502     -21.266   0.610  -5.417  1.00142.77     0.171 HD
HETATM   17  C21 MIQ B 502     -21.575   2.684  -5.828  1.00142.22     0.224 C 
HETATM   18  C22 MIQ B 502     -22.515   3.471  -6.719  1.00139.52     0.106 C 
HETATM   19  O24 MIQ B 502     -21.004   3.188  -4.924  1.00146.13    -0.273 OA
HETATM   20  C23 MIQ B 502     -21.996   3.318  -8.137  1.00139.15     0.045 C 
ENDBRANCH  10  12
BRANCH   5  21
HETATM   21  N6  MIQ B 502     -26.367  -0.573 -14.043  1.00140.95    -0.377 N 
HETATM   22  C7  MIQ B 502     -25.847  -1.811 -14.598  1.00142.12     0.149 C 
HETATM   23  C8  MIQ B 502     -25.906  -1.821 -16.120  1.00144.10     0.187 C 
HETATM   24  O9  MIQ B 502     -27.147  -1.419 -16.619  1.00148.65    -0.388 OA
HETATM   25  C10 MIQ B 502     -28.103  -0.857 -15.768  1.00147.44     0.187 C 
HETATM   26  C11 MIQ B 502     -27.625  -0.060 -14.559  1.00144.08     0.149 C 
ENDBRANCH   5  21
TORSDOF 2
ENDMDL
MODEL 6
REMARK VINA RESULT:      -6.0     15.767     18.940
REMARK  2 active torsions:
REMARK  status: ('A' for Active; 'I' for Inactive)
REMARK    1  A    between atoms: C5_5  and  N6_21 
REMARK    2  A    between atoms: C18_14  and  N17_19 
ROOT
HETATM    1  O1  MIQ B 502     -21.424 -20.607  -6.187  1.00142.91    -0.171 OA
HETATM    2  C2  MIQ B 502     -20.707 -20.414  -7.369  1.00141.17     0.195 A 
HETATM    3  C3  MIQ B 502     -19.353 -19.648  -7.512  1.00141.71     0.035 A 
HETATM    4  C4  MIQ B 502     -18.471 -18.949  -6.547  1.00142.86     0.046 A 
HETATM    5  C5  MIQ B 502     -17.273 -18.333  -6.987  1.00139.53     0.031 A 
HETATM    6  C12 MIQ B 502     -16.908 -18.387  -8.396  1.00139.38     0.030 A 
HETATM    7  C13 MIQ B 502     -17.753 -19.057  -9.321  1.00141.18     0.019 A 
HETATM    8  C14 MIQ B 502     -19.008 -19.705  -8.852  1.00138.77     0.033 A 
HETATM    9  C15 MIQ B 502     -20.154 -20.511  -9.546  1.00142.10     0.195 A 
HETATM   10  N17 MIQ B 502     -21.008 -20.830  -8.587  1.00139.42    -0.288 N 
HETATM   11  O16 MIQ B 502     -20.252 -20.826 -10.902  1.00148.93    -0.171 OA
ENDROOT
BRANCH  10  12
HETATM   12  C18 MIQ B 502     -22.219 -21.577  -8.870  1.00139.82     0.187 C 
HETATM   13  C19 MIQ B 502     -21.817 -22.856  -9.615  1.00140.06     0.247 C 
HETATM   14  O25 MIQ B 502     -20.971 -23.543  -9.164  1.00143.95    -0.271 OA
HETATM   15  N20 MIQ B 502     -22.452 -23.248 -10.857  1.00140.02    -0.296 N 
HETATM   16  H13 MIQ B 502     -22.175 -24.082 -11.337  1.00142.77     0.171 HD
HETATM   17  C21 MIQ B 502     -23.475 -22.388 -11.392  1.00142.22     0.224 C 
HETATM   18  C22 MIQ B 502     -23.307 -20.900 -11.153  1.00139.52     0.106 C 
HETATM   19  O24 MIQ B 502     -24.401 -22.823 -11.984  1.00146.13    -0.273 OA
HETATM   20  C23 MIQ B 502     -23.208 -20.713  -9.650  1.00139.15     0.045 C 
ENDBRANCH  10  12
BRANCH   5  21
HETATM   21  N6  MIQ B 502     -16.426 -17.639  -6.034  1.00140.95    -0.377 N 
HETATM   22  C7  MIQ B 502     -16.390 -16.187  -6.064  1.00142.12     0.149 C 
HETATM   23  C8  MIQ B 502     -15.074 -15.640  -5.526  1.00144.10     0.187 C 
HETATM   24  O9  MIQ B 502     -14.698 -16.221  -4.314  1.00148.65    -0.388 OA
HETATM   25  C10 MIQ B 502     -15.377 -17.341  -3.826  1.00147.44     0.187 C 
HETATM   26  C11 MIQ B 502     -15.989 -18.316  -4.825  1.00144.08     0.149 C 
ENDBRANCH   5  21
TORSDOF 2
ENDMDL
MODEL 7
REMARK VINA RESULT:      -6.0     22.103     24.256
REMARK  2 active torsions:
REMARK  status: ('A' for Active; 'I' for Inactive)
REMARK    1  A    between atoms: C5_5  and  N6_21 
REMARK    2  A    between atoms: C18_14  and  N17_19 
ROOT
HETATM    1  O1  MIQ B 502     -22.321  -5.493 -13.911  1.00142.91    -0.171 OA
HETATM    2  C2  MIQ B 502     -22.544  -4.682 -15.026  1.00141.17     0.195 A 
HETATM    3  C3  MIQ B 502     -23.696  -3.641 -15.193  1.00141.71     0.035 A 
HETATM    4  C4  MIQ B 502     -24.815  -3.209 -14.321  1.00142.86     0.046 A 
HETATM    5  C5  MIQ B 502     -25.723  -2.214 -14.761  1.00139.53     0.031 A 
HETATM    6  C12 MIQ B 502     -25.556  -1.613 -16.076  1.00139.38     0.030 A 
HETATM    7  C13 MIQ B 502     -24.483  -2.026 -16.912  1.00141.18     0.019 A 
HETATM    8  C14 MIQ B 502     -23.531  -3.069 -16.444  1.00138.77     0.033 A 
HETATM    9  C15 MIQ B 502     -22.268  -3.759 -17.056  1.00142.10     0.195 A 
HETATM   10  N17 MIQ B 502     -21.844  -4.619 -16.145  1.00139.42    -0.288 N 
HETATM   11  O16 MIQ B 502     -21.708  -3.514 -18.312  1.00148.93    -0.171 OA
ENDROOT
BRANCH  10  12
HETATM   12  C18 MIQ B 502     -20.684  -5.459 -16.379  1.00139.82     0.187 C 
HETATM   13  C19 MIQ B 502     -19.523  -4.549 -16.797  1.00140.06     0.247 C 
HETATM   14  O25 MIQ B 502     -19.260  -3.610 -16.133  1.00143.95    -0.271 OA
HETATM   15  N20 MIQ B 502     -18.735  -4.812 -17.983  1.00140.02    -0.296 N 
HETATM   16  H13 MIQ B 502     -17.984  -4.206 -18.249  1.00142.77     0.171 HD
HETATM   17  C21 MIQ B 502     -19.082  -5.958 -18.783  1.00142.22     0.224 C 
HETATM   18  C22 MIQ B 502     -20.553  -6.324 -18.847  1.00139.52     0.106 C 
HETATM   19  O24 MIQ B 502     -18.259  -6.584 -19.356  1.00146.13    -0.273 OA
HETATM   20  C23 MIQ B 502     -21.007  -6.535 -17.414  1.00139.15     0.045 C 
ENDBRANCH  10  12
BRANCH   5  21
HETATM   21  N6  MIQ B 502     -26.823  -1.812 -13.903  1.00140.95    -0.377 N 
HETATM   22  C7  MIQ B 502     -28.171  -2.209 -14.269  1.00142.12     0.149 C 
HETATM   23  C8  MIQ B 502     -29.217  -1.246 -13.721  1.00144.10     0.187 C 
HETATM   24  O9  MIQ B 502     -29.028  -0.950 -12.370  1.00148.65    -0.388 OA
HETATM   25  C10 MIQ B 502     -27.855  -1.340 -11.717  1.00147.44     0.187 C 
HETATM   26  C11 MIQ B 502     -26.565  -1.429 -12.525  1.00144.08     0.149 C 
ENDBRANCH   5  21
TORSDOF 2
ENDMDL
MODEL 8
REMARK VINA RESULT:      -5.9     18.370     21.917
REMARK  2 active torsions:
REMARK  status: ('A' for Active; 'I' for Inactive)
REMARK    1  A    between atoms: C5_5  and  N6_21 
REMARK    2  A    between atoms: C18_14  and  N17_19 
ROOT
HETATM    1  O1  MIQ B 502     -24.583  -0.778 -12.158  1.00142.91    -0.171 OA
HETATM    2  C2  MIQ B 502     -25.652  -0.053 -11.626  1.00141.17     0.195 A 
HETATM    3  C3  MIQ B 502     -25.644   0.753 -10.288  1.00141.71     0.035 A 
HETATM    4  C4  MIQ B 502     -24.613   0.996  -9.251  1.00142.86     0.046 A 
HETATM    5  C5  MIQ B 502     -24.911   1.794  -8.118  1.00139.53     0.031 A 
HETATM    6  C12 MIQ B 502     -26.237   2.380  -7.974  1.00139.38     0.030 A 
HETATM    7  C13 MIQ B 502     -27.224   2.148  -8.969  1.00141.18     0.019 A 
HETATM    8  C14 MIQ B 502     -26.905   1.311 -10.158  1.00138.77     0.033 A 
HETATM    9  C15 MIQ B 502     -27.701   0.849 -11.422  1.00142.10     0.195 A 
HETATM   10  N17 MIQ B 502     -26.864   0.107 -12.129  1.00139.42    -0.288 N 
HETATM   11  O16 MIQ B 502     -29.026   1.157 -11.735  1.00148.93    -0.171 OA
ENDROOT
BRANCH  10  12
HETATM   12  C18 MIQ B 502     -27.270  -0.512 -13.377  1.00139.82     0.187 C 
HETATM   13  C19 MIQ B 502     -26.989  -2.016 -13.266  1.00140.06     0.247 C 
HETATM   14  O25 MIQ B 502     -27.390  -2.609 -12.330  1.00143.95    -0.271 OA
HETATM   15  N20 MIQ B 502     -26.247  -2.731 -14.285  1.00140.02    -0.296 N 
HETATM   16  H13 MIQ B 502     -26.065  -3.711 -14.198  1.00142.77     0.171 HD
HETATM   17  C21 MIQ B 502     -25.758  -1.982 -15.414  1.00142.22     0.224 C 
HETATM   18  C22 MIQ B 502     -25.345  -0.547 -15.152  1.00139.52     0.106 C 
HETATM   19  O24 MIQ B 502     -25.688  -2.464 -16.491  1.00146.13    -0.273 OA
HETATM   20  C23 MIQ B 502     -26.555   0.148 -14.555  1.00139.15     0.045 C 
ENDBRANCH  10  12
BRANCH   5  21
HETATM   21  N6  MIQ B 502     -23.897   2.011  -7.102  1.00140.95    -0.377 N 
HETATM   22  C7  MIQ B 502     -24.320   2.421  -5.774  1.00142.12     0.149 C 
HETATM   23  C8  MIQ B 502     -23.236   3.208  -5.049  1.00144.10     0.187 C 
HETATM   24  O9  MIQ B 502     -21.984   2.593  -5.113  1.00148.65    -0.388 OA
HETATM   25  C10 MIQ B 502     -21.772   1.505  -5.963  1.00147.44     0.187 C 
HETATM   26  C11 MIQ B 502     -22.579   1.421  -7.255  1.00144.08     0.149 C 
ENDBRANCH   5  21
TORSDOF 2
ENDMDL
MODEL 9
REMARK VINA RESULT:      -5.9     23.662     25.822
REMARK  2 active torsions:
REMARK  status: ('A' for Active; 'I' for Inactive)
REMARK    1  A    between atoms: C5_5  and  N6_21 
REMARK    2  A    between atoms: C18_14  and  N17_19 
ROOT
HETATM    1  O1  MIQ B 502     -18.494  -2.508 -19.085  1.00142.91    -0.171 OA
HETATM    2  C2  MIQ B 502     -17.128  -2.442 -18.797  1.00141.17     0.195 A 
HETATM    3  C3  MIQ B 502     -16.000  -3.272 -19.487  1.00141.71     0.035 A 
HETATM    4  C4  MIQ B 502     -15.997  -4.293 -20.562  1.00142.86     0.046 A 
HETATM    5  C5  MIQ B 502     -14.780  -4.883 -20.987  1.00139.53     0.031 A 
HETATM    6  C12 MIQ B 502     -13.527  -4.483 -20.365  1.00139.38     0.030 A 
HETATM    7  C13 MIQ B 502     -13.528  -3.503 -19.335  1.00141.18     0.019 A 
HETATM    8  C14 MIQ B 502     -14.809  -2.885 -18.894  1.00138.77     0.033 A 
HETATM    9  C15 MIQ B 502     -15.201  -1.808 -17.831  1.00142.10     0.195 A 
HETATM   10  N17 MIQ B 502     -16.515  -1.680 -17.908  1.00139.42    -0.288 N 
HETATM   11  O16 MIQ B 502     -14.335  -1.126 -16.974  1.00148.93    -0.171 OA
ENDROOT
BRANCH  10  12
HETATM   12  C18 MIQ B 502     -17.239  -0.766 -17.045  1.00139.82     0.187 C 
HETATM   13  C19 MIQ B 502     -18.334  -1.566 -16.329  1.00140.06     0.247 C 
HETATM   14  O25 MIQ B 502     -18.045  -2.564 -15.770  1.00143.95    -0.271 OA
HETATM   15  N20 MIQ B 502     -19.714  -1.127 -16.314  1.00140.02    -0.296 N 
HETATM   16  H13 MIQ B 502     -20.421  -1.662 -15.849  1.00142.77     0.171 HD
HETATM   17  C21 MIQ B 502     -20.043   0.089 -17.012  1.00142.22     0.224 C 
HETATM   18  C22 MIQ B 502     -19.245   0.392 -18.266  1.00139.52     0.106 C 
HETATM   19  O24 MIQ B 502     -20.889   0.816 -16.622  1.00146.13    -0.273 OA
HETATM   20  C23 MIQ B 502     -17.785   0.410 -17.854  1.00139.15     0.045 C 
ENDBRANCH  10  12
BRANCH   5  21
HETATM   21  N6  MIQ B 502     -14.795  -5.893 -22.030  1.00140.95    -0.377 N 
HETATM   22  C7  MIQ B 502     -13.906  -5.728 -23.168  1.00142.12     0.149 C 
HETATM   23  C8  MIQ B 502     -14.444  -6.422 -24.414  1.00144.10     0.187 C 
HETATM   24  O9  MIQ B 502     -14.863  -7.731 -24.168  1.00148.65    -0.388 OA
HETATM   25  C10 MIQ B 502     -14.972  -8.205 -22.859  1.00147.44     0.187 C 
HETATM   26  C11 MIQ B 502     -15.321  -7.217 -21.751  1.00144.08     0.149 C 
ENDBRANCH   5  21
TORSDOF 2
ENDMDL
