MODEL 1
REMARK VINA RESULT:      -7.0      0.000      0.000
REMARK  2 active torsions:
REMARK  status: ('A' for Active; 'I' for Inactive)
REMARK    1  A    between atoms: C5_5  and  N6_21 
REMARK    2  A    between atoms: C18_14  and  N17_19 
ROOT
HETATM    1  O1  MIQ B 502      -5.073 -22.991   5.135  1.00142.91    -0.171 OA
HETATM    2  C2  MIQ B 502      -4.933 -23.534   6.414  1.00141.17     0.195 A 
HETATM    3  C3  MIQ B 502      -4.159 -22.891   7.609  1.00141.71     0.035 A 
HETATM    4  C4  MIQ B 502      -3.401 -21.628   7.771  1.00142.86     0.046 A 
HETATM    5  C5  MIQ B 502      -2.794 -21.310   9.012  1.00139.53     0.031 A 
HETATM    6  C12 MIQ B 502      -2.917 -22.230  10.133  1.00139.38     0.030 A 
HETATM    7  C13 MIQ B 502      -3.645 -23.441   9.979  1.00141.18     0.019 A 
HETATM    8  C14 MIQ B 502      -4.282 -23.768   8.675  1.00138.77     0.033 A 
HETATM    9  C15 MIQ B 502      -5.137 -24.962   8.138  1.00142.10     0.195 A 
HETATM   10  N17 MIQ B 502      -5.416 -24.674   6.877  1.00139.42    -0.288 N 
HETATM   11  O16 MIQ B 502      -5.524 -26.100   8.849  1.00148.93    -0.171 OA
ENDROOT
BRANCH  10  12
HETATM   12  C18 MIQ B 502      -6.191 -25.578   6.048  1.00139.82     0.187 C 
HETATM   13  C19 MIQ B 502      -5.318 -25.983   4.854  1.00140.06     0.247 C 
HETATM   14  O25 MIQ B 502      -4.229 -26.391   5.050  1.00143.95    -0.271 OA
HETATM   15  N20 MIQ B 502      -5.796 -25.884   3.490  1.00140.02    -0.296 N 
HETATM   16  H13 MIQ B 502      -5.213 -26.146   2.719  1.00142.77     0.171 HD
HETATM   17  C21 MIQ B 502      -7.125 -25.374   3.276  1.00142.22     0.224 C 
HETATM   18  C22 MIQ B 502      -7.613 -24.315   4.247  1.00139.52     0.106 C 
HETATM   19  O24 MIQ B 502      -7.803 -25.765   2.391  1.00146.13    -0.273 OA
HETATM   20  C23 MIQ B 502      -7.508 -24.922   5.635  1.00139.15     0.045 C 
ENDBRANCH  10  12
BRANCH   5  21
HETATM   21  N6  MIQ B 502      -2.042 -20.076   9.151  1.00140.95    -0.377 N 
HETATM   22  C7  MIQ B 502      -1.375 -19.808  10.414  1.00142.12     0.149 C 
HETATM   23  C8  MIQ B 502      -1.202 -18.315  10.660  1.00144.10     0.187 C 
HETATM   24  O9  MIQ B 502      -0.681 -17.639   9.555  1.00148.65    -0.388 OA
HETATM   25  C10 MIQ B 502      -0.577 -18.280   8.318  1.00147.44     0.187 C 
HETATM   26  C11 MIQ B 502      -1.594 -19.362   7.969  1.00144.08     0.149 C 
ENDBRANCH   5  21
TORSDOF 2
ENDMDL
MODEL 2
REMARK VINA RESULT:      -6.9      6.328      9.905
REMARK  2 active torsions:
REMARK  status: ('A' for Active; 'I' for Inactive)
REMARK    1  A    between atoms: C5_5  and  N6_21 
REMARK    2  A    between atoms: C18_14  and  N17_19 
ROOT
HETATM    1  O1  MIQ B 502       0.127 -19.197  13.714  1.00142.91    -0.171 OA
HETATM    2  C2  MIQ B 502      -0.497 -20.084  12.834  1.00141.17     0.195 A 
HETATM    3  C3  MIQ B 502      -1.065 -21.494  13.194  1.00141.71     0.035 A 
HETATM    4  C4  MIQ B 502      -1.129 -22.276  14.451  1.00142.86     0.046 A 
HETATM    5  C5  MIQ B 502      -1.725 -23.563  14.465  1.00139.53     0.031 A 
HETATM    6  C12 MIQ B 502      -2.276 -24.117  13.237  1.00139.38     0.030 A 
HETATM    7  C13 MIQ B 502      -2.215 -23.367  12.031  1.00141.18     0.019 A 
HETATM    8  C14 MIQ B 502      -1.591 -22.015  12.023  1.00138.77     0.033 A 
HETATM    9  C15 MIQ B 502      -1.349 -20.923  10.931  1.00142.10     0.195 A 
HETATM   10  N17 MIQ B 502      -0.738 -19.923  11.544  1.00139.42    -0.288 N 
HETATM   11  O16 MIQ B 502      -1.705 -20.996   9.583  1.00148.93    -0.171 OA
ENDROOT
BRANCH  10  12
HETATM   12  C18 MIQ B 502      -0.339 -18.726  10.828  1.00139.82     0.187 C 
HETATM   13  C19 MIQ B 502       1.137 -18.459  11.148  1.00140.06     0.247 C 
HETATM   14  O25 MIQ B 502       1.921 -19.331  11.020  1.00143.95    -0.271 OA
HETATM   15  N20 MIQ B 502       1.598 -17.162  11.600  1.00140.02    -0.296 N 
HETATM   16  H13 MIQ B 502       2.563 -17.003  11.812  1.00142.77     0.171 HD
HETATM   17  C21 MIQ B 502       0.621 -16.117  11.759  1.00142.22     0.224 C 
HETATM   18  C22 MIQ B 502      -0.764 -16.541  12.207  1.00139.52     0.106 C 
HETATM   19  O24 MIQ B 502       0.886 -14.985  11.544  1.00146.13    -0.273 OA
HETATM   20  C23 MIQ B 502      -1.254 -17.558  11.192  1.00139.15     0.045 C 
ENDBRANCH  10  12
BRANCH   5  21
HETATM   21  N6  MIQ B 502      -1.767 -24.324  15.700  1.00140.95    -0.377 N 
HETATM   22  C7  MIQ B 502      -0.842 -23.974  16.764  1.00142.12     0.149 C 
HETATM   23  C8  MIQ B 502      -0.537 -25.163  17.666  1.00144.10     0.187 C 
HETATM   24  O9  MIQ B 502      -1.686 -25.844  18.075  1.00148.65    -0.388 OA
HETATM   25  C10 MIQ B 502      -2.923 -25.557  17.492  1.00147.44     0.187 C 
HETATM   26  C11 MIQ B 502      -2.955 -25.087  16.041  1.00144.08     0.149 C 
ENDBRANCH   5  21
TORSDOF 2
ENDMDL
MODEL 3
REMARK VINA RESULT:      -6.8      3.549      9.789
REMARK  2 active torsions:
REMARK  status: ('A' for Active; 'I' for Inactive)
REMARK    1  A    between atoms: C5_5  and  N6_21 
REMARK    2  A    between atoms: C18_14  and  N17_19 
ROOT
HETATM    1  O1  MIQ B 502      -0.430 -21.216  13.326  1.00142.91    -0.171 OA
HETATM    2  C2  MIQ B 502      -0.935 -20.416  12.298  1.00141.17     0.195 A 
HETATM    3  C3  MIQ B 502      -1.514 -20.921  10.938  1.00141.71     0.035 A 
HETATM    4  C4  MIQ B 502      -1.705 -22.267  10.348  1.00142.86     0.046 A 
HETATM    5  C5  MIQ B 502      -2.275 -22.410   9.058  1.00139.53     0.031 A 
HETATM    6  C12 MIQ B 502      -2.675 -21.227   8.309  1.00139.38     0.030 A 
HETATM    7  C13 MIQ B 502      -2.493 -19.936   8.875  1.00141.18     0.019 A 
HETATM    8  C14 MIQ B 502      -1.897 -19.792  10.231  1.00138.77     0.033 A 
HETATM    9  C15 MIQ B 502      -1.553 -18.581  11.158  1.00142.10     0.195 A 
HETATM   10  N17 MIQ B 502      -1.033 -19.099  12.258  1.00139.42    -0.288 N 
HETATM   11  O16 MIQ B 502      -1.754 -17.229  10.875  1.00148.93    -0.171 OA
ENDROOT
BRANCH  10  12
HETATM   12  C18 MIQ B 502      -0.577 -18.258  13.349  1.00139.82     0.187 C 
HETATM   13  C19 MIQ B 502       0.892 -18.602  13.624  1.00140.06     0.247 C 
HETATM   14  O25 MIQ B 502       1.658 -18.613  12.727  1.00143.95    -0.271 OA
HETATM   15  N20 MIQ B 502       1.368 -18.909  14.957  1.00140.02    -0.296 N 
HETATM   16  H13 MIQ B 502       2.329 -19.139  15.121  1.00142.77     0.171 HD
HETATM   17  C21 MIQ B 502       0.412 -18.900  16.034  1.00142.22     0.224 C 
HETATM   18  C22 MIQ B 502      -0.999 -19.341  15.696  1.00139.52     0.106 C 
HETATM   19  O24 MIQ B 502       0.713 -18.559  17.124  1.00146.13    -0.273 OA
HETATM   20  C23 MIQ B 502      -1.476 -18.439  14.572  1.00139.15     0.045 C 
ENDBRANCH  10  12
BRANCH   5  21
HETATM   21  N6  MIQ B 502      -2.443 -23.734   8.487  1.00140.95    -0.377 N 
HETATM   22  C7  MIQ B 502      -3.049 -24.771   9.303  1.00142.12     0.149 C 
HETATM   23  C8  MIQ B 502      -2.595 -26.163   8.883  1.00144.10     0.187 C 
HETATM   24  O9  MIQ B 502      -2.673 -26.368   7.504  1.00148.65    -0.388 OA
HETATM   25  C10 MIQ B 502      -2.921 -25.296   6.643  1.00147.44     0.187 C 
HETATM   26  C11 MIQ B 502      -2.431 -23.909   7.045  1.00144.08     0.149 C 
ENDBRANCH   5  21
TORSDOF 2
ENDMDL
MODEL 4
REMARK VINA RESULT:      -6.7      2.770      8.912
REMARK  2 active torsions:
REMARK  status: ('A' for Active; 'I' for Inactive)
REMARK    1  A    between atoms: C5_5  and  N6_21 
REMARK    2  A    between atoms: C18_14  and  N17_19 
ROOT
HETATM    1  O1  MIQ B 502      -1.497 -18.872   9.071  1.00142.91    -0.171 OA
HETATM    2  C2  MIQ B 502      -1.637 -19.995   9.890  1.00141.17     0.195 A 
HETATM    3  C3  MIQ B 502      -2.378 -21.319   9.520  1.00141.71     0.035 A 
HETATM    4  C4  MIQ B 502      -3.098 -21.780   8.309  1.00142.86     0.046 A 
HETATM    5  C5  MIQ B 502      -3.681 -23.071   8.270  1.00139.53     0.031 A 
HETATM    6  C12 MIQ B 502      -3.570 -23.949   9.426  1.00139.38     0.030 A 
HETATM    7  C13 MIQ B 502      -2.879 -23.509  10.587  1.00141.18     0.019 A 
HETATM    8  C14 MIQ B 502      -2.267 -22.152  10.621  1.00138.77     0.033 A 
HETATM    9  C15 MIQ B 502      -1.452 -21.341  11.681  1.00142.10     0.195 A 
HETATM   10  N17 MIQ B 502      -1.181 -20.175  11.118  1.00139.42    -0.288 N 
HETATM   11  O16 MIQ B 502      -1.090 -21.765  12.960  1.00148.93    -0.171 OA
ENDROOT
BRANCH  10  12
HETATM   12  C18 MIQ B 502      -0.441 -19.146  11.825  1.00139.82     0.187 C 
HETATM   13  C19 MIQ B 502       0.859 -19.775  12.339  1.00140.06     0.247 C 
HETATM   14  O25 MIQ B 502       1.545 -20.374  11.589  1.00143.95    -0.271 OA
HETATM   15  N20 MIQ B 502       1.274 -19.650  13.722  1.00140.02    -0.296 N 
HETATM   16  H13 MIQ B 502       2.122 -20.071  14.046  1.00142.77     0.171 HD
HETATM   17  C21 MIQ B 502       0.414 -18.924  14.621  1.00142.22     0.224 C 
HETATM   18  C22 MIQ B 502      -1.077 -19.018  14.362  1.00139.52     0.106 C 
HETATM   19  O24 MIQ B 502       0.853 -18.282  15.511  1.00146.13    -0.273 OA
HETATM   20  C23 MIQ B 502      -1.299 -18.544  12.937  1.00139.15     0.045 C 
ENDBRANCH  10  12
BRANCH   5  21
HETATM   21  N6  MIQ B 502      -4.396 -23.504   7.083  1.00140.95    -0.377 N 
HETATM   22  C7  MIQ B 502      -4.350 -22.663   5.899  1.00142.12     0.149 C 
HETATM   23  C8  MIQ B 502      -5.577 -22.854   5.018  1.00144.10     0.187 C 
HETATM   24  O9  MIQ B 502      -5.874 -24.198   4.784  1.00148.65    -0.388 OA
HETATM   25  C10 MIQ B 502      -5.221 -25.203   5.502  1.00147.44     0.187 C 
HETATM   26  C11 MIQ B 502      -4.760 -24.901   6.924  1.00144.08     0.149 C 
ENDBRANCH   5  21
TORSDOF 2
ENDMDL
MODEL 5
REMARK VINA RESULT:      -6.7      2.407      8.933
REMARK  2 active torsions:
REMARK  status: ('A' for Active; 'I' for Inactive)
REMARK    1  A    between atoms: C5_5  and  N6_21 
REMARK    2  A    between atoms: C18_14  and  N17_19 
ROOT
HETATM    1  O1  MIQ B 502      -1.504 -18.769   9.736  1.00142.91    -0.171 OA
HETATM    2  C2  MIQ B 502      -1.492 -19.953  10.476  1.00141.17     0.195 A 
HETATM    3  C3  MIQ B 502      -2.183 -21.296  10.078  1.00141.71     0.035 A 
HETATM    4  C4  MIQ B 502      -2.990 -21.720   8.909  1.00142.86     0.046 A 
HETATM    5  C5  MIQ B 502      -3.493 -23.043   8.826  1.00139.53     0.031 A 
HETATM    6  C12 MIQ B 502      -3.213 -23.990   9.896  1.00139.38     0.030 A 
HETATM    7  C13 MIQ B 502      -2.439 -23.585  11.016  1.00141.18     0.019 A 
HETATM    8  C14 MIQ B 502      -1.911 -22.195  11.096  1.00138.77     0.033 A 
HETATM    9  C15 MIQ B 502      -1.047 -21.405  12.133  1.00142.10     0.195 A 
HETATM   10  N17 MIQ B 502      -0.906 -20.187  11.637  1.00139.42    -0.288 N 
HETATM   11  O16 MIQ B 502      -0.533 -21.892  13.336  1.00148.93    -0.171 OA
ENDROOT
BRANCH  10  12
HETATM   12  C18 MIQ B 502      -0.165 -19.162  12.348  1.00139.82     0.187 C 
HETATM   13  C19 MIQ B 502      -1.133 -18.013  12.657  1.00140.06     0.247 C 
HETATM   14  O25 MIQ B 502      -2.163 -18.253  13.179  1.00143.95    -0.271 OA
HETATM   15  N20 MIQ B 502      -0.816 -16.638  12.330  1.00140.02    -0.296 N 
HETATM   16  H13 MIQ B 502      -1.460 -15.898  12.531  1.00142.77     0.171 HD
HETATM   17  C21 MIQ B 502       0.443 -16.372  11.684  1.00142.22     0.224 C 
HETATM   18  C22 MIQ B 502       0.959 -17.434  10.732  1.00139.52     0.106 C 
HETATM   19  O24 MIQ B 502       1.045 -15.376  11.890  1.00146.13    -0.273 OA
HETATM   20  C23 MIQ B 502       1.049 -18.721  11.532  1.00139.15     0.045 C 
ENDBRANCH  10  12
BRANCH   5  21
HETATM   21  N6  MIQ B 502      -4.295 -23.440   7.683  1.00140.95    -0.377 N 
HETATM   22  C7  MIQ B 502      -3.966 -22.888   6.380  1.00142.12     0.149 C 
HETATM   23  C8  MIQ B 502      -5.179 -22.843   5.460  1.00144.10     0.187 C 
HETATM   24  O9  MIQ B 502      -5.890 -24.045   5.437  1.00148.65    -0.388 OA
HETATM   25  C10 MIQ B 502      -5.602 -25.054   6.360  1.00147.44     0.187 C 
HETATM   26  C11 MIQ B 502      -5.086 -24.656   7.739  1.00144.08     0.149 C 
ENDBRANCH   5  21
TORSDOF 2
ENDMDL
MODEL 6
REMARK VINA RESULT:      -6.7      6.393      9.962
REMARK  2 active torsions:
REMARK  status: ('A' for Active; 'I' for Inactive)
REMARK    1  A    between atoms: C5_5  and  N6_21 
REMARK    2  A    between atoms: C18_14  and  N17_19 
ROOT
HETATM    1  O1  MIQ B 502       2.710 -19.604  12.604  1.00142.91    -0.171 OA
HETATM    2  C2  MIQ B 502       1.395 -19.209  12.862  1.00141.17     0.195 A 
HETATM    3  C3  MIQ B 502       0.758 -18.987  14.271  1.00141.71     0.035 A 
HETATM    4  C4  MIQ B 502       1.278 -19.104  15.654  1.00142.86     0.046 A 
HETATM    5  C5  MIQ B 502       0.437 -18.828  16.761  1.00139.53     0.031 A 
HETATM    6  C12 MIQ B 502      -0.945 -18.427  16.537  1.00139.38     0.030 A 
HETATM    7  C13 MIQ B 502      -1.443 -18.313  15.211  1.00141.18     0.019 A 
HETATM    8  C14 MIQ B 502      -0.554 -18.602  14.052  1.00138.77     0.033 A 
HETATM    9  C15 MIQ B 502      -0.733 -18.585  12.499  1.00142.10     0.195 A 
HETATM   10  N17 MIQ B 502       0.436 -18.941  11.993  1.00139.42    -0.288 N 
HETATM   11  O16 MIQ B 502      -1.894 -18.261  11.795  1.00148.93    -0.171 OA
ENDROOT
BRANCH  10  12
HETATM   12  C18 MIQ B 502       0.639 -19.051  10.560  1.00139.82     0.187 C 
HETATM   13  C19 MIQ B 502       0.196 -17.728   9.923  1.00140.06     0.247 C 
HETATM   14  O25 MIQ B 502       0.617 -16.713  10.351  1.00143.95    -0.271 OA
HETATM   15  N20 MIQ B 502      -0.722 -17.690   8.803  1.00140.02    -0.296 N 
HETATM   16  H13 MIQ B 502      -1.009 -16.820   8.400  1.00142.77     0.171 HD
HETATM   17  C21 MIQ B 502      -1.231 -18.942   8.305  1.00142.22     0.224 C 
HETATM   18  C22 MIQ B 502      -1.444 -20.045   9.324  1.00139.52     0.106 C 
HETATM   19  O24 MIQ B 502      -1.464 -19.102   7.157  1.00146.13    -0.273 OA
HETATM   20  C23 MIQ B 502      -0.107 -20.264  10.008  1.00139.15     0.045 C 
ENDBRANCH  10  12
BRANCH   5  21
HETATM   21  N6  MIQ B 502       0.955 -18.961  18.111  1.00140.95    -0.377 N 
HETATM   22  C7  MIQ B 502       0.080 -18.640  19.225  1.00142.12     0.149 C 
HETATM   23  C8  MIQ B 502       0.863 -18.199  20.455  1.00144.10     0.187 C 
HETATM   24  O9  MIQ B 502       1.926 -19.053  20.757  1.00148.65    -0.388 OA
HETATM   25  C10 MIQ B 502       2.314 -20.046  19.854  1.00147.44     0.187 C 
HETATM   26  C11 MIQ B 502       2.117 -19.794  18.363  1.00144.08     0.149 C 
ENDBRANCH   5  21
TORSDOF 2
ENDMDL
MODEL 7
REMARK VINA RESULT:      -6.6      3.711      5.695
REMARK  2 active torsions:
REMARK  status: ('A' for Active; 'I' for Inactive)
REMARK    1  A    between atoms: C5_5  and  N6_21 
REMARK    2  A    between atoms: C18_14  and  N17_19 
ROOT
HETATM    1  O1  MIQ B 502      -1.192 -20.843   9.005  1.00142.91    -0.171 OA
HETATM    2  C2  MIQ B 502      -1.360 -21.414  10.268  1.00141.17     0.195 A 
HETATM    3  C3  MIQ B 502      -0.707 -20.920  11.598  1.00141.71     0.035 A 
HETATM    4  C4  MIQ B 502       0.206 -19.801  11.931  1.00142.86     0.046 A 
HETATM    5  C5  MIQ B 502       0.637 -19.601  13.267  1.00139.53     0.031 A 
HETATM    6  C12 MIQ B 502       0.179 -20.499  14.317  1.00139.38     0.030 A 
HETATM    7  C13 MIQ B 502      -0.698 -21.572  13.998  1.00141.18     0.019 A 
HETATM    8  C14 MIQ B 502      -1.149 -21.776  12.595  1.00138.77     0.033 A 
HETATM    9  C15 MIQ B 502      -2.081 -22.807  11.879  1.00142.10     0.195 A 
HETATM   10  N17 MIQ B 502      -2.092 -22.464  10.601  1.00139.42    -0.288 N 
HETATM   11  O16 MIQ B 502      -2.761 -23.872  12.472  1.00148.93    -0.171 OA
ENDROOT
BRANCH  10  12
HETATM   12  C18 MIQ B 502      -2.850 -23.218   9.621  1.00139.82     0.187 C 
HETATM   13  C19 MIQ B 502      -1.906 -23.562   8.462  1.00140.06     0.247 C 
HETATM   14  O25 MIQ B 502      -0.866 -24.067   8.697  1.00143.95    -0.271 OA
HETATM   15  N20 MIQ B 502      -2.259 -23.289   7.084  1.00140.02    -0.296 N 
HETATM   16  H13 MIQ B 502      -1.631 -23.513   6.337  1.00142.77     0.171 HD
HETATM   17  C21 MIQ B 502      -3.529 -22.664   6.823  1.00142.22     0.224 C 
HETATM   18  C22 MIQ B 502      -4.028 -21.677   7.861  1.00139.52     0.106 C 
HETATM   19  O24 MIQ B 502      -4.152 -22.912   5.850  1.00146.13    -0.273 OA
HETATM   20  C23 MIQ B 502      -4.082 -22.429   9.179  1.00139.15     0.045 C 
ENDBRANCH  10  12
BRANCH   5  21
HETATM   21  N6  MIQ B 502       1.543 -18.510  13.576  1.00140.95    -0.377 N 
HETATM   22  C7  MIQ B 502       2.804 -18.818  14.228  1.00142.12     0.149 C 
HETATM   23  C8  MIQ B 502       3.324 -17.642  15.044  1.00144.10     0.187 C 
HETATM   24  O9  MIQ B 502       3.295 -16.436  14.341  1.00148.65    -0.388 OA
HETATM   25  C10 MIQ B 502       2.630 -16.348  13.115  1.00147.44     0.187 C 
HETATM   26  C11 MIQ B 502       1.418 -17.243  12.877  1.00144.08     0.149 C 
ENDBRANCH   5  21
TORSDOF 2
ENDMDL
MODEL 8
REMARK VINA RESULT:      -6.6      7.422     10.336
REMARK  2 active torsions:
REMARK  status: ('A' for Active; 'I' for Inactive)
REMARK    1  A    between atoms: C5_5  and  N6_21 
REMARK    2  A    between atoms: C18_14  and  N17_19 
ROOT
HETATM    1  O1  MIQ B 502       0.387 -17.902  13.367  1.00142.91    -0.171 OA
HETATM    2  C2  MIQ B 502       0.053 -19.158  13.878  1.00141.17     0.195 A 
HETATM    3  C3  MIQ B 502       0.090 -19.582  15.381  1.00141.71     0.035 A 
HETATM    4  C4  MIQ B 502       0.449 -18.872  16.631  1.00142.86     0.046 A 
HETATM    5  C5  MIQ B 502       0.381 -19.541  17.880  1.00139.53     0.031 A 
HETATM    6  C12 MIQ B 502      -0.045 -20.932  17.932  1.00139.38     0.030 A 
HETATM    7  C13 MIQ B 502      -0.391 -21.612  16.733  1.00141.18     0.019 A 
HETATM    8  C14 MIQ B 502      -0.319 -20.905  15.426  1.00138.77     0.033 A 
HETATM    9  C15 MIQ B 502      -0.612 -21.304  13.943  1.00142.10     0.195 A 
HETATM   10  N17 MIQ B 502      -0.360 -20.226  13.218  1.00139.42    -0.288 N 
HETATM   11  O16 MIQ B 502      -1.050 -22.547  13.482  1.00148.93    -0.171 OA
ENDROOT
BRANCH  10  12
HETATM   12  C18 MIQ B 502      -0.509 -20.232  11.775  1.00139.82     0.187 C 
HETATM   13  C19 MIQ B 502       0.816 -19.759  11.165  1.00140.06     0.247 C 
HETATM   14  O25 MIQ B 502       1.822 -20.272  11.505  1.00143.95    -0.271 OA
HETATM   15  N20 MIQ B 502       0.867 -18.702  10.176  1.00140.02    -0.296 N 
HETATM   16  H13 MIQ B 502       1.739 -18.397   9.791  1.00142.77     0.171 HD
HETATM   17  C21 MIQ B 502      -0.373 -18.084   9.785  1.00142.22     0.224 C 
HETATM   18  C22 MIQ B 502      -1.443 -17.966  10.853  1.00139.52     0.106 C 
HETATM   19  O24 MIQ B 502      -0.549 -17.693   8.683  1.00146.13    -0.273 OA
HETATM   20  C23 MIQ B 502      -1.703 -19.373  11.360  1.00139.15     0.045 C 
ENDBRANCH  10  12
BRANCH   5  21
HETATM   21  N6  MIQ B 502       0.750 -18.838  19.095  1.00140.95    -0.377 N 
HETATM   22  C7  MIQ B 502      -0.183 -17.872  19.649  1.00142.12     0.149 C 
HETATM   23  C8  MIQ B 502       0.526 -16.798  20.464  1.00144.10     0.187 C 
HETATM   24  O9  MIQ B 502       1.448 -17.325  21.370  1.00148.65    -0.388 OA
HETATM   25  C10 MIQ B 502       1.802 -18.676  21.316  1.00147.44     0.187 C 
HETATM   26  C11 MIQ B 502       1.777 -19.382  19.965  1.00144.08     0.149 C 
ENDBRANCH   5  21
TORSDOF 2
ENDMDL
MODEL 9
REMARK VINA RESULT:      -6.5      4.497      6.576
REMARK  2 active torsions:
REMARK  status: ('A' for Active; 'I' for Inactive)
REMARK    1  A    between atoms: C5_5  and  N6_21 
REMARK    2  A    between atoms: C18_14  and  N17_19 
ROOT
HETATM    1  O1  MIQ B 502      -2.607 -24.122  12.483  1.00142.91    -0.171 OA
HETATM    2  C2  MIQ B 502      -2.137 -22.929  11.928  1.00141.17     0.195 A 
HETATM    3  C3  MIQ B 502      -1.408 -21.780  12.694  1.00141.71     0.035 A 
HETATM    4  C4  MIQ B 502      -1.010 -21.592  14.110  1.00142.86     0.046 A 
HETATM    5  C5  MIQ B 502      -0.340 -20.409  14.514  1.00139.53     0.031 A 
HETATM    6  C12 MIQ B 502      -0.042 -19.376  13.533  1.00139.38     0.030 A 
HETATM    7  C13 MIQ B 502      -0.422 -19.557  12.176  1.00141.18     0.019 A 
HETATM    8  C14 MIQ B 502      -1.123 -20.802  11.756  1.00138.77     0.033 A 
HETATM    9  C15 MIQ B 502      -1.678 -21.346  10.400  1.00142.10     0.195 A 
HETATM   10  N17 MIQ B 502      -2.203 -22.530  10.669  1.00139.42    -0.288 N 
HETATM   11  O16 MIQ B 502      -1.630 -20.707   9.160  1.00148.93    -0.171 OA
ENDROOT
BRANCH  10  12
HETATM   12  C18 MIQ B 502      -2.833 -23.332   9.637  1.00139.82     0.187 C 
HETATM   13  C19 MIQ B 502      -1.824 -23.501   8.494  1.00140.06     0.247 C 
HETATM   14  O25 MIQ B 502      -0.734 -23.878   8.740  1.00143.95    -0.271 OA
HETATM   15  N20 MIQ B 502      -2.175 -23.215   7.118  1.00140.02    -0.296 N 
HETATM   16  H13 MIQ B 502      -1.505 -23.323   6.382  1.00142.77     0.171 HD
HETATM   17  C21 MIQ B 502      -3.509 -22.746   6.845  1.00142.22     0.224 C 
HETATM   18  C22 MIQ B 502      -4.156 -21.879   7.906  1.00139.52     0.106 C 
HETATM   19  O24 MIQ B 502      -4.070 -23.030   5.844  1.00146.13    -0.273 OA
HETATM   20  C23 MIQ B 502      -4.145 -22.687   9.191  1.00139.15     0.045 C 
ENDBRANCH  10  12
BRANCH   5  21
HETATM   21  N6  MIQ B 502       0.031 -20.232  15.906  1.00140.95    -0.377 N 
HETATM   22  C7  MIQ B 502       0.965 -21.171  16.502  1.00142.12     0.149 C 
HETATM   23  C8  MIQ B 502       0.774 -21.285  18.009  1.00144.10     0.187 C 
HETATM   24  O9  MIQ B 502       0.691 -20.043  18.642  1.00148.65    -0.388 OA
HETATM   25  C10 MIQ B 502       0.566 -18.873  17.890  1.00147.44     0.187 C 
HETATM   26  C11 MIQ B 502      -0.155 -18.941  16.547  1.00144.08     0.149 C 
ENDBRANCH   5  21
TORSDOF 2
ENDMDL
