MODEL 1
REMARK VINA RESULT:      -6.5      0.000      0.000
REMARK  2 active torsions:
REMARK  status: ('A' for Active; 'I' for Inactive)
REMARK    1  A    between atoms: C5_5  and  N6_21 
REMARK    2  A    between atoms: C18_14  and  N17_19 
ROOT
HETATM    1  O1  MIQ B 502      -2.308  10.853  12.570  1.00142.91    -0.171 OA
HETATM    2  C2  MIQ B 502      -2.074  12.015  13.308  1.00141.17     0.195 A 
HETATM    3  C3  MIQ B 502      -1.783  12.091  14.841  1.00141.71     0.035 A 
HETATM    4  C4  MIQ B 502      -1.667  11.068  15.908  1.00142.86     0.046 A 
HETATM    5  C5  MIQ B 502      -1.386  11.454  17.243  1.00139.53     0.031 A 
HETATM    6  C12 MIQ B 502      -1.209  12.863  17.566  1.00139.38     0.030 A 
HETATM    7  C13 MIQ B 502      -1.320  13.843  16.543  1.00141.18     0.019 A 
HETATM    8  C14 MIQ B 502      -1.613  13.432  15.143  1.00138.77     0.033 A 
HETATM    9  C15 MIQ B 502      -1.798  14.193  13.790  1.00142.10     0.195 A 
HETATM   10  N17 MIQ B 502      -2.044  13.266  12.880  1.00139.42    -0.288 N 
HETATM   11  O16 MIQ B 502      -1.723  15.573  13.590  1.00148.93    -0.171 OA
ENDROOT
BRANCH  10  12
HETATM   12  C18 MIQ B 502      -2.287  13.612  11.492  1.00139.82     0.187 C 
HETATM   13  C19 MIQ B 502      -3.616  12.969  11.075  1.00140.06     0.247 C 
HETATM   14  O25 MIQ B 502      -4.572  13.137  11.745  1.00143.95    -0.271 OA
HETATM   15  N20 MIQ B 502      -3.732  12.164   9.876  1.00140.02    -0.296 N 
HETATM   16  H13 MIQ B 502      -4.603  11.744   9.619  1.00142.77     0.171 HD
HETATM   17  C21 MIQ B 502      -2.548  11.964   9.081  1.00142.22     0.224 C 
HETATM   18  C22 MIQ B 502      -1.230  11.889   9.827  1.00139.52     0.106 C 
HETATM   19  O24 MIQ B 502      -2.603  11.870   7.904  1.00146.13    -0.273 OA
HETATM   20  C23 MIQ B 502      -1.109  13.177  10.621  1.00139.15     0.045 C 
ENDBRANCH  10  12
BRANCH   5  21
HETATM   21  N6  MIQ B 502      -1.289  10.443  18.280  1.00140.95    -0.377 N 
HETATM   22  C7  MIQ B 502      -1.173   9.050  17.884  1.00142.12     0.149 C 
HETATM   23  C8  MIQ B 502      -1.716   8.109  18.951  1.00144.10     0.187 C 
HETATM   24  O9  MIQ B 502      -1.243   8.407  20.231  1.00148.65    -0.388 OA
HETATM   25  C10 MIQ B 502      -0.544   9.593  20.468  1.00147.44     0.187 C 
HETATM   26  C11 MIQ B 502      -0.875  10.817  19.621  1.00144.08     0.149 C 
ENDBRANCH   5  21
TORSDOF 2
ENDMDL
MODEL 2
REMARK VINA RESULT:      -6.5      3.012      5.603
REMARK  2 active torsions:
REMARK  status: ('A' for Active; 'I' for Inactive)
REMARK    1  A    between atoms: C5_5  and  N6_21 
REMARK    2  A    between atoms: C18_14  and  N17_19 
ROOT
HETATM    1  O1  MIQ B 502      -4.369  15.205   9.245  1.00142.91    -0.171 OA
HETATM    2  C2  MIQ B 502      -3.903  13.901   9.059  1.00141.17     0.195 A 
HETATM    3  C3  MIQ B 502      -3.370  12.945  10.173  1.00141.71     0.035 A 
HETATM    4  C4  MIQ B 502      -3.201  13.083  11.639  1.00142.86     0.046 A 
HETATM    5  C5  MIQ B 502      -2.678  12.010  12.405  1.00139.53     0.031 A 
HETATM    6  C12 MIQ B 502      -2.305  10.767  11.745  1.00139.38     0.030 A 
HETATM    7  C13 MIQ B 502      -2.467  10.634  10.340  1.00141.18     0.019 A 
HETATM    8  C14 MIQ B 502      -3.019  11.763   9.542  1.00138.77     0.033 A 
HETATM    9  C15 MIQ B 502      -3.338  11.986   8.027  1.00142.10     0.195 A 
HETATM   10  N17 MIQ B 502      -3.820  13.214   7.933  1.00139.42    -0.288 N 
HETATM   11  O16 MIQ B 502      -3.147  11.072   6.990  1.00148.93    -0.171 OA
ENDROOT
BRANCH  10  12
HETATM   12  C18 MIQ B 502      -4.213  13.777   6.655  1.00139.82     0.187 C 
HETATM   13  C19 MIQ B 502      -5.043  12.721   5.914  1.00140.06     0.247 C 
HETATM   14  O25 MIQ B 502      -5.950  12.209   6.468  1.00143.95    -0.271 OA
HETATM   15  N20 MIQ B 502      -4.748  12.337   4.549  1.00140.02    -0.296 N 
HETATM   16  H13 MIQ B 502      -5.293  11.641   4.079  1.00142.77     0.171 HD
HETATM   17  C21 MIQ B 502      -3.629  12.968   3.898  1.00142.22     0.224 C 
HETATM   18  C22 MIQ B 502      -2.446  13.331   4.774  1.00139.52     0.106 C 
HETATM   19  O24 MIQ B 502      -3.638  13.197   2.738  1.00146.13    -0.273 OA
HETATM   20  C23 MIQ B 502      -2.982  14.232   5.872  1.00139.15     0.045 C 
ENDBRANCH  10  12
BRANCH   5  21
HETATM   21  N6  MIQ B 502      -2.505  12.164  13.838  1.00140.95    -0.377 N 
HETATM   22  C7  MIQ B 502      -2.550  10.977  14.674  1.00142.12     0.149 C 
HETATM   23  C8  MIQ B 502      -2.998  11.299  16.094  1.00144.10     0.187 C 
HETATM   24  O9  MIQ B 502      -2.322  12.390  16.643  1.00148.65    -0.388 OA
HETATM   25  C10 MIQ B 502      -1.510  13.196  15.840  1.00147.44     0.187 C 
HETATM   26  C11 MIQ B 502      -1.871  13.358  14.368  1.00144.08     0.149 C 
ENDBRANCH   5  21
TORSDOF 2
ENDMDL
MODEL 3
REMARK VINA RESULT:      -6.4      3.568      9.821
REMARK  2 active torsions:
REMARK  status: ('A' for Active; 'I' for Inactive)
REMARK    1  A    between atoms: C5_5  and  N6_21 
REMARK    2  A    between atoms: C18_14  and  N17_19 
ROOT
HETATM    1  O1  MIQ B 502      -3.092  15.728  10.512  1.00142.91    -0.171 OA
HETATM    2  C2  MIQ B 502      -3.096  14.348  10.299  1.00141.17     0.195 A 
HETATM    3  C3  MIQ B 502      -3.603  13.614   9.016  1.00141.71     0.035 A 
HETATM    4  C4  MIQ B 502      -4.183  14.084   7.736  1.00142.86     0.046 A 
HETATM    5  C5  MIQ B 502      -4.555  13.154   6.733  1.00139.53     0.031 A 
HETATM    6  C12 MIQ B 502      -4.366  11.729   6.964  1.00139.38     0.030 A 
HETATM    7  C13 MIQ B 502      -3.810  11.278   8.191  1.00141.18     0.019 A 
HETATM    8  C14 MIQ B 502      -3.418  12.260   9.239  1.00138.77     0.033 A 
HETATM    9  C15 MIQ B 502      -2.792  12.152  10.668  1.00142.10     0.195 A 
HETATM   10  N17 MIQ B 502      -2.679  13.393  11.112  1.00139.42    -0.288 N 
HETATM   11  O16 MIQ B 502      -2.431  10.980  11.336  1.00148.93    -0.171 OA
ENDROOT
BRANCH  10  12
HETATM   12  C18 MIQ B 502      -2.143  13.680  12.429  1.00139.82     0.187 C 
HETATM   13  C19 MIQ B 502      -0.786  12.974  12.547  1.00140.06     0.247 C 
HETATM   14  O25 MIQ B 502       0.020  13.132  11.700  1.00143.95    -0.271 OA
HETATM   15  N20 MIQ B 502      -0.463  12.123  13.673  1.00140.02    -0.296 N 
HETATM   16  H13 MIQ B 502       0.424  11.663  13.735  1.00142.77     0.171 HD
HETATM   17  C21 MIQ B 502      -1.467  11.938  14.689  1.00142.22     0.224 C 
HETATM   18  C22 MIQ B 502      -2.912  11.937  14.226  1.00139.52     0.106 C 
HETATM   19  O24 MIQ B 502      -1.178  11.799  15.826  1.00146.13    -0.273 OA
HETATM   20  C23 MIQ B 502      -3.136  13.256  13.511  1.00139.15     0.045 C 
ENDBRANCH  10  12
BRANCH   5  21
HETATM   21  N6  MIQ B 502      -5.136  13.627   5.490  1.00140.95    -0.377 N 
HETATM   22  C7  MIQ B 502      -5.669  14.978   5.442  1.00142.12     0.149 C 
HETATM   23  C8  MIQ B 502      -6.765  15.120   4.394  1.00144.10     0.187 C 
HETATM   24  O9  MIQ B 502      -6.410  14.574   3.159  1.00148.65    -0.388 OA
HETATM   25  C10 MIQ B 502      -5.259  13.792   3.035  1.00147.44     0.187 C 
HETATM   26  C11 MIQ B 502      -4.802  12.972   4.237  1.00144.08     0.149 C 
ENDBRANCH   5  21
TORSDOF 2
ENDMDL
MODEL 4
REMARK VINA RESULT:      -6.3      2.261      7.952
REMARK  2 active torsions:
REMARK  status: ('A' for Active; 'I' for Inactive)
REMARK    1  A    between atoms: C5_5  and  N6_21 
REMARK    2  A    between atoms: C18_14  and  N17_19 
ROOT
HETATM    1  O1  MIQ B 502      -3.312   9.266  16.658  1.00142.91    -0.171 OA
HETATM    2  C2  MIQ B 502      -2.734  10.528  16.815  1.00141.17     0.195 A 
HETATM    3  C3  MIQ B 502      -2.253  11.471  15.666  1.00141.71     0.035 A 
HETATM    4  C4  MIQ B 502      -2.252  11.358  14.188  1.00142.86     0.046 A 
HETATM    5  C5  MIQ B 502      -1.735  12.410  13.390  1.00139.53     0.031 A 
HETATM    6  C12 MIQ B 502      -1.204  13.607  14.026  1.00139.38     0.030 A 
HETATM    7  C13 MIQ B 502      -1.206  13.716  15.443  1.00141.18     0.019 A 
HETATM    8  C14 MIQ B 502      -1.752  12.609  16.276  1.00138.77     0.033 A 
HETATM    9  C15 MIQ B 502      -1.923  12.372  17.812  1.00142.10     0.195 A 
HETATM   10  N17 MIQ B 502      -2.481  11.179  17.937  1.00139.42    -0.288 N 
HETATM   11  O16 MIQ B 502      -1.557  13.244  18.839  1.00148.93    -0.171 OA
ENDROOT
BRANCH  10  12
HETATM   12  C18 MIQ B 502      -2.778  10.615  19.241  1.00139.82     0.187 C 
HETATM   13  C19 MIQ B 502      -2.135   9.224  19.305  1.00140.06     0.247 C 
HETATM   14  O25 MIQ B 502      -0.997   9.101  19.021  1.00143.95    -0.271 OA
HETATM   15  N20 MIQ B 502      -2.886   8.053  19.711  1.00140.02    -0.296 N 
HETATM   16  H13 MIQ B 502      -2.456   7.150  19.743  1.00142.77     0.171 HD
HETATM   17  C21 MIQ B 502      -4.276   8.226  20.044  1.00142.22     0.224 C 
HETATM   18  C22 MIQ B 502      -5.035   9.287  19.270  1.00139.52     0.106 C 
HETATM   19  O24 MIQ B 502      -4.797   7.575  20.882  1.00146.13    -0.273 OA
HETATM   20  C23 MIQ B 502      -4.286  10.591  19.480  1.00139.15     0.045 C 
ENDBRANCH  10  12
BRANCH   5  21
HETATM   21  N6  MIQ B 502      -1.726  12.280  11.944  1.00140.95    -0.377 N 
HETATM   22  C7  MIQ B 502      -0.673  12.942  11.193  1.00142.12     0.149 C 
HETATM   23  C8  MIQ B 502      -1.111  13.274   9.773  1.00144.10     0.187 C 
HETATM   24  O9  MIQ B 502      -1.719  12.197   9.125  1.00148.65    -0.388 OA
HETATM   25  C10 MIQ B 502      -2.069  11.048   9.839  1.00147.44     0.187 C 
HETATM   26  C11 MIQ B 502      -2.446  11.190  11.310  1.00144.08     0.149 C 
ENDBRANCH   5  21
TORSDOF 2
ENDMDL
MODEL 5
REMARK VINA RESULT:      -6.2      1.878      2.497
REMARK  2 active torsions:
REMARK  status: ('A' for Active; 'I' for Inactive)
REMARK    1  A    between atoms: C5_5  and  N6_21 
REMARK    2  A    between atoms: C18_14  and  N17_19 
ROOT
HETATM    1  O1  MIQ B 502      -2.637   9.821  11.335  1.00142.91    -0.171 OA
HETATM    2  C2  MIQ B 502      -2.336  11.112  11.775  1.00141.17     0.195 A 
HETATM    3  C3  MIQ B 502      -2.147  11.560  13.259  1.00141.71     0.035 A 
HETATM    4  C4  MIQ B 502      -2.213  10.844  14.555  1.00142.86     0.046 A 
HETATM    5  C5  MIQ B 502      -1.988  11.540  15.770  1.00139.53     0.031 A 
HETATM    6  C12 MIQ B 502      -1.690  12.965  15.743  1.00139.38     0.030 A 
HETATM    7  C13 MIQ B 502      -1.626  13.651  14.500  1.00141.18     0.019 A 
HETATM    8  C14 MIQ B 502      -1.861  12.915  13.228  1.00138.77     0.033 A 
HETATM    9  C15 MIQ B 502      -1.871  13.310  11.715  1.00142.10     0.195 A 
HETATM   10  N17 MIQ B 502      -2.147  12.201  11.049  1.00139.42    -0.288 N 
HETATM   11  O16 MIQ B 502      -1.639  14.579  11.181  1.00148.93    -0.171 OA
ENDROOT
BRANCH  10  12
HETATM   12  C18 MIQ B 502      -2.255  12.193   9.602  1.00139.82     0.187 C 
HETATM   13  C19 MIQ B 502      -1.017  12.900   9.037  1.00140.06     0.247 C 
HETATM   14  O25 MIQ B 502       0.054  12.565   9.400  1.00143.95    -0.271 OA
HETATM   15  N20 MIQ B 502      -1.125  13.967   8.063  1.00140.02    -0.296 N 
HETATM   16  H13 MIQ B 502      -0.309  14.425   7.706  1.00142.77     0.171 HD
HETATM   17  C21 MIQ B 502      -2.444  14.365   7.642  1.00142.22     0.224 C 
HETATM   18  C22 MIQ B 502      -3.545  14.277   8.681  1.00139.52     0.106 C 
HETATM   19  O24 MIQ B 502      -2.655  14.737   6.541  1.00146.13    -0.273 OA
HETATM   20  C23 MIQ B 502      -3.568  12.838   9.163  1.00139.15     0.045 C 
ENDBRANCH  10  12
BRANCH   5  21
HETATM   21  N6  MIQ B 502      -2.070  10.830  17.033  1.00140.95    -0.377 N 
HETATM   22  C7  MIQ B 502      -2.859   9.611  17.095  1.00142.12     0.149 C 
HETATM   23  C8  MIQ B 502      -3.385   9.345  18.500  1.00144.10     0.187 C 
HETATM   24  O9  MIQ B 502      -2.400   9.469  19.482  1.00148.65    -0.388 OA
HETATM   25  C10 MIQ B 502      -1.151  10.010  19.167  1.00147.44     0.187 C 
HETATM   26  C11 MIQ B 502      -1.068  11.056  18.060  1.00144.08     0.149 C 
ENDBRANCH   5  21
TORSDOF 2
ENDMDL
MODEL 6
REMARK VINA RESULT:      -6.2     24.225     25.685
REMARK  2 active torsions:
REMARK  status: ('A' for Active; 'I' for Inactive)
REMARK    1  A    between atoms: C5_5  and  N6_21 
REMARK    2  A    between atoms: C18_14  and  N17_19 
ROOT
HETATM    1  O1  MIQ B 502     -23.696   5.667   4.049  1.00142.91    -0.171 OA
HETATM    2  C2  MIQ B 502     -23.527   4.432   3.419  1.00141.17     0.195 A 
HETATM    3  C3  MIQ B 502     -23.538   3.033   4.114  1.00141.71     0.035 A 
HETATM    4  C4  MIQ B 502     -23.714   2.594   5.518  1.00142.86     0.046 A 
HETATM    5  C5  MIQ B 502     -23.674   1.216   5.849  1.00139.53     0.031 A 
HETATM    6  C12 MIQ B 502     -23.460   0.228   4.802  1.00139.38     0.030 A 
HETATM    7  C13 MIQ B 502     -23.291   0.648   3.455  1.00141.18     0.019 A 
HETATM    8  C14 MIQ B 502     -23.337   2.096   3.113  1.00138.77     0.033 A 
HETATM    9  C15 MIQ B 502     -23.201   2.918   1.790  1.00142.10     0.195 A 
HETATM   10  N17 MIQ B 502     -23.333   4.189   2.134  1.00139.42    -0.288 N 
HETATM   11  O16 MIQ B 502     -22.983   2.409   0.509  1.00148.93    -0.171 OA
ENDROOT
BRANCH  10  12
HETATM   12  C18 MIQ B 502     -23.246   5.253   1.151  1.00139.82     0.187 C 
HETATM   13  C19 MIQ B 502     -22.231   6.281   1.664  1.00140.06     0.247 C 
HETATM   14  O25 MIQ B 502     -21.165   5.915   2.012  1.00143.95    -0.271 OA
HETATM   15  N20 MIQ B 502     -22.542   7.695   1.729  1.00140.02    -0.296 N 
HETATM   16  H13 MIQ B 502     -21.873   8.355   2.072  1.00142.77     0.171 HD
HETATM   17  C21 MIQ B 502     -23.853   8.116   1.309  1.00142.22     0.224 C 
HETATM   18  C22 MIQ B 502     -24.996   7.155   1.574  1.00139.52     0.106 C 
HETATM   19  O24 MIQ B 502     -24.027   9.159   0.780  1.00146.13    -0.273 OA
HETATM   20  C23 MIQ B 502     -24.628   5.850   0.891  1.00139.15     0.045 C 
ENDBRANCH  10  12
BRANCH   5  21
HETATM   21  N6  MIQ B 502     -23.834   0.801   7.231  1.00140.95    -0.377 N 
HETATM   22  C7  MIQ B 502     -23.686   1.799   8.277  1.00142.12     0.149 C 
HETATM   23  C8  MIQ B 502     -23.239   1.179   9.594  1.00144.10     0.187 C 
HETATM   24  O9  MIQ B 502     -23.984   0.052   9.945  1.00148.65    -0.388 OA
HETATM   25  C10 MIQ B 502     -24.867  -0.526   9.030  1.00147.44     0.187 C 
HETATM   26  C11 MIQ B 502     -24.544  -0.427   7.542  1.00144.08     0.149 C 
ENDBRANCH   5  21
TORSDOF 2
ENDMDL
MODEL 7
REMARK VINA RESULT:      -6.1      2.671      4.018
REMARK  2 active torsions:
REMARK  status: ('A' for Active; 'I' for Inactive)
REMARK    1  A    between atoms: C5_5  and  N6_21 
REMARK    2  A    between atoms: C18_14  and  N17_19 
ROOT
HETATM    1  O1  MIQ B 502      -1.366  14.559  11.429  1.00142.91    -0.171 OA
HETATM    2  C2  MIQ B 502      -1.673  13.325  12.007  1.00141.17     0.195 A 
HETATM    3  C3  MIQ B 502      -1.680  12.999  13.535  1.00141.71     0.035 A 
HETATM    4  C4  MIQ B 502      -1.398  13.801  14.749  1.00142.86     0.046 A 
HETATM    5  C5  MIQ B 502      -1.491  13.211  16.035  1.00139.53     0.031 A 
HETATM    6  C12 MIQ B 502      -1.866  11.810  16.162  1.00139.38     0.030 A 
HETATM    7  C13 MIQ B 502      -2.138  11.041  14.998  1.00141.18     0.019 A 
HETATM    8  C14 MIQ B 502      -2.041  11.667  13.651  1.00138.77     0.033 A 
HETATM    9  C15 MIQ B 502      -2.260  11.163  12.187  1.00142.10     0.195 A 
HETATM   10  N17 MIQ B 502      -2.019  12.201  11.404  1.00139.42    -0.288 N 
HETATM   11  O16 MIQ B 502      -2.631   9.876  11.793  1.00148.93    -0.171 OA
ENDROOT
BRANCH  10  12
HETATM   12  C18 MIQ B 502      -2.111  12.097   9.959  1.00139.82     0.187 C 
HETATM   13  C19 MIQ B 502      -0.815  12.664   9.366  1.00140.06     0.247 C 
HETATM   14  O25 MIQ B 502       0.222  12.273   9.770  1.00143.95    -0.271 OA
HETATM   15  N20 MIQ B 502      -0.828  13.663   8.317  1.00140.02    -0.296 N 
HETATM   16  H13 MIQ B 502       0.025  14.029   7.943  1.00142.77     0.171 HD
HETATM   17  C21 MIQ B 502      -2.106  14.131   7.847  1.00142.22     0.224 C 
HETATM   18  C22 MIQ B 502      -3.223  14.204   8.871  1.00139.52     0.106 C 
HETATM   19  O24 MIQ B 502      -2.275  14.438   6.719  1.00146.13    -0.273 OA
HETATM   20  C23 MIQ B 502      -3.365  12.809   9.454  1.00139.15     0.045 C 
ENDBRANCH  10  12
BRANCH   5  21
HETATM   21  N6  MIQ B 502      -1.197  14.004  17.215  1.00140.95    -0.377 N 
HETATM   22  C7  MIQ B 502      -1.095  15.446  17.075  1.00142.12     0.149 C 
HETATM   23  C8  MIQ B 502      -0.194  16.059  18.140  1.00144.10     0.187 C 
HETATM   24  O9  MIQ B 502      -0.488  15.604  19.427  1.00148.65    -0.388 OA
HETATM   25  C10 MIQ B 502      -1.362  14.530  19.616  1.00147.44     0.187 C 
HETATM   26  C11 MIQ B 502      -1.439  13.454  18.537  1.00144.08     0.149 C 
ENDBRANCH   5  21
TORSDOF 2
ENDMDL
MODEL 8
REMARK VINA RESULT:      -5.9      4.454     10.901
REMARK  2 active torsions:
REMARK  status: ('A' for Active; 'I' for Inactive)
REMARK    1  A    between atoms: C5_5  and  N6_21 
REMARK    2  A    between atoms: C18_14  and  N17_19 
ROOT
HETATM    1  O1  MIQ B 502      -2.033  15.552   8.312  1.00142.91    -0.171 OA
HETATM    2  C2  MIQ B 502      -2.703  14.326   8.312  1.00141.17     0.195 A 
HETATM    3  C3  MIQ B 502      -3.534  13.729   7.132  1.00141.71     0.035 A 
HETATM    4  C4  MIQ B 502      -3.854  14.208   5.766  1.00142.86     0.046 A 
HETATM    5  C5  MIQ B 502      -4.654  13.421   4.900  1.00139.53     0.031 A 
HETATM    6  C12 MIQ B 502      -5.163  12.135   5.356  1.00139.38     0.030 A 
HETATM    7  C13 MIQ B 502      -4.856  11.676   6.665  1.00141.18     0.019 A 
HETATM    8  C14 MIQ B 502      -4.014  12.505   7.569  1.00138.77     0.033 A 
HETATM    9  C15 MIQ B 502      -3.477  12.341   9.028  1.00142.10     0.195 A 
HETATM   10  N17 MIQ B 502      -2.771  13.431   9.282  1.00139.42    -0.288 N 
HETATM   11  O16 MIQ B 502      -3.702  11.262   9.885  1.00148.93    -0.171 OA
ENDROOT
BRANCH  10  12
HETATM   12  C18 MIQ B 502      -2.127  13.633  10.566  1.00139.82     0.187 C 
HETATM   13  C19 MIQ B 502      -1.316  12.372  10.888  1.00140.06     0.247 C 
HETATM   14  O25 MIQ B 502      -0.566  11.949  10.081  1.00143.95    -0.271 OA
HETATM   15  N20 MIQ B 502      -1.440  11.687  12.158  1.00140.02    -0.296 N 
HETATM   16  H13 MIQ B 502      -0.909  10.861  12.353  1.00142.77     0.171 HD
HETATM   17  C21 MIQ B 502      -2.369  12.217  13.122  1.00142.22     0.224 C 
HETATM   18  C22 MIQ B 502      -3.625  12.866  12.572  1.00139.52     0.106 C 
HETATM   19  O24 MIQ B 502      -2.159  12.153  14.283  1.00146.13    -0.273 OA
HETATM   20  C23 MIQ B 502      -3.166  13.968  11.635  1.00139.15     0.045 C 
ENDBRANCH  10  12
BRANCH   5  21
HETATM   21  N6  MIQ B 502      -4.971  13.909   3.570  1.00140.95    -0.377 N 
HETATM   22  C7  MIQ B 502      -6.192  14.674   3.384  1.00142.12     0.149 C 
HETATM   23  C8  MIQ B 502      -6.722  14.562   1.960  1.00144.10     0.187 C 
HETATM   24  O9  MIQ B 502      -5.735  14.769   0.995  1.00148.65    -0.388 OA
HETATM   25  C10 MIQ B 502      -4.388  14.830   1.362  1.00147.44     0.187 C 
HETATM   26  C11 MIQ B 502      -3.924  14.025   2.571  1.00144.08     0.149 C 
ENDBRANCH   5  21
TORSDOF 2
ENDMDL
MODEL 9
REMARK VINA RESULT:      -5.8     10.979     14.505
REMARK  2 active torsions:
REMARK  status: ('A' for Active; 'I' for Inactive)
REMARK    1  A    between atoms: C5_5  and  N6_21 
REMARK    2  A    between atoms: C18_14  and  N17_19 
ROOT
HETATM    1  O1  MIQ B 502     -13.141  17.233   4.241  1.00142.91    -0.171 OA
HETATM    2  C2  MIQ B 502     -11.869  16.721   3.973  1.00141.17     0.195 A 
HETATM    3  C3  MIQ B 502     -10.710  16.546   5.004  1.00141.71     0.035 A 
HETATM    4  C4  MIQ B 502     -10.583  16.829   6.453  1.00142.86     0.046 A 
HETATM    5  C5  MIQ B 502      -9.371  16.553   7.134  1.00139.53     0.031 A 
HETATM    6  C12 MIQ B 502      -8.244  15.989   6.405  1.00139.38     0.030 A 
HETATM    7  C13 MIQ B 502      -8.365  15.717   5.015  1.00141.18     0.019 A 
HETATM    8  C14 MIQ B 502      -9.642  16.006   4.306  1.00138.77     0.033 A 
HETATM    9  C15 MIQ B 502     -10.141  15.845   2.833  1.00142.10     0.195 A 
HETATM   10  N17 MIQ B 502     -11.390  16.283   2.821  1.00139.42    -0.288 N 
HETATM   11  O16 MIQ B 502      -9.413  15.342   1.754  1.00148.93    -0.171 OA
ENDROOT
BRANCH  10  12
HETATM   12  C18 MIQ B 502     -12.175  16.298   1.602  1.00139.82     0.187 C 
HETATM   13  C19 MIQ B 502     -12.704  17.724   1.403  1.00140.06     0.247 C 
HETATM   14  O25 MIQ B 502     -11.950  18.630   1.453  1.00143.95    -0.271 OA
HETATM   15  N20 MIQ B 502     -14.105  17.991   1.151  1.00140.02    -0.296 N 
HETATM   16  H13 MIQ B 502     -14.438  18.927   1.030  1.00142.77     0.171 HD
HETATM   17  C21 MIQ B 502     -15.008  16.870   1.106  1.00142.22     0.224 C 
HETATM   18  C22 MIQ B 502     -14.691  15.702   2.021  1.00139.52     0.106 C 
HETATM   19  O24 MIQ B 502     -15.945  16.860   0.386  1.00146.13    -0.273 OA
HETATM   20  C23 MIQ B 502     -13.285  15.250   1.671  1.00139.15     0.045 C 
ENDBRANCH  10  12
BRANCH   5  21
HETATM   21  N6  MIQ B 502      -9.256  16.849   8.551  1.00140.95    -0.377 N 
HETATM   22  C7  MIQ B 502      -8.031  17.462   9.036  1.00142.12     0.149 C 
HETATM   23  C8  MIQ B 502      -7.772  17.132  10.500  1.00144.10     0.187 C 
HETATM   24  O9  MIQ B 502      -8.895  17.324  11.308  1.00148.65    -0.388 OA
HETATM   25  C10 MIQ B 502     -10.146  17.562  10.734  1.00147.44     0.187 C 
HETATM   26  C11 MIQ B 502     -10.452  16.954   9.369  1.00144.08     0.149 C 
ENDBRANCH   5  21
TORSDOF 2
ENDMDL
