MODEL 1
REMARK VINA RESULT:      -6.9      0.000      0.000
REMARK  2 active torsions:
REMARK  status: ('A' for Active; 'I' for Inactive)
REMARK    1  A    between atoms: C5_5  and  N6_21 
REMARK    2  A    between atoms: C18_14  and  N17_19 
ROOT
HETATM    1  O1  MIQ B 502     -13.273  -7.125  -4.328  1.00142.91    -0.171 OA
HETATM    2  C2  MIQ B 502     -14.469  -7.398  -3.659  1.00141.17     0.195 A 
HETATM    3  C3  MIQ B 502     -15.042  -6.612  -2.437  1.00141.71     0.035 A 
HETATM    4  C4  MIQ B 502     -14.566  -5.441  -1.664  1.00142.86     0.046 A 
HETATM    5  C5  MIQ B 502     -15.327  -4.941  -0.577  1.00139.53     0.031 A 
HETATM    6  C12 MIQ B 502     -16.584  -5.583  -0.220  1.00139.38     0.030 A 
HETATM    7  C13 MIQ B 502     -17.042  -6.706  -0.962  1.00141.18     0.019 A 
HETATM    8  C14 MIQ B 502     -16.239  -7.224  -2.103  1.00138.77     0.033 A 
HETATM    9  C15 MIQ B 502     -16.410  -8.396  -3.124  1.00142.10     0.195 A 
HETATM   10  N17 MIQ B 502     -15.350  -8.350  -3.913  1.00139.42    -0.288 N 
HETATM   11  O16 MIQ B 502     -17.469  -9.305  -3.184  1.00148.93    -0.171 OA
ENDROOT
BRANCH  10  12
HETATM   12  C18 MIQ B 502     -15.160  -9.311  -4.984  1.00139.82     0.187 C 
HETATM   13  C19 MIQ B 502     -13.811 -10.003  -4.758  1.00140.06     0.247 C 
HETATM   14  O25 MIQ B 502     -13.572 -10.469  -3.701  1.00143.95    -0.271 OA
HETATM   15  N20 MIQ B 502     -12.820 -10.107  -5.810  1.00140.02    -0.296 N 
HETATM   16  H13 MIQ B 502     -11.940 -10.555  -5.648  1.00142.77     0.171 HD
HETATM   17  C21 MIQ B 502     -13.130  -9.521  -7.088  1.00142.22     0.224 C 
HETATM   18  C22 MIQ B 502     -13.980  -8.265  -7.074  1.00139.52     0.106 C 
HETATM   19  O24 MIQ B 502     -12.745 -10.000  -8.098  1.00146.13    -0.273 OA
HETATM   20  C23 MIQ B 502     -15.262  -8.620  -6.343  1.00139.15     0.045 C 
ENDBRANCH  10  12
BRANCH   5  21
HETATM   21  N6  MIQ B 502     -14.841  -3.803   0.180  1.00140.95    -0.377 N 
HETATM   22  C7  MIQ B 502     -14.411  -2.619  -0.544  1.00142.12     0.149 C 
HETATM   23  C8  MIQ B 502     -13.378  -1.818   0.238  1.00144.10     0.187 C 
HETATM   24  O9  MIQ B 502     -13.749  -1.602   1.566  1.00148.65    -0.388 OA
HETATM   25  C10 MIQ B 502     -14.843  -2.276   2.114  1.00147.44     0.187 C 
HETATM   26  C11 MIQ B 502     -15.183  -3.666   1.585  1.00144.08     0.149 C 
ENDBRANCH   5  21
TORSDOF 2
ENDMDL
MODEL 2
REMARK VINA RESULT:      -6.6      1.762      2.336
REMARK  2 active torsions:
REMARK  status: ('A' for Active; 'I' for Inactive)
REMARK    1  A    between atoms: C5_5  and  N6_21 
REMARK    2  A    between atoms: C18_14  and  N17_19 
ROOT
HETATM    1  O1  MIQ B 502     -13.738  -5.334  -4.229  1.00142.91    -0.171 OA
HETATM    2  C2  MIQ B 502     -14.364  -6.126  -3.264  1.00141.17     0.195 A 
HETATM    3  C3  MIQ B 502     -14.789  -5.671  -1.831  1.00141.71     0.035 A 
HETATM    4  C4  MIQ B 502     -14.686  -4.387  -1.098  1.00142.86     0.046 A 
HETATM    5  C5  MIQ B 502     -15.176  -4.278   0.228  1.00139.53     0.031 A 
HETATM    6  C12 MIQ B 502     -15.785  -5.434   0.871  1.00139.38     0.030 A 
HETATM    7  C13 MIQ B 502     -15.885  -6.664   0.167  1.00141.18     0.019 A 
HETATM    8  C14 MIQ B 502     -15.371  -6.773  -1.225  1.00138.77     0.033 A 
HETATM    9  C15 MIQ B 502     -15.307  -7.918  -2.288  1.00142.10     0.195 A 
HETATM   10  N17 MIQ B 502     -14.726  -7.395  -3.355  1.00139.42    -0.288 N 
HETATM   11  O16 MIQ B 502     -15.769  -9.226  -2.135  1.00148.93    -0.171 OA
ENDROOT
BRANCH  10  12
HETATM   12  C18 MIQ B 502     -14.482  -8.183  -4.548  1.00139.82     0.187 C 
HETATM   13  C19 MIQ B 502     -15.800  -8.867  -4.934  1.00140.06     0.247 C 
HETATM   14  O25 MIQ B 502     -16.780  -8.217  -5.028  1.00143.95    -0.271 OA
HETATM   15  N20 MIQ B 502     -15.875 -10.290  -5.192  1.00140.02    -0.296 N 
HETATM   16  H13 MIQ B 502     -16.742 -10.725  -5.437  1.00142.77     0.171 HD
HETATM   17  C21 MIQ B 502     -14.667 -11.064  -5.061  1.00142.22     0.224 C 
HETATM   18  C22 MIQ B 502     -13.683 -10.616  -3.998  1.00139.52     0.106 C 
HETATM   19  O24 MIQ B 502     -14.454 -11.999  -5.752  1.00146.13    -0.273 OA
HETATM   20  C23 MIQ B 502     -13.340  -9.170  -4.309  1.00139.15     0.045 C 
ENDBRANCH  10  12
BRANCH   5  21
HETATM   21  N6  MIQ B 502     -15.055  -3.019   0.940  1.00140.95    -0.377 N 
HETATM   22  C7  MIQ B 502     -14.978  -3.046   2.390  1.00142.12     0.149 C 
HETATM   23  C8  MIQ B 502     -15.493  -1.754   3.012  1.00144.10     0.187 C 
HETATM   24  O9  MIQ B 502     -14.965  -0.612   2.407  1.00148.65    -0.388 OA
HETATM   25  C10 MIQ B 502     -14.237  -0.713   1.219  1.00147.44     0.187 C 
HETATM   26  C11 MIQ B 502     -14.581  -1.835   0.245  1.00144.08     0.149 C 
ENDBRANCH   5  21
TORSDOF 2
ENDMDL
MODEL 3
REMARK VINA RESULT:      -6.5      3.131      7.972
REMARK  2 active torsions:
REMARK  status: ('A' for Active; 'I' for Inactive)
REMARK    1  A    between atoms: C5_5  and  N6_21 
REMARK    2  A    between atoms: C18_14  and  N17_19 
ROOT
HETATM    1  O1  MIQ B 502     -15.737 -10.478  -1.968  1.00142.91    -0.171 OA
HETATM    2  C2  MIQ B 502     -15.447  -9.173  -2.372  1.00141.17     0.195 A 
HETATM    3  C3  MIQ B 502     -14.750  -8.754  -3.705  1.00141.71     0.035 A 
HETATM    4  C4  MIQ B 502     -14.222  -9.515  -4.863  1.00142.86     0.046 A 
HETATM    5  C5  MIQ B 502     -13.629  -8.836  -5.957  1.00139.53     0.031 A 
HETATM    6  C12 MIQ B 502     -13.538  -7.383  -5.942  1.00139.38     0.030 A 
HETATM    7  C13 MIQ B 502     -14.045  -6.653  -4.833  1.00141.18     0.019 A 
HETATM    8  C14 MIQ B 502     -14.669  -7.371  -3.689  1.00138.77     0.033 A 
HETATM    9  C15 MIQ B 502     -15.321  -6.929  -2.338  1.00142.10     0.195 A 
HETATM   10  N17 MIQ B 502     -15.699  -8.044  -1.734  1.00139.42    -0.288 N 
HETATM   11  O16 MIQ B 502     -15.468  -5.623  -1.868  1.00148.93    -0.171 OA
ENDROOT
BRANCH  10  12
HETATM   12  C18 MIQ B 502     -16.337  -8.019  -0.430  1.00139.82     0.187 C 
HETATM   13  C19 MIQ B 502     -15.584  -9.000   0.477  1.00140.06     0.247 C 
HETATM   14  O25 MIQ B 502     -14.410  -8.923   0.560  1.00143.95    -0.271 OA
HETATM   15  N20 MIQ B 502     -16.276 -10.018   1.242  1.00140.02    -0.296 N 
HETATM   16  H13 MIQ B 502     -15.772 -10.656   1.825  1.00142.77     0.171 HD
HETATM   17  C21 MIQ B 502     -17.708 -10.099   1.116  1.00142.22     0.224 C 
HETATM   18  C22 MIQ B 502     -18.294  -9.748  -0.238  1.00139.52     0.106 C 
HETATM   19  O24 MIQ B 502     -18.392 -10.417   2.026  1.00146.13    -0.273 OA
HETATM   20  C23 MIQ B 502     -17.825  -8.341  -0.560  1.00139.15     0.045 C 
ENDBRANCH  10  12
BRANCH   5  21
HETATM   21  N6  MIQ B 502     -13.103  -9.595  -7.077  1.00140.95    -0.377 N 
HETATM   22  C7  MIQ B 502     -13.261 -11.039  -7.073  1.00142.12     0.149 C 
HETATM   23  C8  MIQ B 502     -12.174 -11.733  -7.884  1.00144.10     0.187 C 
HETATM   24  O9  MIQ B 502     -11.984 -11.157  -9.142  1.00148.65    -0.388 OA
HETATM   25  C10 MIQ B 502     -12.589  -9.939  -9.461  1.00147.44     0.187 C 
HETATM   26  C11 MIQ B 502     -12.839  -8.933  -8.342  1.00144.08     0.149 C 
ENDBRANCH   5  21
TORSDOF 2
ENDMDL
MODEL 4
REMARK VINA RESULT:      -6.4      2.548      8.208
REMARK  2 active torsions:
REMARK  status: ('A' for Active; 'I' for Inactive)
REMARK    1  A    between atoms: C5_5  and  N6_21 
REMARK    2  A    between atoms: C18_14  and  N17_19 
ROOT
HETATM    1  O1  MIQ B 502     -15.283 -10.736  -2.126  1.00142.91    -0.171 OA
HETATM    2  C2  MIQ B 502     -15.126  -9.422  -2.575  1.00141.17     0.195 A 
HETATM    3  C3  MIQ B 502     -14.566  -8.984  -3.966  1.00141.71     0.035 A 
HETATM    4  C4  MIQ B 502     -14.071  -9.730  -5.146  1.00142.86     0.046 A 
HETATM    5  C5  MIQ B 502     -13.616  -9.035  -6.295  1.00139.53     0.031 A 
HETATM    6  C12 MIQ B 502     -13.636  -7.579  -6.314  1.00139.38     0.030 A 
HETATM    7  C13 MIQ B 502     -14.112  -6.863  -5.182  1.00141.18     0.019 A 
HETATM    8  C14 MIQ B 502     -14.590  -7.599  -3.980  1.00138.77     0.033 A 
HETATM    9  C15 MIQ B 502     -15.170  -7.175  -2.591  1.00142.10     0.195 A 
HETATM   10  N17 MIQ B 502     -15.415  -8.300  -1.939  1.00139.42    -0.288 N 
HETATM   11  O16 MIQ B 502     -15.380  -5.873  -2.135  1.00148.93    -0.171 OA
ENDROOT
BRANCH  10  12
HETATM   12  C18 MIQ B 502     -15.952  -8.293  -0.591  1.00139.82     0.187 C 
HETATM   13  C19 MIQ B 502     -17.200  -7.402  -0.589  1.00140.06     0.247 C 
HETATM   14  O25 MIQ B 502     -18.040  -7.586  -1.397  1.00143.95    -0.271 OA
HETATM   15  N20 MIQ B 502     -17.380  -6.342   0.381  1.00140.02    -0.296 N 
HETATM   16  H13 MIQ B 502     -18.196  -5.763   0.368  1.00142.77     0.171 HD
HETATM   17  C21 MIQ B 502     -16.336  -6.130   1.350  1.00142.22     0.224 C 
HETATM   18  C22 MIQ B 502     -14.916  -6.399   0.891  1.00139.52     0.106 C 
HETATM   19  O24 MIQ B 502     -16.577  -5.769   2.450  1.00146.13    -0.273 OA
HETATM   20  C23 MIQ B 502     -14.885  -7.836   0.403  1.00139.15     0.045 C 
ENDBRANCH  10  12
BRANCH   5  21
HETATM   21  N6  MIQ B 502     -13.120  -9.779  -7.439  1.00140.95    -0.377 N 
HETATM   22  C7  MIQ B 502     -12.476  -9.047  -8.517  1.00142.12     0.149 C 
HETATM   23  C8  MIQ B 502     -12.595  -9.777  -9.849  1.00144.10     0.187 C 
HETATM   24  O9  MIQ B 502     -12.258 -11.129  -9.760  1.00148.65    -0.388 OA
HETATM   25  C10 MIQ B 502     -12.072 -11.731  -8.514  1.00147.44     0.187 C 
HETATM   26  C11 MIQ B 502     -12.865 -11.204  -7.322  1.00144.08     0.149 C 
ENDBRANCH   5  21
TORSDOF 2
ENDMDL
MODEL 5
REMARK VINA RESULT:      -6.1      2.360      8.265
REMARK  2 active torsions:
REMARK  status: ('A' for Active; 'I' for Inactive)
REMARK    1  A    between atoms: C5_5  and  N6_21 
REMARK    2  A    between atoms: C18_14  and  N17_19 
ROOT
HETATM    1  O1  MIQ B 502     -15.165  -3.442   0.041  1.00142.91    -0.171 OA
HETATM    2  C2  MIQ B 502     -15.612  -4.735   0.325  1.00141.17     0.195 A 
HETATM    3  C3  MIQ B 502     -15.544  -5.965  -0.634  1.00141.71     0.035 A 
HETATM    4  C4  MIQ B 502     -15.037  -6.155  -2.014  1.00142.86     0.046 A 
HETATM    5  C5  MIQ B 502     -15.114  -7.426  -2.637  1.00139.53     0.031 A 
HETATM    6  C12 MIQ B 502     -15.694  -8.550  -1.917  1.00139.38     0.030 A 
HETATM    7  C13 MIQ B 502     -16.180  -8.369  -0.594  1.00141.18     0.019 A 
HETATM    8  C14 MIQ B 502     -16.095  -7.033   0.056  1.00138.77     0.033 A 
HETATM    9  C15 MIQ B 502     -16.505  -6.462   1.453  1.00142.10     0.195 A 
HETATM   10  N17 MIQ B 502     -16.168  -5.183   1.438  1.00139.42    -0.288 N 
HETATM   11  O16 MIQ B 502     -17.108  -7.163   2.498  1.00148.93    -0.171 OA
ENDROOT
BRANCH  10  12
HETATM   12  C18 MIQ B 502     -16.418  -4.320   2.577  1.00139.82     0.187 C 
HETATM   13  C19 MIQ B 502     -17.216  -3.108   2.081  1.00140.06     0.247 C 
HETATM   14  O25 MIQ B 502     -18.190  -3.284   1.440  1.00143.95    -0.271 OA
HETATM   15  N20 MIQ B 502     -16.810  -1.751   2.382  1.00140.02    -0.296 N 
HETATM   16  H13 MIQ B 502     -17.336  -0.968   2.046  1.00142.77     0.171 HD
HETATM   17  C21 MIQ B 502     -15.611  -1.562   3.158  1.00142.22     0.224 C 
HETATM   18  C22 MIQ B 502     -14.502  -2.575   2.955  1.00139.52     0.106 C 
HETATM   19  O24 MIQ B 502     -15.502  -0.663   3.918  1.00146.13    -0.273 OA
HETATM   20  C23 MIQ B 502     -15.102  -3.937   3.253  1.00139.15     0.045 C 
ENDBRANCH  10  12
BRANCH   5  21
HETATM   21  N6  MIQ B 502     -14.626  -7.594  -3.994  1.00140.95    -0.377 N 
HETATM   22  C7  MIQ B 502     -13.982  -6.467  -4.645  1.00142.12     0.149 C 
HETATM   23  C8  MIQ B 502     -14.110  -6.536  -6.162  1.00144.10     0.187 C 
HETATM   24  O9  MIQ B 502     -13.781  -7.792  -6.678  1.00148.65    -0.388 OA
HETATM   25  C10 MIQ B 502     -13.594  -8.881  -5.823  1.00147.44     0.187 C 
HETATM   26  C11 MIQ B 502     -14.380  -8.927  -4.517  1.00144.08     0.149 C 
ENDBRANCH   5  21
TORSDOF 2
ENDMDL
MODEL 6
REMARK VINA RESULT:      -5.9      2.603      8.089
REMARK  2 active torsions:
REMARK  status: ('A' for Active; 'I' for Inactive)
REMARK    1  A    between atoms: C5_5  and  N6_21 
REMARK    2  A    between atoms: C18_14  and  N17_19 
ROOT
HETATM    1  O1  MIQ B 502     -14.202  -5.521  -3.659  1.00142.91    -0.171 OA
HETATM    2  C2  MIQ B 502     -14.618  -6.786  -3.238  1.00141.17     0.195 A 
HETATM    3  C3  MIQ B 502     -14.402  -8.130  -4.004  1.00141.71     0.035 A 
HETATM    4  C4  MIQ B 502     -13.752  -8.477  -5.290  1.00142.86     0.046 A 
HETATM    5  C5  MIQ B 502     -13.711  -9.823  -5.732  1.00139.53     0.031 A 
HETATM    6  C12 MIQ B 502     -14.310 -10.870  -4.916  1.00139.38     0.030 A 
HETATM    7  C13 MIQ B 502     -14.932 -10.538  -3.683  1.00141.18     0.019 A 
HETATM    8  C14 MIQ B 502     -14.970  -9.123  -3.222  1.00138.77     0.033 A 
HETATM    9  C15 MIQ B 502     -15.541  -8.391  -1.964  1.00142.10     0.195 A 
HETATM   10  N17 MIQ B 502     -15.261  -7.109  -2.129  1.00139.42    -0.288 N 
HETATM   11  O16 MIQ B 502     -16.213  -8.977  -0.890  1.00148.93    -0.171 OA
ENDROOT
BRANCH  10  12
HETATM   12  C18 MIQ B 502     -15.660  -6.115  -1.150  1.00139.82     0.187 C 
HETATM   13  C19 MIQ B 502     -15.061  -6.522   0.201  1.00140.06     0.247 C 
HETATM   14  O25 MIQ B 502     -13.909  -6.770   0.270  1.00143.95    -0.271 OA
HETATM   15  N20 MIQ B 502     -15.869  -6.606   1.401  1.00140.02    -0.296 N 
HETATM   16  H13 MIQ B 502     -15.467  -6.879   2.276  1.00142.77     0.171 HD
HETATM   17  C21 MIQ B 502     -17.274  -6.309   1.290  1.00142.22     0.224 C 
HETATM   18  C22 MIQ B 502     -17.949  -6.687  -0.014  1.00139.52     0.106 C 
HETATM   19  O24 MIQ B 502     -17.867  -5.791   2.171  1.00146.13    -0.273 OA
HETATM   20  C23 MIQ B 502     -17.182  -5.982  -1.118  1.00139.15     0.045 C 
ENDBRANCH  10  12
BRANCH   5  21
HETATM   21  N6  MIQ B 502     -13.085 -10.147  -7.001  1.00140.95    -0.377 N 
HETATM   22  C7  MIQ B 502     -13.196 -11.505  -7.504  1.00142.12     0.149 C 
HETATM   23  C8  MIQ B 502     -12.034 -11.869  -8.419  1.00144.10     0.187 C 
HETATM   24  O9  MIQ B 502     -11.776 -10.894  -9.385  1.00148.65    -0.388 OA
HETATM   25  C10 MIQ B 502     -12.397  -9.645  -9.312  1.00147.44     0.187 C 
HETATM   26  C11 MIQ B 502     -12.756  -9.087  -7.939  1.00144.08     0.149 C 
ENDBRANCH   5  21
TORSDOF 2
ENDMDL
MODEL 7
REMARK VINA RESULT:      -5.9      2.507      8.128
REMARK  2 active torsions:
REMARK  status: ('A' for Active; 'I' for Inactive)
REMARK    1  A    between atoms: C5_5  and  N6_21 
REMARK    2  A    between atoms: C18_14  and  N17_19 
ROOT
HETATM    1  O1  MIQ B 502     -16.417  -9.609  -1.364  1.00142.91    -0.171 OA
HETATM    2  C2  MIQ B 502     -15.870  -8.355  -1.646  1.00141.17     0.195 A 
HETATM    3  C3  MIQ B 502     -15.078  -7.964  -2.934  1.00141.71     0.035 A 
HETATM    4  C4  MIQ B 502     -14.686  -8.708  -4.155  1.00142.86     0.046 A 
HETATM    5  C5  MIQ B 502     -13.949  -8.064  -5.181  1.00139.53     0.031 A 
HETATM    6  C12 MIQ B 502     -13.577  -6.664  -5.034  1.00139.38     0.030 A 
HETATM    7  C13 MIQ B 502     -13.954  -5.950  -3.864  1.00141.18     0.019 A 
HETATM    8  C14 MIQ B 502     -14.729  -6.631  -2.791  1.00138.77     0.033 A 
HETATM    9  C15 MIQ B 502     -15.309  -6.192  -1.407  1.00142.10     0.195 A 
HETATM   10  N17 MIQ B 502     -15.910  -7.259  -0.908  1.00139.42    -0.288 N 
HETATM   11  O16 MIQ B 502     -15.207  -4.929  -0.821  1.00148.93    -0.171 OA
ENDROOT
BRANCH  10  12
HETATM   12  C18 MIQ B 502     -16.556  -7.226   0.391  1.00139.82     0.187 C 
HETATM   13  C19 MIQ B 502     -17.511  -6.026   0.408  1.00140.06     0.247 C 
HETATM   14  O25 MIQ B 502     -18.284  -5.893  -0.473  1.00143.95    -0.271 OA
HETATM   15  N20 MIQ B 502     -17.494  -5.052   1.479  1.00140.02    -0.296 N 
HETATM   16  H13 MIQ B 502     -18.118  -4.269   1.475  1.00142.77     0.171 HD
HETATM   17  C21 MIQ B 502     -16.533  -5.230   2.538  1.00142.22     0.224 C 
HETATM   18  C22 MIQ B 502     -15.200  -5.842   2.152  1.00139.52     0.106 C 
HETATM   19  O24 MIQ B 502     -16.776  -4.919   3.652  1.00146.13    -0.273 OA
HETATM   20  C23 MIQ B 502     -15.511  -7.179   1.504  1.00139.15     0.045 C 
ENDBRANCH  10  12
BRANCH   5  21
HETATM   21  N6  MIQ B 502     -13.559  -8.809  -6.364  1.00140.95    -0.377 N 
HETATM   22  C7  MIQ B 502     -13.717 -10.253  -6.359  1.00142.12     0.149 C 
HETATM   23  C8  MIQ B 502     -12.733 -10.936  -7.301  1.00144.10     0.187 C 
HETATM   24  O9  MIQ B 502     -12.691 -10.344  -8.565  1.00148.65    -0.388 OA
HETATM   25  C10 MIQ B 502     -13.329  -9.122  -8.796  1.00147.44     0.187 C 
HETATM   26  C11 MIQ B 502     -13.445  -8.131  -7.644  1.00144.08     0.149 C 
ENDBRANCH   5  21
TORSDOF 2
ENDMDL
MODEL 8
REMARK VINA RESULT:      -5.9      3.363     10.003
REMARK  2 active torsions:
REMARK  status: ('A' for Active; 'I' for Inactive)
REMARK    1  A    between atoms: C5_5  and  N6_21 
REMARK    2  A    between atoms: C18_14  and  N17_19 
ROOT
HETATM    1  O1  MIQ B 502     -17.067  -3.867   3.931  1.00142.91    -0.171 OA
HETATM    2  C2  MIQ B 502     -16.289  -3.261   2.942  1.00141.17     0.195 A 
HETATM    3  C3  MIQ B 502     -15.714  -3.954   1.666  1.00141.71     0.035 A 
HETATM    4  C4  MIQ B 502     -15.796  -5.335   1.133  1.00142.86     0.046 A 
HETATM    5  C5  MIQ B 502     -15.153  -5.672  -0.085  1.00139.53     0.031 A 
HETATM    6  C12 MIQ B 502     -14.411  -4.655  -0.815  1.00139.38     0.030 A 
HETATM    7  C13 MIQ B 502     -14.334  -3.331  -0.305  1.00141.18     0.019 A 
HETATM    8  C14 MIQ B 502     -15.012  -2.982   0.973  1.00138.77     0.033 A 
HETATM    9  C15 MIQ B 502     -15.152  -1.677   1.823  1.00142.10     0.195 A 
HETATM   10  N17 MIQ B 502     -15.888  -2.003   2.873  1.00139.42    -0.288 N 
HETATM   11  O16 MIQ B 502     -14.607  -0.426   1.530  1.00148.93    -0.171 OA
ENDROOT
BRANCH  10  12
HETATM   12  C18 MIQ B 502     -16.213  -1.031   3.900  1.00139.82     0.187 C 
HETATM   13  C19 MIQ B 502     -15.835  -1.639   5.257  1.00140.06     0.247 C 
HETATM   14  O25 MIQ B 502     -14.756  -2.091   5.404  1.00143.95    -0.271 OA
HETATM   15  N20 MIQ B 502     -16.766  -1.670   6.366  1.00140.02    -0.296 N 
HETATM   16  H13 MIQ B 502     -16.509  -2.076   7.244  1.00142.77     0.171 HD
HETATM   17  C21 MIQ B 502     -18.081  -1.122   6.158  1.00142.22     0.224 C 
HETATM   18  C22 MIQ B 502     -18.671  -1.274   4.769  1.00139.52     0.106 C 
HETATM   19  O24 MIQ B 502     -18.668  -0.575   7.027  1.00146.13    -0.273 OA
HETATM   20  C23 MIQ B 502     -17.686  -0.634   3.809  1.00139.15     0.045 C 
ENDBRANCH  10  12
BRANCH   5  21
HETATM   21  N6  MIQ B 502     -15.228  -7.031  -0.588  1.00140.95    -0.377 N 
HETATM   22  C7  MIQ B 502     -15.581  -8.095   0.336  1.00142.12     0.149 C 
HETATM   23  C8  MIQ B 502     -15.016  -9.440  -0.102  1.00144.10     0.187 C 
HETATM   24  O9  MIQ B 502     -15.255  -9.717  -1.450  1.00148.65    -0.388 OA
HETATM   25  C10 MIQ B 502     -15.752  -8.724  -2.298  1.00147.44     0.187 C 
HETATM   26  C11 MIQ B 502     -15.391  -7.271  -2.011  1.00144.08     0.149 C 
ENDBRANCH   5  21
TORSDOF 2
ENDMDL
MODEL 9
REMARK VINA RESULT:      -5.9      1.623      2.759
REMARK  2 active torsions:
REMARK  status: ('A' for Active; 'I' for Inactive)
REMARK    1  A    between atoms: C5_5  and  N6_21 
REMARK    2  A    between atoms: C18_14  and  N17_19 
ROOT
HETATM    1  O1  MIQ B 502     -17.444  -9.059  -2.900  1.00142.91    -0.171 OA
HETATM    2  C2  MIQ B 502     -16.341  -8.204  -2.941  1.00141.17     0.195 A 
HETATM    3  C3  MIQ B 502     -16.079  -6.991  -1.992  1.00141.71     0.035 A 
HETATM    4  C4  MIQ B 502     -16.829  -6.406  -0.855  1.00142.86     0.046 A 
HETATM    5  C5  MIQ B 502     -16.323  -5.272  -0.170  1.00139.53     0.031 A 
HETATM    6  C12 MIQ B 502     -15.059  -4.681  -0.587  1.00139.38     0.030 A 
HETATM    7  C13 MIQ B 502     -14.339  -5.242  -1.676  1.00141.18     0.019 A 
HETATM    8  C14 MIQ B 502     -14.875  -6.434  -2.390  1.00138.77     0.033 A 
HETATM    9  C15 MIQ B 502     -14.385  -7.307  -3.591  1.00142.10     0.195 A 
HETATM   10  N17 MIQ B 502     -15.307  -8.240  -3.764  1.00139.42    -0.288 N 
HETATM   11  O16 MIQ B 502     -13.214  -7.130  -4.330  1.00148.93    -0.171 OA
ENDROOT
BRANCH  10  12
HETATM   12  C18 MIQ B 502     -15.192  -9.233  -4.815  1.00139.82     0.187 C 
HETATM   13  C19 MIQ B 502     -13.858  -9.966  -4.623  1.00140.06     0.247 C 
HETATM   14  O25 MIQ B 502     -13.595 -10.414  -3.564  1.00143.95    -0.271 OA
HETATM   15  N20 MIQ B 502     -12.913 -10.129  -5.708  1.00140.02    -0.296 N 
HETATM   16  H13 MIQ B 502     -12.043 -10.604  -5.568  1.00142.77     0.171 HD
HETATM   17  C21 MIQ B 502     -13.252  -9.565  -6.989  1.00142.22     0.224 C 
HETATM   18  C22 MIQ B 502     -14.058  -8.280  -6.975  1.00139.52     0.106 C 
HETATM   19  O24 MIQ B 502     -12.923 -10.082  -7.999  1.00146.13    -0.273 OA
HETATM   20  C23 MIQ B 502     -15.322  -8.572  -6.187  1.00139.15     0.045 C 
ENDBRANCH  10  12
BRANCH   5  21
HETATM   21  N6  MIQ B 502     -17.075  -4.701   0.932  1.00140.95    -0.377 N 
HETATM   22  C7  MIQ B 502     -16.345  -4.049   2.006  1.00142.12     0.149 C 
HETATM   23  C8  MIQ B 502     -17.115  -4.085   3.320  1.00144.10     0.187 C 
HETATM   24  O9  MIQ B 502     -18.448  -3.693   3.180  1.00148.65    -0.388 OA
HETATM   25  C10 MIQ B 502     -19.007  -3.529   1.910  1.00147.44     0.187 C 
HETATM   26  C11 MIQ B 502     -18.483  -4.389   0.765  1.00144.08     0.149 C 
ENDBRANCH   5  21
TORSDOF 2
ENDMDL
