MODEL 1
REMARK VINA RESULT:      -6.9      0.000      0.000
REMARK  2 active torsions:
REMARK  status: ('A' for Active; 'I' for Inactive)
REMARK    1  A    between atoms: C5_5  and  N6_21 
REMARK    2  A    between atoms: C18_14  and  N17_19 
ROOT
HETATM    1  O1  MIQ B 502      18.662  -4.341 -11.646  1.00142.91    -0.171 OA
HETATM    2  C2  MIQ B 502      17.758  -3.692 -10.803  1.00141.17     0.195 A 
HETATM    3  C3  MIQ B 502      16.353  -4.222 -10.374  1.00141.71     0.035 A 
HETATM    4  C4  MIQ B 502      15.592  -5.456 -10.681  1.00142.86     0.046 A 
HETATM    5  C5  MIQ B 502      14.304  -5.661 -10.125  1.00139.53     0.031 A 
HETATM    6  C12 MIQ B 502      13.726  -4.652  -9.248  1.00139.38     0.030 A 
HETATM    7  C13 MIQ B 502      14.456  -3.469  -8.953  1.00141.18     0.019 A 
HETATM    8  C14 MIQ B 502      15.809  -3.261  -9.537  1.00138.77     0.033 A 
HETATM    9  C15 MIQ B 502      16.883  -2.128  -9.446  1.00142.10     0.195 A 
HETATM   10  N17 MIQ B 502      17.896  -2.524 -10.199  1.00139.42    -0.288 N 
HETATM   11  O16 MIQ B 502      16.786  -0.941  -8.718  1.00148.93    -0.171 OA
ENDROOT
BRANCH  10  12
HETATM   12  C18 MIQ B 502      19.082  -1.704 -10.365  1.00139.82     0.187 C 
HETATM   13  C19 MIQ B 502      19.601  -1.343  -8.968  1.00140.06     0.247 C 
HETATM   14  O25 MIQ B 502      19.766  -2.201  -8.175  1.00143.95    -0.271 OA
HETATM   15  N20 MIQ B 502      19.900   0.024  -8.594  1.00140.02    -0.296 N 
HETATM   16  H13 MIQ B 502      20.232   0.247  -7.676  1.00142.77     0.171 HD
HETATM   17  C21 MIQ B 502      19.680   1.055  -9.575  1.00142.22     0.224 C 
HETATM   18  C22 MIQ B 502      18.522   0.849 -10.533  1.00139.52     0.106 C 
HETATM   19  O24 MIQ B 502      20.372   2.011  -9.632  1.00146.13    -0.273 OA
HETATM   20  C23 MIQ B 502      18.767  -0.480 -11.224  1.00139.15     0.045 C 
ENDBRANCH  10  12
BRANCH   5  21
HETATM   21  N6  MIQ B 502      13.564  -6.867 -10.446  1.00140.95    -0.377 N 
HETATM   22  C7  MIQ B 502      12.613  -7.379  -9.474  1.00142.12     0.149 C 
HETATM   23  C8  MIQ B 502      12.413  -8.883  -9.610  1.00144.10     0.187 C 
HETATM   24  O9  MIQ B 502      12.192  -9.284 -10.929  1.00148.65    -0.388 OA
HETATM   25  C10 MIQ B 502      12.382  -8.387 -11.983  1.00147.44     0.187 C 
HETATM   26  C11 MIQ B 502      13.433  -7.292 -11.829  1.00144.08     0.149 C 
ENDBRANCH   5  21
TORSDOF 2
ENDMDL
MODEL 2
REMARK VINA RESULT:      -6.7      1.702      8.492
REMARK  2 active torsions:
REMARK  status: ('A' for Active; 'I' for Inactive)
REMARK    1  A    between atoms: C5_5  and  N6_21 
REMARK    2  A    between atoms: C18_14  and  N17_19 
ROOT
HETATM    1  O1  MIQ B 502      16.733  -6.678 -12.147  1.00142.91    -0.171 OA
HETATM    2  C2  MIQ B 502      15.779  -6.257 -11.217  1.00141.17     0.195 A 
HETATM    3  C3  MIQ B 502      15.775  -4.894 -10.453  1.00141.71     0.035 A 
HETATM    4  C4  MIQ B 502      16.679  -3.720 -10.460  1.00142.86     0.046 A 
HETATM    5  C5  MIQ B 502      16.404  -2.600  -9.635  1.00139.53     0.031 A 
HETATM    6  C12 MIQ B 502      15.227  -2.604  -8.778  1.00139.38     0.030 A 
HETATM    7  C13 MIQ B 502      14.360  -3.730  -8.773  1.00141.18     0.019 A 
HETATM    8  C14 MIQ B 502      14.652  -4.902  -9.642  1.00138.77     0.033 A 
HETATM    9  C15 MIQ B 502      13.955  -6.277  -9.905  1.00142.10     0.195 A 
HETATM   10  N17 MIQ B 502      14.703  -6.901 -10.800  1.00139.42    -0.288 N 
HETATM   11  O16 MIQ B 502      12.782  -6.746  -9.310  1.00148.93    -0.171 OA
ENDROOT
BRANCH  10  12
HETATM   12  C18 MIQ B 502      14.364  -8.229 -11.276  1.00139.82     0.187 C 
HETATM   13  C19 MIQ B 502      12.893  -8.209 -11.710  1.00140.06     0.247 C 
HETATM   14  O25 MIQ B 502      12.522  -7.369 -12.450  1.00143.95    -0.271 OA
HETATM   15  N20 MIQ B 502      11.946  -9.200 -11.242  1.00140.02    -0.296 N 
HETATM   16  H13 MIQ B 502      10.987  -9.172 -11.528  1.00142.77     0.171 HD
HETATM   17  C21 MIQ B 502      12.420 -10.210 -10.332  1.00142.22     0.224 C 
HETATM   18  C22 MIQ B 502      13.507  -9.794  -9.360  1.00139.52     0.106 C 
HETATM   19  O24 MIQ B 502      11.985 -11.309 -10.347  1.00146.13    -0.273 OA
HETATM   20  C23 MIQ B 502      14.659  -9.271 -10.199  1.00139.15     0.045 C 
ENDBRANCH  10  12
BRANCH   5  21
HETATM   21  N6  MIQ B 502      17.306  -1.462  -9.640  1.00140.95    -0.377 N 
HETATM   22  C7  MIQ B 502      17.283  -0.552  -8.508  1.00142.12     0.149 C 
HETATM   23  C8  MIQ B 502      17.739   0.849  -8.895  1.00144.10     0.187 C 
HETATM   24  O9  MIQ B 502      18.921   0.850  -9.638  1.00148.65    -0.388 OA
HETATM   25  C10 MIQ B 502      19.445  -0.346 -10.136  1.00147.44     0.187 C 
HETATM   26  C11 MIQ B 502      18.480  -1.471 -10.496  1.00144.08     0.149 C 
ENDBRANCH   5  21
TORSDOF 2
ENDMDL
MODEL 3
REMARK VINA RESULT:      -6.6      1.923      8.580
REMARK  2 active torsions:
REMARK  status: ('A' for Active; 'I' for Inactive)
REMARK    1  A    between atoms: C5_5  and  N6_21 
REMARK    2  A    between atoms: C18_14  and  N17_19 
ROOT
HETATM    1  O1  MIQ B 502      12.939  -4.774  -8.872  1.00142.91    -0.171 OA
HETATM    2  C2  MIQ B 502      13.995  -5.203  -9.679  1.00141.17     0.195 A 
HETATM    3  C3  MIQ B 502      15.292  -4.397 -10.006  1.00141.71     0.035 A 
HETATM    4  C4  MIQ B 502      15.786  -3.057  -9.609  1.00142.86     0.046 A 
HETATM    5  C5  MIQ B 502      17.039  -2.587 -10.078  1.00139.53     0.031 A 
HETATM    6  C12 MIQ B 502      17.844  -3.428 -10.953  1.00139.38     0.030 A 
HETATM    7  C13 MIQ B 502      17.372  -4.713 -11.332  1.00141.18     0.019 A 
HETATM    8  C14 MIQ B 502      16.057  -5.201 -10.835  1.00138.77     0.033 A 
HETATM    9  C15 MIQ B 502      15.229  -6.515 -11.024  1.00142.10     0.195 A 
HETATM   10  N17 MIQ B 502      14.121  -6.353 -10.319  1.00139.42    -0.288 N 
HETATM   11  O16 MIQ B 502      15.590  -7.628 -11.785  1.00148.93    -0.171 OA
ENDROOT
BRANCH  10  12
HETATM   12  C18 MIQ B 502      13.096  -7.379 -10.273  1.00139.82     0.187 C 
HETATM   13  C19 MIQ B 502      13.761  -8.684  -9.818  1.00140.06     0.247 C 
HETATM   14  O25 MIQ B 502      14.427  -8.683  -8.844  1.00143.95    -0.271 OA
HETATM   15  N20 MIQ B 502      13.590  -9.923 -10.549  1.00140.02    -0.296 N 
HETATM   16  H13 MIQ B 502      14.035 -10.767 -10.246  1.00142.77     0.171 HD
HETATM   17  C21 MIQ B 502      12.782  -9.897 -11.741  1.00142.22     0.224 C 
HETATM   18  C22 MIQ B 502      12.817  -8.622 -12.561  1.00139.52     0.106 C 
HETATM   19  O24 MIQ B 502      12.120 -10.823 -12.059  1.00146.13    -0.273 OA
HETATM   20  C23 MIQ B 502      12.402  -7.498 -11.629  1.00139.15     0.045 C 
ENDBRANCH  10  12
BRANCH   5  21
HETATM   21  N6  MIQ B 502      17.503  -1.267  -9.694  1.00140.95    -0.377 N 
HETATM   22  C7  MIQ B 502      18.050  -0.397 -10.721  1.00142.12     0.149 C 
HETATM   23  C8  MIQ B 502      19.042   0.607 -10.148  1.00144.10     0.187 C 
HETATM   24  O9  MIQ B 502      18.560   1.257  -9.010  1.00148.65    -0.388 OA
HETATM   25  C10 MIQ B 502      17.391   0.816  -8.385  1.00147.44     0.187 C 
HETATM   26  C11 MIQ B 502      17.040  -0.666  -8.456  1.00144.08     0.149 C 
ENDBRANCH   5  21
TORSDOF 2
ENDMDL
MODEL 4
REMARK VINA RESULT:      -6.5     19.612     20.633
REMARK  2 active torsions:
REMARK  status: ('A' for Active; 'I' for Inactive)
REMARK    1  A    between atoms: C5_5  and  N6_21 
REMARK    2  A    between atoms: C18_14  and  N17_19 
ROOT
HETATM    1  O1  MIQ B 502      14.281   0.037   8.760  1.00142.91    -0.171 OA
HETATM    2  C2  MIQ B 502      14.227  -0.597  10.003  1.00141.17     0.195 A 
HETATM    3  C3  MIQ B 502      13.324  -1.815  10.378  1.00141.71     0.035 A 
HETATM    4  C4  MIQ B 502      12.333  -2.620   9.624  1.00142.86     0.046 A 
HETATM    5  C5  MIQ B 502      11.655  -3.695  10.253  1.00139.53     0.031 A 
HETATM    6  C12 MIQ B 502      11.935  -4.009  11.647  1.00139.38     0.030 A 
HETATM    7  C13 MIQ B 502      12.885  -3.238  12.370  1.00141.18     0.019 A 
HETATM    8  C14 MIQ B 502      13.596  -2.112  11.704  1.00138.77     0.033 A 
HETATM    9  C15 MIQ B 502      14.674  -1.074  12.154  1.00142.10     0.195 A 
HETATM   10  N17 MIQ B 502      14.913  -0.314  11.097  1.00139.42    -0.288 N 
HETATM   11  O16 MIQ B 502      15.261  -0.971  13.416  1.00148.93    -0.171 OA
ENDROOT
BRANCH  10  12
HETATM   12  C18 MIQ B 502      15.862   0.782  11.151  1.00139.82     0.187 C 
HETATM   13  C19 MIQ B 502      15.135   2.053  10.697  1.00140.06     0.247 C 
HETATM   14  O25 MIQ B 502      14.105   2.338  11.198  1.00143.95    -0.271 OA
HETATM   15  N20 MIQ B 502      15.679   2.921   9.673  1.00140.02    -0.296 N 
HETATM   16  H13 MIQ B 502      15.191   3.745   9.381  1.00142.77     0.171 HD
HETATM   17  C21 MIQ B 502      16.933   2.547   9.069  1.00142.22     0.224 C 
HETATM   18  C22 MIQ B 502      17.199   1.062   8.917  1.00139.52     0.106 C 
HETATM   19  O24 MIQ B 502      17.715   3.360   8.716  1.00146.13    -0.273 OA
HETATM   20  C23 MIQ B 502      17.094   0.460  10.306  1.00139.15     0.045 C 
ENDBRANCH  10  12
BRANCH   5  21
HETATM   21  N6  MIQ B 502      10.677  -4.465   9.507  1.00140.95    -0.377 N 
HETATM   22  C7  MIQ B 502      10.234  -5.737  10.051  1.00142.12     0.149 C 
HETATM   23  C8  MIQ B 502       9.766  -6.691   8.959  1.00144.10     0.187 C 
HETATM   24  O9  MIQ B 502       8.889  -6.091   8.053  1.00148.65    -0.388 OA
HETATM   25  C10 MIQ B 502       8.693  -4.707   8.068  1.00147.44     0.187 C 
HETATM   26  C11 MIQ B 502       9.845  -3.812   8.512  1.00144.08     0.149 C 
ENDBRANCH   5  21
TORSDOF 2
ENDMDL
MODEL 5
REMARK VINA RESULT:      -6.5      1.585      2.166
REMARK  2 active torsions:
REMARK  status: ('A' for Active; 'I' for Inactive)
REMARK    1  A    between atoms: C5_5  and  N6_21 
REMARK    2  A    between atoms: C18_14  and  N17_19 
ROOT
HETATM    1  O1  MIQ B 502      18.878  -4.420 -10.572  1.00142.91    -0.171 OA
HETATM    2  C2  MIQ B 502      17.851  -3.718  -9.938  1.00141.17     0.195 A 
HETATM    3  C3  MIQ B 502      16.365  -4.178  -9.804  1.00141.71     0.035 A 
HETATM    4  C4  MIQ B 502      15.627  -5.383 -10.251  1.00142.86     0.046 A 
HETATM    5  C5  MIQ B 502      14.244  -5.522  -9.971  1.00139.53     0.031 A 
HETATM    6  C12 MIQ B 502      13.546  -4.474  -9.240  1.00139.38     0.030 A 
HETATM    7  C13 MIQ B 502      14.253  -3.319  -8.810  1.00141.18     0.019 A 
HETATM    8  C14 MIQ B 502      15.706  -3.180  -9.104  1.00138.77     0.033 A 
HETATM    9  C15 MIQ B 502      16.790  -2.094  -8.802  1.00142.10     0.195 A 
HETATM   10  N17 MIQ B 502      17.916  -2.547  -9.328  1.00139.42    -0.288 N 
HETATM   11  O16 MIQ B 502      16.600  -0.892  -8.119  1.00148.93    -0.171 OA
ENDROOT
BRANCH  10  12
HETATM   12  C18 MIQ B 502      19.147  -1.783  -9.253  1.00139.82     0.187 C 
HETATM   13  C19 MIQ B 502      19.689  -1.627 -10.679  1.00140.06     0.247 C 
HETATM   14  O25 MIQ B 502      18.973  -1.226 -11.526  1.00143.95    -0.271 OA
HETATM   15  N20 MIQ B 502      21.060  -1.953 -11.015  1.00140.02    -0.296 N 
HETATM   16  H13 MIQ B 502      21.399  -1.853 -11.951  1.00142.77     0.171 HD
HETATM   17  C21 MIQ B 502      21.912  -2.451  -9.966  1.00142.22     0.224 C 
HETATM   18  C22 MIQ B 502      21.251  -3.301  -8.898  1.00139.52     0.106 C 
HETATM   19  O24 MIQ B 502      23.067  -2.203  -9.938  1.00146.13    -0.273 OA
HETATM   20  C23 MIQ B 502      20.136  -2.459  -8.304  1.00139.15     0.045 C 
ENDBRANCH  10  12
BRANCH   5  21
HETATM   21  N6  MIQ B 502      13.531  -6.701 -10.428  1.00140.95    -0.377 N 
HETATM   22  C7  MIQ B 502      12.581  -7.331  -9.527  1.00142.12     0.149 C 
HETATM   23  C8  MIQ B 502      12.411  -8.815  -9.826  1.00144.10     0.187 C 
HETATM   24  O9  MIQ B 502      12.211  -9.076 -11.183  1.00148.65    -0.388 OA
HETATM   25  C10 MIQ B 502      12.394  -8.068 -12.133  1.00147.44     0.187 C 
HETATM   26  C11 MIQ B 502      13.422  -6.977 -11.850  1.00144.08     0.149 C 
ENDBRANCH   5  21
TORSDOF 2
ENDMDL
MODEL 6
REMARK VINA RESULT:      -6.4      2.011      8.504
REMARK  2 active torsions:
REMARK  status: ('A' for Active; 'I' for Inactive)
REMARK    1  A    between atoms: C5_5  and  N6_21 
REMARK    2  A    between atoms: C18_14  and  N17_19 
ROOT
HETATM    1  O1  MIQ B 502      13.794  -6.151  -9.366  1.00142.91    -0.171 OA
HETATM    2  C2  MIQ B 502      14.800  -6.235 -10.331  1.00141.17     0.195 A 
HETATM    3  C3  MIQ B 502      15.836  -5.120 -10.682  1.00141.71     0.035 A 
HETATM    4  C4  MIQ B 502      16.075  -3.751 -10.166  1.00142.86     0.046 A 
HETATM    5  C5  MIQ B 502      17.122  -2.957 -10.697  1.00139.53     0.031 A 
HETATM    6  C12 MIQ B 502      17.966  -3.490 -11.757  1.00139.38     0.030 A 
HETATM    7  C13 MIQ B 502      17.739  -4.802 -12.252  1.00141.18     0.019 A 
HETATM    8  C14 MIQ B 502      16.639  -5.632 -11.688  1.00138.77     0.033 A 
HETATM    9  C15 MIQ B 502      16.100  -7.074 -11.961  1.00142.10     0.195 A 
HETATM   10  N17 MIQ B 502      15.088  -7.250 -11.128  1.00139.42    -0.288 N 
HETATM   11  O16 MIQ B 502      16.589  -7.986 -12.898  1.00148.93    -0.171 OA
ENDROOT
BRANCH  10  12
HETATM   12  C18 MIQ B 502      14.326  -8.485 -11.111  1.00139.82     0.187 C 
HETATM   13  C19 MIQ B 502      12.837  -8.116 -11.134  1.00140.06     0.247 C 
HETATM   14  O25 MIQ B 502      12.443  -7.367 -11.955  1.00143.95    -0.271 OA
HETATM   15  N20 MIQ B 502      11.899  -8.668 -10.179  1.00140.02    -0.296 N 
HETATM   16  H13 MIQ B 502      10.931  -8.415 -10.201  1.00142.77     0.171 HD
HETATM   17  C21 MIQ B 502      12.407  -9.573  -9.180  1.00142.22     0.224 C 
HETATM   18  C22 MIQ B 502      13.815  -9.315  -8.680  1.00139.52     0.106 C 
HETATM   19  O24 MIQ B 502      11.758 -10.474  -8.776  1.00146.13    -0.273 OA
HETATM   20  C23 MIQ B 502      14.716  -9.333  -9.902  1.00139.15     0.045 C 
ENDBRANCH  10  12
BRANCH   5  21
HETATM   21  N6  MIQ B 502      17.335  -1.613 -10.192  1.00140.95    -0.377 N 
HETATM   22  C7  MIQ B 502      17.683  -1.444  -8.792  1.00142.12     0.149 C 
HETATM   23  C8  MIQ B 502      17.253  -0.083  -8.259  1.00144.10     0.187 C 
HETATM   24  O9  MIQ B 502      17.624   0.970  -9.097  1.00148.65    -0.388 OA
HETATM   25  C10 MIQ B 502      18.119   0.715 -10.378  1.00147.44     0.187 C 
HETATM   26  C11 MIQ B 502      17.633  -0.530 -11.113  1.00144.08     0.149 C 
ENDBRANCH   5  21
TORSDOF 2
ENDMDL
MODEL 7
REMARK VINA RESULT:      -6.4     19.597     21.674
REMARK  2 active torsions:
REMARK  status: ('A' for Active; 'I' for Inactive)
REMARK    1  A    between atoms: C5_5  and  N6_21 
REMARK    2  A    between atoms: C18_14  and  N17_19 
ROOT
HETATM    1  O1  MIQ B 502      12.512  -2.694   9.809  1.00142.91    -0.171 OA
HETATM    2  C2  MIQ B 502      13.323  -1.833  10.553  1.00141.17     0.195 A 
HETATM    3  C3  MIQ B 502      14.204  -0.675   9.984  1.00141.71     0.035 A 
HETATM    4  C4  MIQ B 502      14.446  -0.156   8.618  1.00142.86     0.046 A 
HETATM    5  C5  MIQ B 502      15.323   0.940   8.412  1.00139.53     0.031 A 
HETATM    6  C12 MIQ B 502      15.987   1.557   9.551  1.00139.38     0.030 A 
HETATM    7  C13 MIQ B 502      15.754   1.060  10.862  1.00141.18     0.019 A 
HETATM    8  C14 MIQ B 502      14.831  -0.089  11.072  1.00138.77     0.033 A 
HETATM    9  C15 MIQ B 502      14.336  -0.887  12.322  1.00142.10     0.195 A 
HETATM   10  N17 MIQ B 502      13.509  -1.811  11.861  1.00139.42    -0.288 N 
HETATM   11  O16 MIQ B 502      14.699  -0.667  13.652  1.00148.93    -0.171 OA
ENDROOT
BRANCH  10  12
HETATM   12  C18 MIQ B 502      12.863  -2.759  12.749  1.00139.82     0.187 C 
HETATM   13  C19 MIQ B 502      13.176  -4.170  12.235  1.00140.06     0.247 C 
HETATM   14  O25 MIQ B 502      14.296  -4.467  12.015  1.00143.95    -0.271 OA
HETATM   15  N20 MIQ B 502      12.135  -5.153  12.019  1.00140.02    -0.296 N 
HETATM   16  H13 MIQ B 502      12.352  -6.068  11.677  1.00142.77     0.171 HD
HETATM   17  C21 MIQ B 502      10.774  -4.764  12.285  1.00142.22     0.224 C 
HETATM   18  C22 MIQ B 502      10.413  -3.316  12.011  1.00139.52     0.106 C 
HETATM   19  O24 MIQ B 502       9.981  -5.534  12.703  1.00146.13    -0.273 OA
HETATM   20  C23 MIQ B 502      11.365  -2.470  12.836  1.00139.15     0.045 C 
ENDBRANCH  10  12
BRANCH   5  21
HETATM   21  N6  MIQ B 502      15.562   1.429   7.067  1.00140.95    -0.377 N 
HETATM   22  C7  MIQ B 502      14.852   0.804   5.964  1.00142.12     0.149 C 
HETATM   23  C8  MIQ B 502      15.618   0.925   4.653  1.00144.10     0.187 C 
HETATM   24  O9  MIQ B 502      16.078   2.220   4.409  1.00148.65    -0.388 OA
HETATM   25  C10 MIQ B 502      16.013   3.194   5.409  1.00147.44     0.187 C 
HETATM   26  C11 MIQ B 502      16.124   2.753   6.865  1.00144.08     0.149 C 
ENDBRANCH   5  21
TORSDOF 2
ENDMDL
MODEL 8
REMARK VINA RESULT:      -6.2      1.919      8.172
REMARK  2 active torsions:
REMARK  status: ('A' for Active; 'I' for Inactive)
REMARK    1  A    between atoms: C5_5  and  N6_21 
REMARK    2  A    between atoms: C18_14  and  N17_19 
ROOT
HETATM    1  O1  MIQ B 502      15.960  -6.872 -11.461  1.00142.91    -0.171 OA
HETATM    2  C2  MIQ B 502      15.312  -5.962 -10.622  1.00141.17     0.195 A 
HETATM    3  C3  MIQ B 502      15.921  -4.643 -10.048  1.00141.71     0.035 A 
HETATM    4  C4  MIQ B 502      17.242  -3.986 -10.187  1.00142.86     0.046 A 
HETATM    5  C5  MIQ B 502      17.504  -2.758  -9.527  1.00139.53     0.031 A 
HETATM    6  C12 MIQ B 502      16.469  -2.141  -8.710  1.00139.38     0.030 A 
HETATM    7  C13 MIQ B 502      15.202  -2.771  -8.578  1.00141.18     0.019 A 
HETATM    8  C14 MIQ B 502      14.932  -4.058  -9.274  1.00138.77     0.033 A 
HETATM    9  C15 MIQ B 502      13.702  -5.019  -9.370  1.00142.10     0.195 A 
HETATM   10  N17 MIQ B 502      14.078  -6.017 -10.152  1.00139.42    -0.288 N 
HETATM   11  O16 MIQ B 502      12.462  -4.854  -8.750  1.00148.93    -0.171 OA
ENDROOT
BRANCH  10  12
HETATM   12  C18 MIQ B 502      13.185  -7.120 -10.456  1.00139.82     0.187 C 
HETATM   13  C19 MIQ B 502      13.893  -8.420 -10.055  1.00140.06     0.247 C 
HETATM   14  O25 MIQ B 502      14.356  -8.513  -8.974  1.00143.95    -0.271 OA
HETATM   15  N20 MIQ B 502      14.004  -9.541 -10.965  1.00140.02    -0.296 N 
HETATM   16  H13 MIQ B 502      14.475 -10.382 -10.693  1.00142.77     0.171 HD
HETATM   17  C21 MIQ B 502      13.440  -9.399 -12.282  1.00142.22     0.224 C 
HETATM   18  C22 MIQ B 502      13.488  -8.014 -12.898  1.00139.52     0.106 C 
HETATM   19  O24 MIQ B 502      12.959 -10.317 -12.851  1.00146.13    -0.273 OA
HETATM   20  C23 MIQ B 502      12.780  -7.086 -11.929  1.00139.15     0.045 C 
ENDBRANCH  10  12
BRANCH   5  21
HETATM   21  N6  MIQ B 502      18.807  -2.133  -9.660  1.00140.95    -0.377 N 
HETATM   22  C7  MIQ B 502      19.118  -0.990  -8.819  1.00142.12     0.149 C 
HETATM   23  C8  MIQ B 502      20.154  -0.076  -9.461  1.00144.10     0.187 C 
HETATM   24  O9  MIQ B 502      21.259  -0.771  -9.956  1.00148.65    -0.388 OA
HETATM   25  C10 MIQ B 502      21.242  -2.166 -10.033  1.00147.44     0.187 C 
HETATM   26  C11 MIQ B 502      19.907  -2.867 -10.261  1.00144.08     0.149 C 
ENDBRANCH   5  21
TORSDOF 2
ENDMDL
MODEL 9
REMARK VINA RESULT:      -6.1     17.828     19.063
REMARK  2 active torsions:
REMARK  status: ('A' for Active; 'I' for Inactive)
REMARK    1  A    between atoms: C5_5  and  N6_21 
REMARK    2  A    between atoms: C18_14  and  N17_19 
ROOT
HETATM    1  O1  MIQ B 502      14.626   0.310   6.097  1.00142.91    -0.171 OA
HETATM    2  C2  MIQ B 502      15.116   0.535   7.385  1.00141.17     0.195 A 
HETATM    3  C3  MIQ B 502      14.601  -0.138   8.698  1.00141.71     0.035 A 
HETATM    4  C4  MIQ B 502      13.540  -1.133   8.984  1.00142.86     0.046 A 
HETATM    5  C5  MIQ B 502      13.302  -1.564  10.314  1.00139.53     0.031 A 
HETATM    6  C12 MIQ B 502      14.106  -1.026  11.403  1.00139.38     0.030 A 
HETATM    7  C13 MIQ B 502      15.123  -0.073  11.128  1.00141.18     0.019 A 
HETATM    8  C14 MIQ B 502      15.370   0.374   9.730  1.00138.77     0.033 A 
HETATM    9  C15 MIQ B 502      16.369   1.370   9.054  1.00142.10     0.195 A 
HETATM   10  N17 MIQ B 502      16.097   1.338   7.760  1.00139.42    -0.288 N 
HETATM   11  O16 MIQ B 502      17.345   2.136   9.693  1.00148.93    -0.171 OA
ENDROOT
BRANCH  10  12
HETATM   12  C18 MIQ B 502      16.826   2.161   6.813  1.00139.82     0.187 C 
HETATM   13  C19 MIQ B 502      15.802   2.817   5.879  1.00140.06     0.247 C 
HETATM   14  O25 MIQ B 502      14.883   3.392   6.345  1.00143.95    -0.271 OA
HETATM   15  N20 MIQ B 502      15.934   2.758   4.438  1.00140.02    -0.296 N 
HETATM   16  H13 MIQ B 502      15.255   3.185   3.839  1.00142.77     0.171 HD
HETATM   17  C21 MIQ B 502      17.059   2.042   3.893  1.00142.22     0.224 C 
HETATM   18  C22 MIQ B 502      17.539   0.832   4.672  1.00139.52     0.106 C 
HETATM   19  O24 MIQ B 502      17.583   2.385   2.891  1.00146.13    -0.273 OA
HETATM   20  C23 MIQ B 502      17.865   1.322   6.071  1.00139.15     0.045 C 
ENDBRANCH  10  12
BRANCH   5  21
HETATM   21  N6  MIQ B 502      12.250  -2.527  10.582  1.00140.95    -0.377 N 
HETATM   22  C7  MIQ B 502      11.675  -2.574  11.915  1.00142.12     0.149 C 
HETATM   23  C8  MIQ B 502      11.112  -3.951  12.243  1.00144.10     0.187 C 
HETATM   24  O9  MIQ B 502      10.305  -4.465  11.227  1.00148.65    -0.388 OA
HETATM   25  C10 MIQ B 502      10.255  -3.839   9.978  1.00147.44     0.187 C 
HETATM   26  C11 MIQ B 502      11.494  -3.100   9.483  1.00144.08     0.149 C 
ENDBRANCH   5  21
TORSDOF 2
ENDMDL
