MODEL 1
REMARK VINA RESULT:      -6.8      0.000      0.000
REMARK  2 active torsions:
REMARK  status: ('A' for Active; 'I' for Inactive)
REMARK    1  A    between atoms: C5_5  and  N6_21 
REMARK    2  A    between atoms: C18_14  and  N17_19 
ROOT
HETATM    1  O1  MIQ B 502      15.681  -1.700  -3.536  1.00142.91    -0.171 OA
HETATM    2  C2  MIQ B 502      16.730  -2.622  -3.561  1.00141.17     0.195 A 
HETATM    3  C3  MIQ B 502      16.592  -4.174  -3.678  1.00141.71     0.035 A 
HETATM    4  C4  MIQ B 502      15.431  -5.087  -3.795  1.00142.86     0.046 A 
HETATM    5  C5  MIQ B 502      15.627  -6.488  -3.889  1.00139.53     0.031 A 
HETATM    6  C12 MIQ B 502      16.978  -7.031  -3.872  1.00139.38     0.030 A 
HETATM    7  C13 MIQ B 502      18.092  -6.155  -3.762  1.00141.18     0.019 A 
HETATM    8  C14 MIQ B 502      17.879  -4.685  -3.665  1.00138.77     0.033 A 
HETATM    9  C15 MIQ B 502      18.822  -3.444  -3.539  1.00142.10     0.195 A 
HETATM   10  N17 MIQ B 502      18.029  -2.386  -3.496  1.00139.42    -0.288 N 
HETATM   11  O16 MIQ B 502      20.217  -3.457  -3.481  1.00148.93    -0.171 OA
ENDROOT
BRANCH  10  12
HETATM   12  C18 MIQ B 502      18.564  -1.044  -3.363  1.00139.82     0.187 C 
HETATM   13  C19 MIQ B 502      17.960  -0.423  -2.098  1.00140.06     0.247 C 
HETATM   14  O25 MIQ B 502      18.011  -1.020  -1.082  1.00143.95    -0.271 OA
HETATM   15  N20 MIQ B 502      17.331   0.882  -2.114  1.00140.02    -0.296 N 
HETATM   16  H13 MIQ B 502      16.934   1.274  -1.282  1.00142.77     0.171 HD
HETATM   17  C21 MIQ B 502      17.271   1.587  -3.368  1.00142.22     0.224 C 
HETATM   18  C22 MIQ B 502      17.117   0.742  -4.618  1.00139.52     0.106 C 
HETATM   19  O24 MIQ B 502      17.343   2.766  -3.419  1.00146.13    -0.273 OA
HETATM   20  C23 MIQ B 502      18.282  -0.231  -4.626  1.00139.15     0.045 C 
ENDBRANCH  10  12
BRANCH   5  21
HETATM   21  N6  MIQ B 502      14.480  -7.372  -3.988  1.00140.95    -0.377 N 
HETATM   22  C7  MIQ B 502      13.389  -6.998  -4.870  1.00142.12     0.149 C 
HETATM   23  C8  MIQ B 502      12.063  -7.598  -4.421  1.00144.10     0.187 C 
HETATM   24  O9  MIQ B 502      12.153  -8.960  -4.127  1.00148.65    -0.388 OA
HETATM   25  C10 MIQ B 502      13.400  -9.585  -4.048  1.00147.44     0.187 C 
HETATM   26  C11 MIQ B 502      14.601  -8.764  -3.589  1.00144.08     0.149 C 
ENDBRANCH   5  21
TORSDOF 2
ENDMDL
MODEL 2
REMARK VINA RESULT:      -6.7      0.264      1.011
REMARK  2 active torsions:
REMARK  status: ('A' for Active; 'I' for Inactive)
REMARK    1  A    between atoms: C5_5  and  N6_21 
REMARK    2  A    between atoms: C18_14  and  N17_19 
ROOT
HETATM    1  O1  MIQ B 502      15.646  -1.870  -3.637  1.00142.91    -0.171 OA
HETATM    2  C2  MIQ B 502      16.714  -2.770  -3.638  1.00141.17     0.195 A 
HETATM    3  C3  MIQ B 502      16.610  -4.324  -3.751  1.00141.71     0.035 A 
HETATM    4  C4  MIQ B 502      15.470  -5.262  -3.883  1.00142.86     0.046 A 
HETATM    5  C5  MIQ B 502      15.698  -6.659  -3.967  1.00139.53     0.031 A 
HETATM    6  C12 MIQ B 502      17.059  -7.173  -3.923  1.00139.38     0.030 A 
HETATM    7  C13 MIQ B 502      18.152  -6.274  -3.797  1.00141.18     0.019 A 
HETATM    8  C14 MIQ B 502      17.907  -4.808  -3.712  1.00138.77     0.033 A 
HETATM    9  C15 MIQ B 502      18.822  -3.547  -3.575  1.00142.10     0.195 A 
HETATM   10  N17 MIQ B 502      18.006  -2.506  -3.552  1.00139.42    -0.288 N 
HETATM   11  O16 MIQ B 502      20.215  -3.530  -3.493  1.00148.93    -0.171 OA
ENDROOT
BRANCH  10  12
HETATM   12  C18 MIQ B 502      18.511  -1.152  -3.416  1.00139.82     0.187 C 
HETATM   13  C19 MIQ B 502      17.887  -0.545  -2.153  1.00140.06     0.247 C 
HETATM   14  O25 MIQ B 502      17.947  -1.141  -1.137  1.00143.95    -0.271 OA
HETATM   15  N20 MIQ B 502      17.229   0.746  -2.171  1.00140.02    -0.296 N 
HETATM   16  H13 MIQ B 502      16.820   1.128  -1.342  1.00142.77     0.171 HD
HETATM   17  C21 MIQ B 502      17.159   1.450  -3.426  1.00142.22     0.224 C 
HETATM   18  C22 MIQ B 502      17.030   0.602  -4.677  1.00139.52     0.106 C 
HETATM   19  O24 MIQ B 502      17.206   2.629  -3.476  1.00146.13    -0.273 OA
HETATM   20  C23 MIQ B 502      18.216  -0.346  -4.680  1.00139.15     0.045 C 
ENDBRANCH  10  12
BRANCH   5  21
HETATM   21  N6  MIQ B 502      14.571  -7.567  -4.081  1.00140.95    -0.377 N 
HETATM   22  C7  MIQ B 502      14.486  -8.687  -3.160  1.00142.12     0.149 C 
HETATM   23  C8  MIQ B 502      13.704  -9.853  -3.752  1.00144.10     0.187 C 
HETATM   24  O9  MIQ B 502      12.495  -9.460  -4.328  1.00148.65    -0.388 OA
HETATM   25  C10 MIQ B 502      12.207  -8.105  -4.515  1.00147.44     0.187 C 
HETATM   26  C11 MIQ B 502      13.363  -7.142  -4.766  1.00144.08     0.149 C 
ENDBRANCH   5  21
TORSDOF 2
ENDMDL
MODEL 3
REMARK VINA RESULT:      -6.3      3.541      4.577
REMARK  2 active torsions:
REMARK  status: ('A' for Active; 'I' for Inactive)
REMARK    1  A    between atoms: C5_5  and  N6_21 
REMARK    2  A    between atoms: C18_14  and  N17_19 
ROOT
HETATM    1  O1  MIQ B 502      16.031  -2.841  -3.520  1.00142.91    -0.171 OA
HETATM    2  C2  MIQ B 502      17.220  -2.496  -4.166  1.00141.17     0.195 A 
HETATM    3  C3  MIQ B 502      18.410  -3.458  -4.484  1.00141.71     0.035 A 
HETATM    4  C4  MIQ B 502      18.648  -4.900  -4.238  1.00142.86     0.046 A 
HETATM    5  C5  MIQ B 502      19.859  -5.507  -4.655  1.00139.53     0.031 A 
HETATM    6  C12 MIQ B 502      20.873  -4.709  -5.330  1.00139.38     0.030 A 
HETATM    7  C13 MIQ B 502      20.644  -3.327  -5.568  1.00141.18     0.019 A 
HETATM    8  C14 MIQ B 502      19.370  -2.695  -5.129  1.00138.77     0.033 A 
HETATM    9  C15 MIQ B 502      18.773  -1.252  -5.213  1.00142.10     0.195 A 
HETATM   10  N17 MIQ B 502      17.582  -1.316  -4.639  1.00139.42    -0.288 N 
HETATM   11  O16 MIQ B 502      19.378  -0.129  -5.777  1.00148.93    -0.171 OA
ENDROOT
BRANCH  10  12
HETATM   12  C18 MIQ B 502      16.736  -0.144  -4.519  1.00139.82     0.187 C 
HETATM   13  C19 MIQ B 502      16.594   0.475  -5.915  1.00140.06     0.247 C 
HETATM   14  O25 MIQ B 502      16.271  -0.211  -6.819  1.00143.95    -0.271 OA
HETATM   15  N20 MIQ B 502      16.839   1.882  -6.156  1.00140.02    -0.296 N 
HETATM   16  H13 MIQ B 502      16.750   2.273  -7.073  1.00142.77     0.171 HD
HETATM   17  C21 MIQ B 502      17.242   2.697  -5.038  1.00142.22     0.224 C 
HETATM   18  C22 MIQ B 502      18.097   2.027  -3.980  1.00139.52     0.106 C 
HETATM   19  O24 MIQ B 502      16.917   3.830  -4.950  1.00146.13    -0.273 OA
HETATM   20  C23 MIQ B 502      17.312   0.825  -3.488  1.00139.15     0.045 C 
ENDBRANCH  10  12
BRANCH   5  21
HETATM   21  N6  MIQ B 502      20.086  -6.917  -4.394  1.00140.95    -0.377 N 
HETATM   22  C7  MIQ B 502      21.331  -7.315  -3.759  1.00142.12     0.149 C 
HETATM   23  C8  MIQ B 502      21.723  -8.742  -4.120  1.00144.10     0.187 C 
HETATM   24  O9  MIQ B 502      20.667  -9.646  -3.983  1.00148.65    -0.388 OA
HETATM   25  C10 MIQ B 502      19.366  -9.187  -3.766  1.00147.44     0.187 C 
HETATM   26  C11 MIQ B 502      18.962  -7.836  -4.347  1.00144.08     0.149 C 
ENDBRANCH   5  21
TORSDOF 2
ENDMDL
MODEL 4
REMARK VINA RESULT:      -6.3      2.302      3.361
REMARK  2 active torsions:
REMARK  status: ('A' for Active; 'I' for Inactive)
REMARK    1  A    between atoms: C5_5  and  N6_21 
REMARK    2  A    between atoms: C18_14  and  N17_19 
ROOT
HETATM    1  O1  MIQ B 502      20.223  -2.895  -5.290  1.00142.91    -0.171 OA
HETATM    2  C2  MIQ B 502      18.910  -2.926  -4.815  1.00141.17     0.195 A 
HETATM    3  C3  MIQ B 502      18.098  -4.204  -4.431  1.00141.71     0.035 A 
HETATM    4  C4  MIQ B 502      18.413  -5.652  -4.439  1.00142.86     0.046 A 
HETATM    5  C5  MIQ B 502      17.444  -6.598  -4.021  1.00139.53     0.031 A 
HETATM    6  C12 MIQ B 502      16.132  -6.144  -3.582  1.00139.38     0.030 A 
HETATM    7  C13 MIQ B 502      15.830  -4.755  -3.574  1.00141.18     0.019 A 
HETATM    8  C14 MIQ B 502      16.852  -3.766  -4.011  1.00138.77     0.033 A 
HETATM    9  C15 MIQ B 502      16.892  -2.208  -4.134  1.00142.10     0.195 A 
HETATM   10  N17 MIQ B 502      18.098  -1.908  -4.589  1.00139.42    -0.288 N 
HETATM   11  O16 MIQ B 502      15.860  -1.319  -3.828  1.00148.93    -0.171 OA
ENDROOT
BRANCH  10  12
HETATM   12  C18 MIQ B 502      18.491  -0.535  -4.843  1.00139.82     0.187 C 
HETATM   13  C19 MIQ B 502      18.113   0.296  -3.610  1.00140.06     0.247 C 
HETATM   14  O25 MIQ B 502      18.456  -0.069  -2.542  1.00143.95    -0.271 OA
HETATM   15  N20 MIQ B 502      17.351   1.523  -3.721  1.00140.02    -0.296 N 
HETATM   16  H13 MIQ B 502      17.105   2.053  -2.908  1.00142.77     0.171 HD
HETATM   17  C21 MIQ B 502      16.935   1.943  -5.034  1.00142.22     0.224 C 
HETATM   18  C22 MIQ B 502      16.608   0.846  -6.029  1.00139.52     0.106 C 
HETATM   19  O24 MIQ B 502      16.859   3.087  -5.322  1.00146.13    -0.273 OA
HETATM   20  C23 MIQ B 502      17.846  -0.026  -6.131  1.00139.15     0.045 C 
ENDBRANCH  10  12
BRANCH   5  21
HETATM   21  N6  MIQ B 502      17.761  -8.015  -4.048  1.00140.95    -0.377 N 
HETATM   22  C7  MIQ B 502      18.815  -8.507  -3.177  1.00142.12     0.149 C 
HETATM   23  C8  MIQ B 502      19.467  -9.767  -3.731  1.00144.10     0.187 C 
HETATM   24  O9  MIQ B 502      18.537 -10.724  -4.142  1.00148.65    -0.388 OA
HETATM   25  C10 MIQ B 502      17.181 -10.402  -4.230  1.00147.44     0.187 C 
HETATM   26  C11 MIQ B 502      16.793  -8.965  -4.566  1.00144.08     0.149 C 
ENDBRANCH   5  21
TORSDOF 2
ENDMDL
MODEL 5
REMARK VINA RESULT:      -6.3      1.717      2.325
REMARK  2 active torsions:
REMARK  status: ('A' for Active; 'I' for Inactive)
REMARK    1  A    between atoms: C5_5  and  N6_21 
REMARK    2  A    between atoms: C18_14  and  N17_19 
ROOT
HETATM    1  O1  MIQ B 502      15.722  -2.135  -4.695  1.00142.91    -0.171 OA
HETATM    2  C2  MIQ B 502      16.383  -2.822  -3.675  1.00141.17     0.195 A 
HETATM    3  C3  MIQ B 502      16.145  -4.309  -3.259  1.00141.71     0.035 A 
HETATM    4  C4  MIQ B 502      15.241  -5.374  -3.755  1.00142.86     0.046 A 
HETATM    5  C5  MIQ B 502      15.255  -6.660  -3.160  1.00139.53     0.031 A 
HETATM    6  C12 MIQ B 502      16.164  -6.937  -2.057  1.00139.38     0.030 A 
HETATM    7  C13 MIQ B 502      17.032  -5.917  -1.582  1.00141.18     0.019 A 
HETATM    8  C14 MIQ B 502      17.015  -4.568  -2.212  1.00138.77     0.033 A 
HETATM    9  C15 MIQ B 502      17.797  -3.235  -1.977  1.00142.10     0.195 A 
HETATM   10  N17 MIQ B 502      17.330  -2.376  -2.868  1.00139.42    -0.288 N 
HETATM   11  O16 MIQ B 502      18.785  -3.004  -1.018  1.00148.93    -0.171 OA
ENDROOT
BRANCH  10  12
HETATM   12  C18 MIQ B 502      17.822  -1.012  -2.934  1.00139.82     0.187 C 
HETATM   13  C19 MIQ B 502      19.351  -1.070  -3.032  1.00140.06     0.247 C 
HETATM   14  O25 MIQ B 502      19.850  -1.759  -3.850  1.00143.95    -0.271 OA
HETATM   15  N20 MIQ B 502      20.203  -0.298  -2.151  1.00140.02    -0.296 N 
HETATM   16  H13 MIQ B 502      21.200  -0.350  -2.220  1.00142.77     0.171 HD
HETATM   17  C21 MIQ B 502      19.570   0.527  -1.154  1.00142.22     0.224 C 
HETATM   18  C22 MIQ B 502      18.271   0.009  -0.565  1.00139.52     0.106 C 
HETATM   19  O24 MIQ B 502      20.039   1.558  -0.816  1.00146.13    -0.273 OA
HETATM   20  C23 MIQ B 502      17.326  -0.209  -1.733  1.00139.15     0.045 C 
ENDBRANCH  10  12
BRANCH   5  21
HETATM   21  N6  MIQ B 502      14.353  -7.689  -3.645  1.00140.95    -0.377 N 
HETATM   22  C7  MIQ B 502      14.220  -8.915  -2.877  1.00142.12     0.149 C 
HETATM   23  C8  MIQ B 502      13.808 -10.092  -3.752  1.00144.10     0.187 C 
HETATM   24  O9  MIQ B 502      12.734  -9.795  -4.593  1.00148.65    -0.388 OA
HETATM   25  C10 MIQ B 502      12.290  -8.478  -4.735  1.00147.44     0.187 C 
HETATM   26  C11 MIQ B 502      13.302  -7.347  -4.588  1.00144.08     0.149 C 
ENDBRANCH   5  21
TORSDOF 2
ENDMDL
MODEL 6
REMARK VINA RESULT:      -6.2      1.996      2.874
REMARK  2 active torsions:
REMARK  status: ('A' for Active; 'I' for Inactive)
REMARK    1  A    between atoms: C5_5  and  N6_21 
REMARK    2  A    between atoms: C18_14  and  N17_19 
ROOT
HETATM    1  O1  MIQ B 502      16.919  -0.114  -2.893  1.00142.91    -0.171 OA
HETATM    2  C2  MIQ B 502      17.937  -0.684  -3.662  1.00141.17     0.195 A 
HETATM    3  C3  MIQ B 502      18.039  -2.182  -4.092  1.00141.71     0.035 A 
HETATM    4  C4  MIQ B 502      17.184  -3.370  -3.858  1.00142.86     0.046 A 
HETATM    5  C5  MIQ B 502      17.548  -4.631  -4.394  1.00139.53     0.031 A 
HETATM    6  C12 MIQ B 502      18.768  -4.758  -5.178  1.00139.38     0.030 A 
HETATM    7  C13 MIQ B 502      19.587  -3.619  -5.404  1.00141.18     0.019 A 
HETATM    8  C14 MIQ B 502      19.199  -2.297  -4.841  1.00138.77     0.033 A 
HETATM    9  C15 MIQ B 502      19.820  -0.862  -4.876  1.00142.10     0.195 A 
HETATM   10  N17 MIQ B 502      18.999  -0.092  -4.181  1.00139.42    -0.288 N 
HETATM   11  O16 MIQ B 502      21.002  -0.479  -5.511  1.00148.93    -0.171 OA
ENDROOT
BRANCH  10  12
HETATM   12  C18 MIQ B 502      19.269   1.320  -3.985  1.00139.82     0.187 C 
HETATM   13  C19 MIQ B 502      19.255   1.594  -2.476  1.00140.06     0.247 C 
HETATM   14  O25 MIQ B 502      19.907   0.918  -1.762  1.00143.95    -0.271 OA
HETATM   15  N20 MIQ B 502      18.468   2.666  -1.902  1.00140.02    -0.296 N 
HETATM   16  H13 MIQ B 502      18.462   2.830  -0.915  1.00142.77     0.171 HD
HETATM   17  C21 MIQ B 502      17.672   3.471  -2.793  1.00142.22     0.224 C 
HETATM   18  C22 MIQ B 502      17.089   2.771  -4.006  1.00139.52     0.106 C 
HETATM   19  O24 MIQ B 502      17.489   4.620  -2.590  1.00146.13    -0.273 OA
HETATM   20  C23 MIQ B 502      18.260   2.166  -4.759  1.00139.15     0.045 C 
ENDBRANCH  10  12
BRANCH   5  21
HETATM   21  N6  MIQ B 502      16.710  -5.789  -4.144  1.00140.95    -0.377 N 
HETATM   22  C7  MIQ B 502      17.350  -7.060  -3.849  1.00142.12     0.149 C 
HETATM   23  C8  MIQ B 502      16.474  -8.243  -4.242  1.00144.10     0.187 C 
HETATM   24  O9  MIQ B 502      15.158  -8.118  -3.790  1.00148.65    -0.388 OA
HETATM   25  C10 MIQ B 502      14.706  -6.911  -3.252  1.00147.44     0.187 C 
HETATM   26  C11 MIQ B 502      15.321  -5.610  -3.760  1.00144.08     0.149 C 
ENDBRANCH   5  21
TORSDOF 2
ENDMDL
MODEL 7
REMARK VINA RESULT:      -6.2      3.918      6.440
REMARK  2 active torsions:
REMARK  status: ('A' for Active; 'I' for Inactive)
REMARK    1  A    between atoms: C5_5  and  N6_21 
REMARK    2  A    between atoms: C18_14  and  N17_19 
ROOT
HETATM    1  O1  MIQ B 502      19.621   0.086  -5.307  1.00142.91    -0.171 OA
HETATM    2  C2  MIQ B 502      18.997  -1.110  -4.943  1.00141.17     0.195 A 
HETATM    3  C3  MIQ B 502      19.681  -2.510  -4.831  1.00141.71     0.035 A 
HETATM    4  C4  MIQ B 502      21.068  -2.987  -5.046  1.00142.86     0.046 A 
HETATM    5  C5  MIQ B 502      21.392  -4.354  -4.860  1.00139.53     0.031 A 
HETATM    6  C12 MIQ B 502      20.357  -5.294  -4.455  1.00139.38     0.030 A 
HETATM    7  C13 MIQ B 502      19.027  -4.837  -4.247  1.00141.18     0.019 A 
HETATM    8  C14 MIQ B 502      18.693  -3.400  -4.442  1.00138.77     0.033 A 
HETATM    9  C15 MIQ B 502      17.389  -2.547  -4.311  1.00142.10     0.195 A 
HETATM   10  N17 MIQ B 502      17.731  -1.307  -4.620  1.00139.42    -0.288 N 
HETATM   11  O16 MIQ B 502      16.122  -3.007  -3.946  1.00148.93    -0.171 OA
ENDROOT
BRANCH  10  12
HETATM   12  C18 MIQ B 502      16.757  -0.231  -4.621  1.00139.82     0.187 C 
HETATM   13  C19 MIQ B 502      16.841   0.475  -5.980  1.00140.06     0.247 C 
HETATM   14  O25 MIQ B 502      16.788  -0.168  -6.967  1.00143.95    -0.271 OA
HETATM   15  N20 MIQ B 502      16.979   1.913  -6.086  1.00140.02    -0.296 N 
HETATM   16  H13 MIQ B 502      17.040   2.361  -6.979  1.00142.77     0.171 HD
HETATM   17  C21 MIQ B 502      17.053   2.675  -4.867  1.00142.22     0.224 C 
HETATM   18  C22 MIQ B 502      17.738   2.011  -3.688  1.00139.52     0.106 C 
HETATM   19  O24 MIQ B 502      16.597   3.763  -4.789  1.00146.13    -0.273 OA
HETATM   20  C23 MIQ B 502      17.000   0.707  -3.440  1.00139.15     0.045 C 
ENDBRANCH  10  12
BRANCH   5  21
HETATM   21  N6  MIQ B 502      22.751  -4.810  -5.088  1.00140.95    -0.377 N 
HETATM   22  C7  MIQ B 502      23.660  -3.946  -5.821  1.00142.12     0.149 C 
HETATM   23  C8  MIQ B 502      24.752  -4.738  -6.529  1.00144.10     0.187 C 
HETATM   24  O9  MIQ B 502      25.363  -5.680  -5.700  1.00148.65    -0.388 OA
HETATM   25  C10 MIQ B 502      24.824  -5.975  -4.445  1.00147.44     0.187 C 
HETATM   26  C11 MIQ B 502      23.316  -5.856  -4.253  1.00144.08     0.149 C 
ENDBRANCH   5  21
TORSDOF 2
ENDMDL
MODEL 8
REMARK VINA RESULT:      -6.1      2.675      8.180
REMARK  2 active torsions:
REMARK  status: ('A' for Active; 'I' for Inactive)
REMARK    1  A    between atoms: C5_5  and  N6_21 
REMARK    2  A    between atoms: C18_14  and  N17_19 
ROOT
HETATM    1  O1  MIQ B 502      15.288  -2.747  -4.828  1.00142.91    -0.171 OA
HETATM    2  C2  MIQ B 502      16.278  -2.657  -3.848  1.00141.17     0.195 A 
HETATM    3  C3  MIQ B 502      16.981  -1.349  -3.364  1.00141.71     0.035 A 
HETATM    4  C4  MIQ B 502      16.846   0.079  -3.740  1.00142.86     0.046 A 
HETATM    5  C5  MIQ B 502      17.643   1.065  -3.106  1.00139.53     0.031 A 
HETATM    6  C12 MIQ B 502      18.599   0.672  -2.080  1.00139.38     0.030 A 
HETATM    7  C13 MIQ B 502      18.728  -0.696  -1.719  1.00141.18     0.019 A 
HETATM    8  C14 MIQ B 502      17.886  -1.727  -2.386  1.00138.77     0.033 A 
HETATM    9  C15 MIQ B 502      17.744  -3.279  -2.261  1.00142.10     0.195 A 
HETATM   10  N17 MIQ B 502      16.815  -3.632  -3.134  1.00139.42    -0.288 N 
HETATM   11  O16 MIQ B 502      18.458  -4.117  -1.403  1.00148.93    -0.171 OA
ENDROOT
BRANCH  10  12
HETATM   12  C18 MIQ B 502      16.426  -5.019  -3.307  1.00139.82     0.187 C 
HETATM   13  C19 MIQ B 502      16.106  -5.592  -1.921  1.00140.06     0.247 C 
HETATM   14  O25 MIQ B 502      15.360  -5.011  -1.216  1.00143.95    -0.271 OA
HETATM   15  N20 MIQ B 502      16.690  -6.832  -1.453  1.00140.02    -0.296 N 
HETATM   16  H13 MIQ B 502      16.478  -7.192  -0.543  1.00142.77     0.171 HD
HETATM   17  C21 MIQ B 502      17.606  -7.518  -2.328  1.00142.22     0.224 C 
HETATM   18  C22 MIQ B 502      18.472  -6.652  -3.223  1.00139.52     0.106 C 
HETATM   19  O24 MIQ B 502      17.674  -8.698  -2.349  1.00146.13    -0.273 OA
HETATM   20  C23 MIQ B 502      17.524  -5.791  -4.038  1.00139.15     0.045 C 
ENDBRANCH  10  12
BRANCH   5  21
HETATM   21  N6  MIQ B 502      17.511   2.458  -3.494  1.00140.95    -0.377 N 
HETATM   22  C7  MIQ B 502      18.297   3.453  -2.786  1.00142.12     0.149 C 
HETATM   23  C8  MIQ B 502      17.634   4.825  -2.811  1.00144.10     0.187 C 
HETATM   24  O9  MIQ B 502      17.207   5.198  -4.087  1.00148.65    -0.388 OA
HETATM   25  C10 MIQ B 502      17.205   4.271  -5.133  1.00147.44     0.187 C 
HETATM   26  C11 MIQ B 502      16.980   2.799  -4.802  1.00144.08     0.149 C 
ENDBRANCH   5  21
TORSDOF 2
ENDMDL
MODEL 9
REMARK VINA RESULT:      -6.1      2.534      8.319
REMARK  2 active torsions:
REMARK  status: ('A' for Active; 'I' for Inactive)
REMARK    1  A    between atoms: C5_5  and  N6_21 
REMARK    2  A    between atoms: C18_14  and  N17_19 
ROOT
HETATM    1  O1  MIQ B 502      18.367  -1.853  -0.433  1.00142.91    -0.171 OA
HETATM    2  C2  MIQ B 502      17.886  -2.064  -1.727  1.00141.17     0.195 A 
HETATM    3  C3  MIQ B 502      17.560  -0.959  -2.781  1.00141.71     0.035 A 
HETATM    4  C4  MIQ B 502      17.644   0.521  -2.765  1.00142.86     0.046 A 
HETATM    5  C5  MIQ B 502      17.269   1.273  -3.907  1.00139.53     0.031 A 
HETATM    6  C12 MIQ B 502      16.798   0.586  -5.101  1.00139.38     0.030 A 
HETATM    7  C13 MIQ B 502      16.718  -0.833  -5.117  1.00141.18     0.019 A 
HETATM    8  C14 MIQ B 502      17.116  -1.617  -3.916  1.00138.77     0.033 A 
HETATM    9  C15 MIQ B 502      17.168  -3.139  -3.565  1.00142.10     0.195 A 
HETATM   10  N17 MIQ B 502      17.617  -3.213  -2.323  1.00139.42    -0.288 N 
HETATM   11  O16 MIQ B 502      16.809  -4.202  -4.397  1.00148.93    -0.171 OA
ENDROOT
BRANCH  10  12
HETATM   12  C18 MIQ B 502      17.781  -4.488  -1.651  1.00139.82     0.187 C 
HETATM   13  C19 MIQ B 502      18.635  -5.387  -2.555  1.00140.06     0.247 C 
HETATM   14  O25 MIQ B 502      19.657  -4.975  -2.975  1.00143.95    -0.271 OA
HETATM   15  N20 MIQ B 502      18.223  -6.731  -2.904  1.00140.02    -0.296 N 
HETATM   16  H13 MIQ B 502      18.786  -7.305  -3.500  1.00142.77     0.171 HD
HETATM   17  C21 MIQ B 502      16.966  -7.207  -2.388  1.00142.22     0.224 C 
HETATM   18  C22 MIQ B 502      15.864  -6.178  -2.223  1.00139.52     0.106 C 
HETATM   19  O24 MIQ B 502      16.805  -8.342  -2.102  1.00146.13    -0.273 OA
HETATM   20  C23 MIQ B 502      16.418  -5.093  -1.318  1.00139.15     0.045 C 
ENDBRANCH  10  12
BRANCH   5  21
HETATM   21  N6  MIQ B 502      17.342   2.722  -3.872  1.00140.95    -0.377 N 
HETATM   22  C7  MIQ B 502      18.275   3.348  -2.951  1.00142.12     0.149 C 
HETATM   23  C8  MIQ B 502      17.824   4.746  -2.548  1.00144.10     0.187 C 
HETATM   24  O9  MIQ B 502      17.445   5.531  -3.639  1.00148.65    -0.388 OA
HETATM   25  C10 MIQ B 502      17.294   4.958  -4.904  1.00147.44     0.187 C 
HETATM   26  C11 MIQ B 502      16.855   3.500  -4.998  1.00144.08     0.149 C 
ENDBRANCH   5  21
TORSDOF 2
ENDMDL
