MODEL 1
REMARK VINA RESULT:      -7.2      0.000      0.000
REMARK  2 active torsions:
REMARK  status: ('A' for Active; 'I' for Inactive)
REMARK    1  A    between atoms: C5_5  and  N6_21 
REMARK    2  A    between atoms: C18_14  and  N17_19 
ROOT
HETATM    1  O1  MIQ B 502     -11.705 -11.589  -6.650  1.00142.91    -0.171 OA
HETATM    2  C2  MIQ B 502     -11.588 -10.690  -5.587  1.00141.17     0.195 A 
HETATM    3  C3  MIQ B 502     -10.896 -10.970  -4.215  1.00141.71     0.035 A 
HETATM    4  C4  MIQ B 502     -10.206 -12.150  -3.643  1.00142.86     0.046 A 
HETATM    5  C5  MIQ B 502      -9.665 -12.099  -2.334  1.00139.53     0.031 A 
HETATM    6  C12 MIQ B 502      -9.788 -10.880  -1.548  1.00139.38     0.030 A 
HETATM    7  C13 MIQ B 502     -10.448  -9.748  -2.096  1.00141.18     0.019 A 
HETATM    8  C14 MIQ B 502     -11.013  -9.806  -3.472  1.00138.77     0.033 A 
HETATM    9  C15 MIQ B 502     -11.780  -8.799  -4.389  1.00142.10     0.195 A 
HETATM   10  N17 MIQ B 502     -12.020  -9.443  -5.519  1.00139.42    -0.288 N 
HETATM   11  O16 MIQ B 502     -12.139  -7.487  -4.072  1.00148.93    -0.171 OA
ENDROOT
BRANCH  10  12
HETATM   12  C18 MIQ B 502     -12.739  -8.814  -6.611  1.00139.82     0.187 C 
HETATM   13  C19 MIQ B 502     -11.956  -7.562  -7.027  1.00140.06     0.247 C 
HETATM   14  O25 MIQ B 502     -10.802  -7.654  -7.254  1.00143.95    -0.271 OA
HETATM   15  N20 MIQ B 502     -12.595  -6.269  -7.155  1.00140.02    -0.296 N 
HETATM   16  H13 MIQ B 502     -12.072  -5.458  -7.421  1.00142.77     0.171 HD
HETATM   17  C21 MIQ B 502     -14.003  -6.181  -6.863  1.00142.22     0.224 C 
HETATM   18  C22 MIQ B 502     -14.532  -7.098  -5.777  1.00139.52     0.106 C 
HETATM   19  O24 MIQ B 502     -14.709  -5.433  -7.445  1.00146.13    -0.273 OA
HETATM   20  C23 MIQ B 502     -14.178  -8.513  -6.197  1.00139.15     0.045 C 
ENDBRANCH  10  12
BRANCH   5  21
HETATM   21  N6  MIQ B 502      -9.004 -13.268  -1.781  1.00140.95    -0.377 N 
HETATM   22  C7  MIQ B 502      -8.161 -14.067  -2.653  1.00142.12     0.149 C 
HETATM   23  C8  MIQ B 502      -8.073 -15.515  -2.189  1.00144.10     0.187 C 
HETATM   24  O9  MIQ B 502      -7.802 -15.633  -0.825  1.00148.65    -0.388 OA
HETATM   25  C10 MIQ B 502      -7.853 -14.511   0.007  1.00147.44     0.187 C 
HETATM   26  C11 MIQ B 502      -8.821 -13.386  -0.345  1.00144.08     0.149 C 
ENDBRANCH   5  21
TORSDOF 2
ENDMDL
MODEL 2
REMARK VINA RESULT:      -7.2      2.762      4.062
REMARK  2 active torsions:
REMARK  status: ('A' for Active; 'I' for Inactive)
REMARK    1  A    between atoms: C5_5  and  N6_21 
REMARK    2  A    between atoms: C18_14  and  N17_19 
ROOT
HETATM    1  O1  MIQ B 502     -13.812  -6.906  -5.372  1.00142.91    -0.171 OA
HETATM    2  C2  MIQ B 502     -12.832  -7.724  -5.938  1.00141.17     0.195 A 
HETATM    3  C3  MIQ B 502     -11.805  -8.607  -5.158  1.00141.71     0.035 A 
HETATM    4  C4  MIQ B 502     -11.557  -8.849  -3.717  1.00142.86     0.046 A 
HETATM    5  C5  MIQ B 502     -10.525  -9.730  -3.306  1.00139.53     0.031 A 
HETATM    6  C12 MIQ B 502      -9.707 -10.401  -4.306  1.00139.38     0.030 A 
HETATM    7  C13 MIQ B 502      -9.946 -10.170  -5.687  1.00141.18     0.019 A 
HETATM    8  C14 MIQ B 502     -11.032  -9.246  -6.113  1.00138.77     0.033 A 
HETATM    9  C15 MIQ B 502     -11.581  -8.757  -7.493  1.00142.10     0.195 A 
HETATM   10  N17 MIQ B 502     -12.572  -7.926  -7.218  1.00139.42    -0.288 N 
HETATM   11  O16 MIQ B 502     -11.114  -9.125  -8.756  1.00148.93    -0.171 OA
ENDROOT
BRANCH  10  12
HETATM   12  C18 MIQ B 502     -13.316  -7.259  -8.271  1.00139.82     0.187 C 
HETATM   13  C19 MIQ B 502     -13.764  -8.327  -9.276  1.00140.06     0.247 C 
HETATM   14  O25 MIQ B 502     -14.323  -9.288  -8.884  1.00143.95    -0.271 OA
HETATM   15  N20 MIQ B 502     -13.524  -8.186 -10.698  1.00140.02    -0.296 N 
HETATM   16  H13 MIQ B 502     -13.816  -8.893 -11.343  1.00142.77     0.171 HD
HETATM   17  C21 MIQ B 502     -12.831  -7.008 -11.151  1.00142.22     0.224 C 
HETATM   18  C22 MIQ B 502     -11.775  -6.440 -10.223  1.00139.52     0.106 C 
HETATM   19  O24 MIQ B 502     -13.078  -6.508 -12.193  1.00146.13    -0.273 OA
HETATM   20  C23 MIQ B 502     -12.468  -6.156  -8.903  1.00139.15     0.045 C 
ENDBRANCH  10  12
BRANCH   5  21
HETATM   21  N6  MIQ B 502     -10.283  -9.947  -1.891  1.00140.95    -0.377 N 
HETATM   22  C7  MIQ B 502     -10.067 -11.305  -1.423  1.00142.12     0.149 C 
HETATM   23  C8  MIQ B 502     -10.465 -11.473   0.038  1.00144.10     0.187 C 
HETATM   24  O9  MIQ B 502      -9.950 -10.469   0.860  1.00148.65    -0.388 OA
HETATM   25  C10 MIQ B 502      -9.346  -9.339   0.304  1.00147.44     0.187 C 
HETATM   26  C11 MIQ B 502      -9.830  -8.848  -1.056  1.00144.08     0.149 C 
ENDBRANCH   5  21
TORSDOF 2
ENDMDL
MODEL 3
REMARK VINA RESULT:      -7.1     16.248     18.355
REMARK  2 active torsions:
REMARK  status: ('A' for Active; 'I' for Inactive)
REMARK    1  A    between atoms: C5_5  and  N6_21 
REMARK    2  A    between atoms: C18_14  and  N17_19 
ROOT
HETATM    1  O1  MIQ B 502     -17.363 -12.347   9.752  1.00142.91    -0.171 OA
HETATM    2  C2  MIQ B 502     -17.603 -11.451  10.796  1.00141.17     0.195 A 
HETATM    3  C3  MIQ B 502     -18.890 -11.385  11.678  1.00141.71     0.035 A 
HETATM    4  C4  MIQ B 502     -20.149 -12.167  11.703  1.00142.86     0.046 A 
HETATM    5  C5  MIQ B 502     -21.162 -11.865  12.648  1.00139.53     0.031 A 
HETATM    6  C12 MIQ B 502     -20.963 -10.781  13.598  1.00139.38     0.030 A 
HETATM    7  C13 MIQ B 502     -19.756 -10.031  13.576  1.00141.18     0.019 A 
HETATM    8  C14 MIQ B 502     -18.695 -10.355  12.583  1.00138.77     0.033 A 
HETATM    9  C15 MIQ B 502     -17.278  -9.778  12.262  1.00142.10     0.195 A 
HETATM   10  N17 MIQ B 502     -16.811 -10.495  11.253  1.00139.42    -0.288 N 
HETATM   11  O16 MIQ B 502     -16.640  -8.718  12.909  1.00148.93    -0.171 OA
ENDROOT
BRANCH  10  12
HETATM   12  C18 MIQ B 502     -15.509 -10.228  10.672  1.00139.82     0.187 C 
HETATM   13  C19 MIQ B 502     -15.690 -10.109   9.154  1.00140.06     0.247 C 
HETATM   14  O25 MIQ B 502     -16.519  -9.386   8.728  1.00143.95    -0.271 OA
HETATM   15  N20 MIQ B 502     -14.866 -10.856   8.226  1.00140.02    -0.296 N 
HETATM   16  H13 MIQ B 502     -14.998 -10.774   7.237  1.00142.77     0.171 HD
HETATM   17  C21 MIQ B 502     -13.867 -11.739   8.770  1.00142.22     0.224 C 
HETATM   18  C22 MIQ B 502     -14.203 -12.420  10.083  1.00139.52     0.106 C 
HETATM   19  O24 MIQ B 502     -12.836 -11.919   8.222  1.00146.13    -0.273 OA
HETATM   20  C23 MIQ B 502     -14.513 -11.314  11.076  1.00139.15     0.045 C 
ENDBRANCH  10  12
BRANCH   5  21
HETATM   21  N6  MIQ B 502     -22.396 -12.629  12.651  1.00140.95    -0.377 N 
HETATM   22  C7  MIQ B 502     -23.247 -12.579  11.475  1.00142.12     0.149 C 
HETATM   23  C8  MIQ B 502     -24.707 -12.846  11.817  1.00144.10     0.187 C 
HETATM   24  O9  MIQ B 502     -24.878 -13.968  12.630  1.00148.65    -0.388 OA
HETATM   25  C10 MIQ B 502     -23.775 -14.589  13.220  1.00147.44     0.187 C 
HETATM   26  C11 MIQ B 502     -22.561 -13.737  13.576  1.00144.08     0.149 C 
ENDBRANCH   5  21
TORSDOF 2
ENDMDL
MODEL 4
REMARK VINA RESULT:      -7.1     12.606     14.951
REMARK  2 active torsions:
REMARK  status: ('A' for Active; 'I' for Inactive)
REMARK    1  A    between atoms: C5_5  and  N6_21 
REMARK    2  A    between atoms: C18_14  and  N17_19 
ROOT
HETATM    1  O1  MIQ B 502     -16.435 -13.511  10.233  1.00142.91    -0.171 OA
HETATM    2  C2  MIQ B 502     -15.611 -13.473   9.106  1.00141.17     0.195 A 
HETATM    3  C3  MIQ B 502     -15.406 -14.627   8.074  1.00141.71     0.035 A 
HETATM    4  C4  MIQ B 502     -15.959 -15.997   7.954  1.00142.86     0.046 A 
HETATM    5  C5  MIQ B 502     -15.575 -16.833   6.875  1.00139.53     0.031 A 
HETATM    6  C12 MIQ B 502     -14.633 -16.341   5.880  1.00139.38     0.030 A 
HETATM    7  C13 MIQ B 502     -14.104 -15.027   5.994  1.00141.18     0.019 A 
HETATM    8  C14 MIQ B 502     -14.513 -14.153   7.127  1.00138.77     0.033 A 
HETATM    9  C15 MIQ B 502     -14.161 -12.697   7.574  1.00142.10     0.195 A 
HETATM   10  N17 MIQ B 502     -14.853 -12.477   8.680  1.00139.42    -0.288 N 
HETATM   11  O16 MIQ B 502     -13.291 -11.813   6.934  1.00148.93    -0.171 OA
ENDROOT
BRANCH  10  12
HETATM   12  C18 MIQ B 502     -14.761 -11.217   9.393  1.00139.82     0.187 C 
HETATM   13  C19 MIQ B 502     -14.476 -11.532  10.867  1.00140.06     0.247 C 
HETATM   14  O25 MIQ B 502     -13.586 -12.257  11.138  1.00143.95    -0.271 OA
HETATM   15  N20 MIQ B 502     -15.266 -10.960  11.937  1.00140.02    -0.296 N 
HETATM   16  H13 MIQ B 502     -15.074 -11.179  12.895  1.00142.77     0.171 HD
HETATM   17  C21 MIQ B 502     -16.353 -10.086  11.580  1.00142.22     0.224 C 
HETATM   18  C22 MIQ B 502     -17.083 -10.399  10.288  1.00139.52     0.106 C 
HETATM   19  O24 MIQ B 502     -16.657  -9.167  12.259  1.00146.13    -0.273 OA
HETATM   20  C23 MIQ B 502     -16.035 -10.397   9.190  1.00139.15     0.045 C 
ENDBRANCH  10  12
BRANCH   5  21
HETATM   21  N6  MIQ B 502     -16.112 -18.178   6.778  1.00140.95    -0.377 N 
HETATM   22  C7  MIQ B 502     -17.389 -18.462   7.409  1.00142.12     0.149 C 
HETATM   23  C8  MIQ B 502     -17.519 -19.930   7.795  1.00144.10     0.187 C 
HETATM   24  O9  MIQ B 502     -17.157 -20.797   6.762  1.00148.65    -0.388 OA
HETATM   25  C10 MIQ B 502     -16.530 -20.307   5.613  1.00147.44     0.187 C 
HETATM   26  C11 MIQ B 502     -15.641 -19.074   5.737  1.00144.08     0.149 C 
ENDBRANCH   5  21
TORSDOF 2
ENDMDL
MODEL 5
REMARK VINA RESULT:      -7.0      3.013      4.783
REMARK  2 active torsions:
REMARK  status: ('A' for Active; 'I' for Inactive)
REMARK    1  A    between atoms: C5_5  and  N6_21 
REMARK    2  A    between atoms: C18_14  and  N17_19 
ROOT
HETATM    1  O1  MIQ B 502     -11.355  -8.389  -9.479  1.00142.91    -0.171 OA
HETATM    2  C2  MIQ B 502     -12.062  -7.744  -8.462  1.00141.17     0.195 A 
HETATM    3  C3  MIQ B 502     -11.998  -8.081  -6.938  1.00141.71     0.035 A 
HETATM    4  C4  MIQ B 502     -11.248  -9.085  -6.147  1.00142.86     0.046 A 
HETATM    5  C5  MIQ B 502     -11.402  -9.149  -4.739  1.00139.53     0.031 A 
HETATM    6  C12 MIQ B 502     -12.301  -8.222  -4.068  1.00139.38     0.030 A 
HETATM    7  C13 MIQ B 502     -13.020  -7.259  -4.825  1.00141.18     0.019 A 
HETATM    8  C14 MIQ B 502     -12.853  -7.195  -6.303  1.00138.77     0.033 A 
HETATM    9  C15 MIQ B 502     -13.450  -6.302  -7.439  1.00142.10     0.195 A 
HETATM   10  N17 MIQ B 502     -12.909  -6.734  -8.566  1.00139.42    -0.288 N 
HETATM   11  O16 MIQ B 502     -14.370  -5.262  -7.289  1.00148.93    -0.171 OA
ENDROOT
BRANCH  10  12
HETATM   12  C18 MIQ B 502     -13.248  -6.140  -9.846  1.00139.82     0.187 C 
HETATM   13  C19 MIQ B 502     -13.666  -7.273 -10.791  1.00140.06     0.247 C 
HETATM   14  O25 MIQ B 502     -14.481  -8.048 -10.436  1.00143.95    -0.271 OA
HETATM   15  N20 MIQ B 502     -13.091  -7.416 -12.113  1.00140.02    -0.296 N 
HETATM   16  H13 MIQ B 502     -13.368  -8.163 -12.718  1.00142.77     0.171 HD
HETATM   17  C21 MIQ B 502     -12.091  -6.463 -12.520  1.00142.22     0.224 C 
HETATM   18  C22 MIQ B 502     -11.177  -5.929 -11.435  1.00139.52     0.106 C 
HETATM   19  O24 MIQ B 502     -11.993  -6.112 -13.645  1.00146.13    -0.273 OA
HETATM   20  C23 MIQ B 502     -12.076  -5.316 -10.377  1.00139.15     0.045 C 
ENDBRANCH  10  12
BRANCH   5  21
HETATM   21  N6  MIQ B 502     -10.672 -10.147  -3.978  1.00140.95    -0.377 N 
HETATM   22  C7  MIQ B 502     -10.426  -9.903  -2.568  1.00142.12     0.149 C 
HETATM   23  C8  MIQ B 502      -9.180 -10.626  -2.074  1.00144.10     0.187 C 
HETATM   24  O9  MIQ B 502      -9.138 -11.966  -2.463  1.00148.65    -0.388 OA
HETATM   25  C10 MIQ B 502     -10.051 -12.459  -3.399  1.00147.44     0.187 C 
HETATM   26  C11 MIQ B 502     -10.584 -11.512  -4.469  1.00144.08     0.149 C 
ENDBRANCH   5  21
TORSDOF 2
ENDMDL
MODEL 6
REMARK VINA RESULT:      -7.0     11.006     14.030
REMARK  2 active torsions:
REMARK  status: ('A' for Active; 'I' for Inactive)
REMARK    1  A    between atoms: C5_5  and  N6_21 
REMARK    2  A    between atoms: C18_14  and  N17_19 
ROOT
HETATM    1  O1  MIQ B 502     -22.346  -4.829  -8.430  1.00142.91    -0.171 OA
HETATM    2  C2  MIQ B 502     -23.120  -5.432  -9.424  1.00141.17     0.195 A 
HETATM    3  C3  MIQ B 502     -23.129  -6.950  -9.792  1.00141.71     0.035 A 
HETATM    4  C4  MIQ B 502     -22.402  -8.130  -9.267  1.00142.86     0.046 A 
HETATM    5  C5  MIQ B 502     -22.629  -9.416  -9.819  1.00139.53     0.031 A 
HETATM    6  C12 MIQ B 502     -23.582  -9.577 -10.908  1.00139.38     0.030 A 
HETATM    7  C13 MIQ B 502     -24.280  -8.446 -11.411  1.00141.18     0.019 A 
HETATM    8  C14 MIQ B 502     -24.039  -7.099 -10.826  1.00138.77     0.033 A 
HETATM    9  C15 MIQ B 502     -24.600  -5.665 -11.100  1.00142.10     0.195 A 
HETATM   10  N17 MIQ B 502     -23.991  -4.865 -10.241  1.00139.42    -0.288 N 
HETATM   11  O16 MIQ B 502     -25.547  -5.308 -12.061  1.00148.93    -0.171 OA
ENDROOT
BRANCH  10  12
HETATM   12  C18 MIQ B 502     -24.256  -3.438 -10.216  1.00139.82     0.187 C 
HETATM   13  C19 MIQ B 502     -22.915  -2.711 -10.371  1.00140.06     0.247 C 
HETATM   14  O25 MIQ B 502     -22.197  -3.010 -11.258  1.00143.95    -0.271 OA
HETATM   15  N20 MIQ B 502     -22.507  -1.660  -9.462  1.00140.02    -0.296 N 
HETATM   16  H13 MIQ B 502     -21.626  -1.197  -9.571  1.00142.77     0.171 HD
HETATM   17  C21 MIQ B 502     -23.396  -1.320  -8.381  1.00142.22     0.224 C 
HETATM   18  C22 MIQ B 502     -24.215  -2.451  -7.791  1.00139.52     0.106 C 
HETATM   19  O24 MIQ B 502     -23.485  -0.212  -7.980  1.00146.13    -0.273 OA
HETATM   20  C23 MIQ B 502     -25.002  -3.058  -8.938  1.00139.15     0.045 C 
ENDBRANCH  10  12
BRANCH   5  21
HETATM   21  N6  MIQ B 502     -21.899 -10.561  -9.305  1.00140.95    -0.377 N 
HETATM   22  C7  MIQ B 502     -21.307 -10.469  -7.982  1.00142.12     0.149 C 
HETATM   23  C8  MIQ B 502     -20.100 -11.387  -7.834  1.00144.10     0.187 C 
HETATM   24  O9  MIQ B 502     -20.344 -12.684  -8.290  1.00148.65    -0.388 OA
HETATM   25  C10 MIQ B 502     -21.508 -12.974  -9.007  1.00147.44     0.187 C 
HETATM   26  C11 MIQ B 502     -22.125 -11.879  -9.870  1.00144.08     0.149 C 
ENDBRANCH   5  21
TORSDOF 2
ENDMDL
MODEL 7
REMARK VINA RESULT:      -6.9     12.677     14.310
REMARK  2 active torsions:
REMARK  status: ('A' for Active; 'I' for Inactive)
REMARK    1  A    between atoms: C5_5  and  N6_21 
REMARK    2  A    between atoms: C18_14  and  N17_19 
ROOT
HETATM    1  O1  MIQ B 502     -25.560  -5.062  -8.154  1.00142.91    -0.171 OA
HETATM    2  C2  MIQ B 502     -24.264  -4.822  -8.617  1.00141.17     0.195 A 
HETATM    3  C3  MIQ B 502     -23.255  -5.898  -9.131  1.00141.71     0.035 A 
HETATM    4  C4  MIQ B 502     -23.326  -7.371  -9.287  1.00142.86     0.046 A 
HETATM    5  C5  MIQ B 502     -22.217  -8.092  -9.796  1.00139.53     0.031 A 
HETATM    6  C12 MIQ B 502     -21.002  -7.382 -10.169  1.00139.38     0.030 A 
HETATM    7  C13 MIQ B 502     -20.934  -5.970 -10.021  1.00141.18     0.019 A 
HETATM    8  C14 MIQ B 502     -22.102  -5.218  -9.487  1.00138.77     0.033 A 
HETATM    9  C15 MIQ B 502     -22.397  -3.711  -9.194  1.00142.10     0.195 A 
HETATM   10  N17 MIQ B 502     -23.632  -3.666  -8.721  1.00139.42    -0.288 N 
HETATM   11  O16 MIQ B 502     -21.529  -2.635  -9.390  1.00148.93    -0.171 OA
ENDROOT
BRANCH  10  12
HETATM   12  C18 MIQ B 502     -24.245  -2.413  -8.321  1.00139.82     0.187 C 
HETATM   13  C19 MIQ B 502     -24.042  -1.408  -9.462  1.00140.06     0.247 C 
HETATM   14  O25 MIQ B 502     -24.344  -1.714 -10.560  1.00143.95    -0.271 OA
HETATM   15  N20 MIQ B 502     -23.495  -0.087  -9.228  1.00140.02    -0.296 N 
HETATM   16  H13 MIQ B 502     -23.362   0.557  -9.982  1.00142.77     0.171 HD
HETATM   17  C21 MIQ B 502     -23.124   0.260  -7.880  1.00142.22     0.224 C 
HETATM   18  C22 MIQ B 502     -22.593  -0.862  -7.009  1.00139.52     0.106 C 
HETATM   19  O24 MIQ B 502     -23.235   1.365  -7.474  1.00146.13    -0.273 OA
HETATM   20  C23 MIQ B 502     -23.663  -1.938  -6.991  1.00139.15     0.045 C 
ENDBRANCH  10  12
BRANCH   5  21
HETATM   21  N6  MIQ B 502     -22.296  -9.536  -9.929  1.00140.95    -0.377 N 
HETATM   22  C7  MIQ B 502     -21.758 -10.153 -11.129  1.00142.12     0.149 C 
HETATM   23  C8  MIQ B 502     -22.443 -11.477 -11.444  1.00144.10     0.187 C 
HETATM   24  O9  MIQ B 502     -22.538 -12.316 -10.332  1.00148.65    -0.388 OA
HETATM   25  C10 MIQ B 502     -22.234 -11.838  -9.055  1.00147.44     0.187 C 
HETATM   26  C11 MIQ B 502     -22.482 -10.364  -8.751  1.00144.08     0.149 C 
ENDBRANCH   5  21
TORSDOF 2
ENDMDL
MODEL 8
REMARK VINA RESULT:      -6.8     10.935     14.480
REMARK  2 active torsions:
REMARK  status: ('A' for Active; 'I' for Inactive)
REMARK    1  A    between atoms: C5_5  and  N6_21 
REMARK    2  A    between atoms: C18_14  and  N17_19 
ROOT
HETATM    1  O1  MIQ B 502     -22.028  -9.700  -8.233  1.00142.91    -0.171 OA
HETATM    2  C2  MIQ B 502     -21.635  -9.069  -9.416  1.00141.17     0.195 A 
HETATM    3  C3  MIQ B 502     -21.805  -7.553  -9.753  1.00141.71     0.035 A 
HETATM    4  C4  MIQ B 502     -22.373  -6.402  -9.012  1.00142.86     0.046 A 
HETATM    5  C5  MIQ B 502     -22.385  -5.110  -9.596  1.00139.53     0.031 A 
HETATM    6  C12 MIQ B 502     -21.835  -4.914 -10.930  1.00139.38     0.030 A 
HETATM    7  C13 MIQ B 502     -21.289  -6.018 -11.639  1.00141.18     0.019 A 
HETATM    8  C14 MIQ B 502     -21.277  -7.372 -11.021  1.00138.77     0.033 A 
HETATM    9  C15 MIQ B 502     -20.777  -8.782 -11.473  1.00142.10     0.195 A 
HETATM   10  N17 MIQ B 502     -21.047  -9.604 -10.472  1.00139.42    -0.288 N 
HETATM   11  O16 MIQ B 502     -20.171  -9.104 -12.689  1.00148.93    -0.171 OA
ENDROOT
BRANCH  10  12
HETATM   12  C18 MIQ B 502     -20.732 -11.018 -10.547  1.00139.82     0.187 C 
HETATM   13  C19 MIQ B 502     -21.987 -11.800 -10.140  1.00140.06     0.247 C 
HETATM   14  O25 MIQ B 502     -23.015 -11.550 -10.662  1.00143.95    -0.271 OA
HETATM   15  N20 MIQ B 502     -21.946 -12.842  -9.136  1.00140.02    -0.296 N 
HETATM   16  H13 MIQ B 502     -22.774 -13.341  -8.875  1.00142.77     0.171 HD
HETATM   17  C21 MIQ B 502     -20.682 -13.122  -8.505  1.00142.22     0.224 C 
HETATM   18  C22 MIQ B 502     -19.746 -11.946  -8.305  1.00139.52     0.106 C 
HETATM   19  O24 MIQ B 502     -20.389 -14.216  -8.167  1.00146.13    -0.273 OA
HETATM   20  C23 MIQ B 502     -19.517 -11.338  -9.677  1.00139.15     0.045 C 
ENDBRANCH  10  12
BRANCH   5  21
HETATM   21  N6  MIQ B 502     -22.958  -3.994  -8.865  1.00140.95    -0.377 N 
HETATM   22  C7  MIQ B 502     -22.149  -2.804  -8.668  1.00142.12     0.149 C 
HETATM   23  C8  MIQ B 502     -22.562  -2.035  -7.420  1.00144.10     0.187 C 
HETATM   24  O9  MIQ B 502     -23.942  -1.840  -7.334  1.00148.65    -0.388 OA
HETATM   25  C10 MIQ B 502     -24.807  -2.506  -8.206  1.00147.44     0.187 C 
HETATM   26  C11 MIQ B 502     -24.399  -3.880  -8.729  1.00144.08     0.149 C 
ENDBRANCH   5  21
TORSDOF 2
ENDMDL
MODEL 9
REMARK VINA RESULT:      -6.7     14.792     17.360
REMARK  2 active torsions:
REMARK  status: ('A' for Active; 'I' for Inactive)
REMARK    1  A    between atoms: C5_5  and  N6_21 
REMARK    2  A    between atoms: C18_14  and  N17_19 
ROOT
HETATM    1  O1  MIQ B 502     -23.516   0.768 -11.845  1.00142.91    -0.171 OA
HETATM    2  C2  MIQ B 502     -23.504   0.527 -10.470  1.00141.17     0.195 A 
HETATM    3  C3  MIQ B 502     -23.610  -0.870  -9.778  1.00141.71     0.035 A 
HETATM    4  C4  MIQ B 502     -23.742  -2.254 -10.291  1.00142.86     0.046 A 
HETATM    5  C5  MIQ B 502     -23.816  -3.348  -9.392  1.00139.53     0.031 A 
HETATM    6  C12 MIQ B 502     -23.761  -3.108  -7.957  1.00139.38     0.030 A 
HETATM    7  C13 MIQ B 502     -23.634  -1.781  -7.464  1.00141.18     0.019 A 
HETATM    8  C14 MIQ B 502     -23.555  -0.637  -8.413  1.00138.77     0.033 A 
HETATM    9  C15 MIQ B 502     -23.413   0.912  -8.257  1.00142.10     0.195 A 
HETATM   10  N17 MIQ B 502     -23.398   1.403  -9.486  1.00139.42    -0.288 N 
HETATM   11  O16 MIQ B 502     -23.323   1.627  -7.062  1.00148.93    -0.171 OA
ENDROOT
BRANCH  10  12
HETATM   12  C18 MIQ B 502     -23.292   2.829  -9.730  1.00139.82     0.187 C 
HETATM   13  C19 MIQ B 502     -24.465   3.238 -10.629  1.00140.06     0.247 C 
HETATM   14  O25 MIQ B 502     -25.561   2.924 -10.325  1.00143.95    -0.271 OA
HETATM   15  N20 MIQ B 502     -24.267   4.006 -11.841  1.00140.02    -0.296 N 
HETATM   16  H13 MIQ B 502     -25.041   4.261 -12.423  1.00142.77     0.171 HD
HETATM   17  C21 MIQ B 502     -22.920   4.369 -12.197  1.00142.22     0.224 C 
HETATM   18  C22 MIQ B 502     -21.829   3.382 -11.831  1.00139.52     0.106 C 
HETATM   19  O24 MIQ B 502     -22.679   5.389 -12.743  1.00146.13    -0.273 OA
HETATM   20  C23 MIQ B 502     -21.928   3.166 -10.332  1.00139.15     0.045 C 
ENDBRANCH  10  12
BRANCH   5  21
HETATM   21  N6  MIQ B 502     -23.959  -4.697  -9.908  1.00140.95    -0.377 N 
HETATM   22  C7  MIQ B 502     -23.717  -5.813  -9.010  1.00142.12     0.149 C 
HETATM   23  C8  MIQ B 502     -23.270  -7.060  -9.762  1.00144.10     0.187 C 
HETATM   24  O9  MIQ B 502     -24.075  -7.347 -10.866  1.00148.65    -0.388 OA
HETATM   25  C10 MIQ B 502     -25.020  -6.419 -11.312  1.00147.44     0.187 C 
HETATM   26  C11 MIQ B 502     -24.736  -4.934 -11.111  1.00144.08     0.149 C 
ENDBRANCH   5  21
TORSDOF 2
ENDMDL
