MODEL 1
REMARK VINA RESULT:      -6.5      0.000      0.000
REMARK  2 active torsions:
REMARK  status: ('A' for Active; 'I' for Inactive)
REMARK    1  A    between atoms: C5_5  and  N6_21 
REMARK    2  A    between atoms: C18_14  and  N17_19 
ROOT
HETATM    1  O1  MIQ B 502     -17.647 -14.489  -4.558  1.00142.91    -0.171 OA
HETATM    2  C2  MIQ B 502     -18.059 -15.676  -3.948  1.00141.17     0.195 A 
HETATM    3  C3  MIQ B 502     -19.485 -15.976  -3.384  1.00141.71     0.035 A 
HETATM    4  C4  MIQ B 502     -20.740 -15.191  -3.316  1.00142.86     0.046 A 
HETATM    5  C5  MIQ B 502     -21.904 -15.749  -2.730  1.00139.53     0.031 A 
HETATM    6  C12 MIQ B 502     -21.864 -17.101  -2.191  1.00139.38     0.030 A 
HETATM    7  C13 MIQ B 502     -20.661 -17.854  -2.257  1.00141.18     0.019 A 
HETATM    8  C14 MIQ B 502     -19.443 -17.264  -2.876  1.00138.77     0.033 A 
HETATM    9  C15 MIQ B 502     -17.984 -17.767  -3.127  1.00142.10     0.195 A 
HETATM   10  N17 MIQ B 502     -17.353 -16.771  -3.728  1.00139.42    -0.288 N 
HETATM   11  O16 MIQ B 502     -17.458 -19.013  -2.781  1.00148.93    -0.171 OA
ENDROOT
BRANCH  10  12
HETATM   12  C18 MIQ B 502     -15.955 -16.877  -4.103  1.00139.82     0.187 C 
HETATM   13  C19 MIQ B 502     -15.216 -15.677  -3.497  1.00140.06     0.247 C 
HETATM   14  O25 MIQ B 502     -15.347 -15.440  -2.349  1.00143.95    -0.271 OA
HETATM   15  N20 MIQ B 502     -14.355 -14.828  -4.295  1.00140.02    -0.296 N 
HETATM   16  H13 MIQ B 502     -13.884 -14.044  -3.889  1.00142.77     0.171 HD
HETATM   17  C21 MIQ B 502     -14.220 -15.132  -5.696  1.00142.22     0.224 C 
HETATM   18  C22 MIQ B 502     -15.439 -15.710  -6.389  1.00139.52     0.106 C 
HETATM   19  O24 MIQ B 502     -13.206 -14.945  -6.274  1.00146.13    -0.273 OA
HETATM   20  C23 MIQ B 502     -15.817 -16.963  -5.622  1.00139.15     0.045 C 
ENDBRANCH  10  12
BRANCH   5  21
HETATM   21  N6  MIQ B 502     -23.122 -14.963  -2.657  1.00140.95    -0.377 N 
HETATM   22  C7  MIQ B 502     -23.611 -14.559  -1.350  1.00142.12     0.149 C 
HETATM   23  C8  MIQ B 502     -25.119 -14.344  -1.349  1.00144.10     0.187 C 
HETATM   24  O9  MIQ B 502     -25.557 -13.561  -2.418  1.00148.65    -0.388 OA
HETATM   25  C10 MIQ B 502     -24.688 -13.243  -3.465  1.00147.44     0.187 C 
HETATM   26  C11 MIQ B 502     -23.585 -14.233  -3.824  1.00144.08     0.149 C 
ENDBRANCH   5  21
TORSDOF 2
ENDMDL
MODEL 2
REMARK VINA RESULT:      -6.2      3.872      4.892
REMARK  2 active torsions:
REMARK  status: ('A' for Active; 'I' for Inactive)
REMARK    1  A    between atoms: C5_5  and  N6_21 
REMARK    2  A    between atoms: C18_14  and  N17_19 
ROOT
HETATM    1  O1  MIQ B 502     -14.700 -15.578  -7.546  1.00142.91    -0.171 OA
HETATM    2  C2  MIQ B 502     -15.181 -15.386  -6.249  1.00141.17     0.195 A 
HETATM    3  C3  MIQ B 502     -16.507 -14.660  -5.855  1.00141.71     0.035 A 
HETATM    4  C4  MIQ B 502     -17.582 -14.006  -6.639  1.00142.86     0.046 A 
HETATM    5  C5  MIQ B 502     -18.692 -13.419  -5.981  1.00139.53     0.031 A 
HETATM    6  C12 MIQ B 502     -18.776 -13.460  -4.528  1.00139.38     0.030 A 
HETATM    7  C13 MIQ B 502     -17.746 -14.087  -3.777  1.00141.18     0.019 A 
HETATM    8  C14 MIQ B 502     -16.583 -14.704  -4.473  1.00138.77     0.033 A 
HETATM    9  C15 MIQ B 502     -15.298 -15.462  -4.006  1.00142.10     0.195 A 
HETATM   10  N17 MIQ B 502     -14.635 -15.771  -5.108  1.00139.42    -0.288 N 
HETATM   11  O16 MIQ B 502     -14.929 -15.750  -2.690  1.00148.93    -0.171 OA
ENDROOT
BRANCH  10  12
HETATM   12  C18 MIQ B 502     -13.368 -16.475  -5.057  1.00139.82     0.187 C 
HETATM   13  C19 MIQ B 502     -12.366 -15.698  -5.919  1.00140.06     0.247 C 
HETATM   14  O25 MIQ B 502     -12.233 -14.539  -5.744  1.00143.95    -0.271 OA
HETATM   15  N20 MIQ B 502     -11.572 -16.348  -6.942  1.00140.02    -0.296 N 
HETATM   16  H13 MIQ B 502     -10.926 -15.828  -7.502  1.00142.77     0.171 HD
HETATM   17  C21 MIQ B 502     -11.760 -17.762  -7.144  1.00142.22     0.224 C 
HETATM   18  C22 MIQ B 502     -13.159 -18.302  -6.922  1.00139.52     0.106 C 
HETATM   19  O24 MIQ B 502     -10.864 -18.465  -7.461  1.00146.13    -0.273 OA
HETATM   20  C23 MIQ B 502     -13.547 -17.925  -5.504  1.00139.15     0.045 C 
ENDBRANCH  10  12
BRANCH   5  21
HETATM   21  N6  MIQ B 502     -19.731 -12.770  -6.760  1.00140.95    -0.377 N 
HETATM   22  C7  MIQ B 502     -19.861 -13.112  -8.166  1.00142.12     0.149 C 
HETATM   23  C8  MIQ B 502     -20.478 -11.977  -8.973  1.00144.10     0.187 C 
HETATM   24  O9  MIQ B 502     -21.626 -11.449  -8.378  1.00148.65    -0.388 OA
HETATM   25  C10 MIQ B 502     -21.976 -11.808  -7.074  1.00147.44     0.187 C 
HETATM   26  C11 MIQ B 502     -20.865 -12.158  -6.090  1.00144.08     0.149 C 
ENDBRANCH   5  21
TORSDOF 2
ENDMDL
MODEL 3
REMARK VINA RESULT:      -6.2      2.635      3.215
REMARK  2 active torsions:
REMARK  status: ('A' for Active; 'I' for Inactive)
REMARK    1  A    between atoms: C5_5  and  N6_21 
REMARK    2  A    between atoms: C18_14  and  N17_19 
ROOT
HETATM    1  O1  MIQ B 502     -17.077 -13.294  -6.025  1.00142.91    -0.171 OA
HETATM    2  C2  MIQ B 502     -17.943 -14.030  -5.213  1.00141.17     0.195 A 
HETATM    3  C3  MIQ B 502     -19.460 -13.738  -4.980  1.00141.71     0.035 A 
HETATM    4  C4  MIQ B 502     -20.388 -12.701  -5.489  1.00142.86     0.046 A 
HETATM    5  C5  MIQ B 502     -21.748 -12.696  -5.088  1.00139.53     0.031 A 
HETATM    6  C12 MIQ B 502     -22.234 -13.718  -4.172  1.00139.38     0.030 A 
HETATM    7  C13 MIQ B 502     -21.345 -14.713  -3.684  1.00141.18     0.019 A 
HETATM    8  C14 MIQ B 502     -19.919 -14.714  -4.111  1.00138.77     0.033 A 
HETATM    9  C15 MIQ B 502     -18.680 -15.617  -3.802  1.00142.10     0.195 A 
HETATM   10  N17 MIQ B 502     -17.674 -15.104  -4.491  1.00139.42    -0.288 N 
HETATM   11  O16 MIQ B 502     -18.648 -16.736  -2.967  1.00148.93    -0.171 OA
ENDROOT
BRANCH  10  12
HETATM   12  C18 MIQ B 502     -16.344 -15.683  -4.433  1.00139.82     0.187 C 
HETATM   13  C19 MIQ B 502     -15.367 -14.569  -4.037  1.00140.06     0.247 C 
HETATM   14  O25 MIQ B 502     -15.600 -13.908  -3.089  1.00143.95    -0.271 OA
HETATM   15  N20 MIQ B 502     -14.158 -14.309  -4.793  1.00140.02    -0.296 N 
HETATM   16  H13 MIQ B 502     -13.532 -13.575  -4.528  1.00142.77     0.171 HD
HETATM   17  C21 MIQ B 502     -13.900 -15.123  -5.953  1.00142.22     0.224 C 
HETATM   18  C22 MIQ B 502     -15.109 -15.589  -6.741  1.00139.52     0.106 C 
HETATM   19  O24 MIQ B 502     -12.800 -15.416  -6.270  1.00146.13    -0.273 OA
HETATM   20  C23 MIQ B 502     -15.995 -16.344  -5.766  1.00139.15     0.045 C 
ENDBRANCH  10  12
BRANCH   5  21
HETATM   21  N6  MIQ B 502     -22.642 -11.665  -5.582  1.00140.95    -0.377 N 
HETATM   22  C7  MIQ B 502     -24.027 -11.679  -5.145  1.00142.12     0.149 C 
HETATM   23  C8  MIQ B 502     -24.951 -11.022  -6.162  1.00144.10     0.187 C 
HETATM   24  O9  MIQ B 502     -24.478  -9.786  -6.607  1.00148.65    -0.388 OA
HETATM   25  C10 MIQ B 502     -23.182  -9.370  -6.294  1.00147.44     0.187 C 
HETATM   26  C11 MIQ B 502     -22.098 -10.429  -6.116  1.00144.08     0.149 C 
ENDBRANCH   5  21
TORSDOF 2
ENDMDL
MODEL 4
REMARK VINA RESULT:      -6.1      3.353      5.965
REMARK  2 active torsions:
REMARK  status: ('A' for Active; 'I' for Inactive)
REMARK    1  A    between atoms: C5_5  and  N6_21 
REMARK    2  A    between atoms: C18_14  and  N17_19 
ROOT
HETATM    1  O1  MIQ B 502     -13.756 -19.002  -6.222  1.00142.91    -0.171 OA
HETATM    2  C2  MIQ B 502     -13.742 -17.654  -5.858  1.00141.17     0.195 A 
HETATM    3  C3  MIQ B 502     -14.863 -16.899  -5.075  1.00141.71     0.035 A 
HETATM    4  C4  MIQ B 502     -16.171 -17.315  -4.515  1.00142.86     0.046 A 
HETATM    5  C5  MIQ B 502     -16.990 -16.377  -3.836  1.00139.53     0.031 A 
HETATM    6  C12 MIQ B 502     -16.542 -15.000  -3.688  1.00139.38     0.030 A 
HETATM    7  C13 MIQ B 502     -15.288 -14.602  -4.224  1.00141.18     0.019 A 
HETATM    8  C14 MIQ B 502     -14.432 -15.591  -4.934  1.00138.77     0.033 A 
HETATM    9  C15 MIQ B 502     -13.034 -15.533  -5.633  1.00142.10     0.195 A 
HETATM   10  N17 MIQ B 502     -12.802 -16.754  -6.086  1.00139.42    -0.288 N 
HETATM   11  O16 MIQ B 502     -12.205 -14.416  -5.753  1.00148.93    -0.171 OA
ENDROOT
BRANCH  10  12
HETATM   12  C18 MIQ B 502     -11.587 -17.073  -6.813  1.00139.82     0.187 C 
HETATM   13  C19 MIQ B 502     -11.994 -17.731  -8.138  1.00140.06     0.247 C 
HETATM   14  O25 MIQ B 502     -12.791 -17.198  -8.825  1.00143.95    -0.271 OA
HETATM   15  N20 MIQ B 502     -11.422 -18.989  -8.573  1.00140.02    -0.296 N 
HETATM   16  H13 MIQ B 502     -11.701 -19.411  -9.437  1.00142.77     0.171 HD
HETATM   17  C21 MIQ B 502     -10.459 -19.626  -7.712  1.00142.22     0.224 C 
HETATM   18  C22 MIQ B 502     -10.657 -19.448  -6.219  1.00139.52     0.106 C 
HETATM   19  O24 MIQ B 502      -9.557 -20.251  -8.151  1.00146.13    -0.273 OA
HETATM   20  C23 MIQ B 502     -10.673 -17.952  -5.961  1.00139.15     0.045 C 
ENDBRANCH  10  12
BRANCH   5  21
HETATM   21  N6  MIQ B 502     -18.275 -16.794  -3.305  1.00140.95    -0.377 N 
HETATM   22  C7  MIQ B 502     -19.477 -16.151  -3.809  1.00142.12     0.149 C 
HETATM   23  C8  MIQ B 502     -20.608 -16.180  -2.789  1.00144.10     0.187 C 
HETATM   24  O9  MIQ B 502     -20.799 -17.442  -2.225  1.00148.65    -0.388 OA
HETATM   25  C10 MIQ B 502     -19.868 -18.462  -2.440  1.00147.44     0.187 C 
HETATM   26  C11 MIQ B 502     -18.406 -18.083  -2.648  1.00144.08     0.149 C 
ENDBRANCH   5  21
TORSDOF 2
ENDMDL
MODEL 5
REMARK VINA RESULT:      -6.1     24.694     26.153
REMARK  2 active torsions:
REMARK  status: ('A' for Active; 'I' for Inactive)
REMARK    1  A    between atoms: C5_5  and  N6_21 
REMARK    2  A    between atoms: C18_14  and  N17_19 
ROOT
HETATM    1  O1  MIQ B 502      -9.959   0.404  13.857  1.00142.91    -0.171 OA
HETATM    2  C2  MIQ B 502     -10.811   1.499  14.021  1.00141.17     0.195 A 
HETATM    3  C3  MIQ B 502     -11.601   2.231  12.890  1.00141.71     0.035 A 
HETATM    4  C4  MIQ B 502     -11.703   2.031  11.425  1.00142.86     0.046 A 
HETATM    5  C5  MIQ B 502     -12.526   2.879  10.641  1.00139.53     0.031 A 
HETATM    6  C12 MIQ B 502     -13.274   3.952  11.280  1.00139.38     0.030 A 
HETATM    7  C13 MIQ B 502     -13.176   4.144  12.685  1.00141.18     0.019 A 
HETATM    8  C14 MIQ B 502     -12.313   3.249  13.503  1.00138.77     0.033 A 
HETATM    9  C15 MIQ B 502     -11.964   3.147  15.024  1.00142.10     0.195 A 
HETATM   10  N17 MIQ B 502     -11.127   2.130  15.139  1.00139.42    -0.288 N 
HETATM   11  O16 MIQ B 502     -12.440   3.969  16.047  1.00148.93    -0.171 OA
ENDROOT
BRANCH  10  12
HETATM   12  C18 MIQ B 502     -10.573   1.747  16.424  1.00139.82     0.187 C 
HETATM   13  C19 MIQ B 502      -9.048   1.892  16.339  1.00140.06     0.247 C 
HETATM   14  O25 MIQ B 502      -8.588   2.904  15.944  1.00143.95    -0.271 OA
HETATM   15  N20 MIQ B 502      -8.156   0.822  16.734  1.00140.02    -0.296 N 
HETATM   16  H13 MIQ B 502      -7.163   0.927  16.667  1.00142.77     0.171 HD
HETATM   17  C21 MIQ B 502      -8.743  -0.407  17.203  1.00142.22     0.224 C 
HETATM   18  C22 MIQ B 502     -10.060  -0.817  16.573  1.00139.52     0.106 C 
HETATM   19  O24 MIQ B 502      -8.224  -1.060  18.040  1.00146.13    -0.273 OA
HETATM   20  C23 MIQ B 502     -11.022   0.335  16.798  1.00139.15     0.045 C 
ENDBRANCH  10  12
BRANCH   5  21
HETATM   21  N6  MIQ B 502     -12.605   2.680   9.205  1.00140.95    -0.377 N 
HETATM   22  C7  MIQ B 502     -11.931   1.532   8.625  1.00142.12     0.149 C 
HETATM   23  C8  MIQ B 502     -11.543   1.776   7.172  1.00144.10     0.187 C 
HETATM   24  O9  MIQ B 502     -12.588   2.301   6.411  1.00148.65    -0.388 OA
HETATM   25  C10 MIQ B 502     -13.758   2.751   7.030  1.00147.44     0.187 C 
HETATM   26  C11 MIQ B 502     -13.663   3.319   8.442  1.00144.08     0.149 C 
ENDBRANCH   5  21
TORSDOF 2
ENDMDL
MODEL 6
REMARK VINA RESULT:      -6.0     24.705     26.096
REMARK  2 active torsions:
REMARK  status: ('A' for Active; 'I' for Inactive)
REMARK    1  A    between atoms: C5_5  and  N6_21 
REMARK    2  A    between atoms: C18_14  and  N17_19 
ROOT
HETATM    1  O1  MIQ B 502      -9.530  -0.630  13.253  1.00142.91    -0.171 OA
HETATM    2  C2  MIQ B 502     -10.168   0.228  14.152  1.00141.17     0.195 A 
HETATM    3  C3  MIQ B 502     -10.921   1.548  13.792  1.00141.71     0.035 A 
HETATM    4  C4  MIQ B 502     -11.185   2.254  12.516  1.00142.86     0.046 A 
HETATM    5  C5  MIQ B 502     -11.920   3.467  12.507  1.00139.53     0.031 A 
HETATM    6  C12 MIQ B 502     -12.418   4.019  13.758  1.00139.38     0.030 A 
HETATM    7  C13 MIQ B 502     -12.166   3.341  14.981  1.00141.18     0.019 A 
HETATM    8  C14 MIQ B 502     -11.396   2.068  14.984  1.00138.77     0.033 A 
HETATM    9  C15 MIQ B 502     -10.936   1.064  16.092  1.00142.10     0.195 A 
HETATM   10  N17 MIQ B 502     -10.274   0.106  15.464  1.00139.42    -0.288 N 
HETATM   11  O16 MIQ B 502     -11.176   1.165  17.463  1.00148.93    -0.171 OA
ENDROOT
BRANCH  10  12
HETATM   12  C18 MIQ B 502      -9.680  -1.003  16.187  1.00139.82     0.187 C 
HETATM   13  C19 MIQ B 502      -8.187  -1.043  15.839  1.00140.06     0.247 C 
HETATM   14  O25 MIQ B 502      -7.546  -0.058  15.939  1.00143.95    -0.271 OA
HETATM   15  N20 MIQ B 502      -7.539  -2.260  15.394  1.00140.02    -0.296 N 
HETATM   16  H13 MIQ B 502      -6.565  -2.271  15.163  1.00142.77     0.171 HD
HETATM   17  C21 MIQ B 502      -8.346  -3.447  15.269  1.00142.22     0.224 C 
HETATM   18  C22 MIQ B 502      -9.788  -3.249  14.845  1.00139.52     0.106 C 
HETATM   19  O24 MIQ B 502      -7.904  -4.520  15.493  1.00146.13    -0.273 OA
HETATM   20  C23 MIQ B 502     -10.410  -2.304  15.857  1.00139.15     0.045 C 
ENDBRANCH  10  12
BRANCH   5  21
HETATM   21  N6  MIQ B 502     -12.158   4.156  11.251  1.00140.95    -0.377 N 
HETATM   22  C7  MIQ B 502     -13.103   3.579  10.311  1.00142.12     0.149 C 
HETATM   23  C8  MIQ B 502     -12.794   3.982   8.875  1.00144.10     0.187 C 
HETATM   24  O9  MIQ B 502     -12.571   5.353   8.731  1.00148.65    -0.388 OA
HETATM   25  C10 MIQ B 502     -12.428   6.168   9.857  1.00147.44     0.187 C 
HETATM   26  C11 MIQ B 502     -11.830   5.565  11.123  1.00144.08     0.149 C 
ENDBRANCH   5  21
TORSDOF 2
ENDMDL
MODEL 7
REMARK VINA RESULT:      -6.0     24.227     25.718
REMARK  2 active torsions:
REMARK  status: ('A' for Active; 'I' for Inactive)
REMARK    1  A    between atoms: C5_5  and  N6_21 
REMARK    2  A    between atoms: C18_14  and  N17_19 
ROOT
HETATM    1  O1  MIQ B 502     -10.694   1.459  13.124  1.00142.91    -0.171 OA
HETATM    2  C2  MIQ B 502     -11.626   2.470  12.876  1.00141.17     0.195 A 
HETATM    3  C3  MIQ B 502     -12.283   2.801  11.498  1.00141.71     0.035 A 
HETATM    4  C4  MIQ B 502     -12.155   2.218  10.142  1.00142.86     0.046 A 
HETATM    5  C5  MIQ B 502     -12.903   2.748   9.060  1.00139.53     0.031 A 
HETATM    6  C12 MIQ B 502     -13.801   3.872   9.285  1.00139.38     0.030 A 
HETATM    7  C13 MIQ B 502     -13.924   4.431  10.585  1.00141.18     0.019 A 
HETATM    8  C14 MIQ B 502     -13.139   3.868  11.718  1.00138.77     0.033 A 
HETATM    9  C15 MIQ B 502     -13.013   4.200  13.240  1.00142.10     0.195 A 
HETATM   10  N17 MIQ B 502     -12.142   3.335  13.732  1.00139.42    -0.288 N 
HETATM   11  O16 MIQ B 502     -13.685   5.209  13.934  1.00148.93    -0.171 OA
ENDROOT
BRANCH  10  12
HETATM   12  C18 MIQ B 502     -11.762   3.356  15.132  1.00139.82     0.187 C 
HETATM   13  C19 MIQ B 502     -10.231   3.408  15.201  1.00140.06     0.247 C 
HETATM   14  O25 MIQ B 502      -9.654   4.225  14.576  1.00143.95    -0.271 OA
HETATM   15  N20 MIQ B 502      -9.471   2.484  16.018  1.00140.02    -0.296 N 
HETATM   16  H13 MIQ B 502      -8.471   2.524  16.048  1.00142.77     0.171 HD
HETATM   17  C21 MIQ B 502     -10.198   1.488  16.763  1.00142.22     0.224 C 
HETATM   18  C22 MIQ B 502     -11.466   0.952  16.128  1.00139.52     0.106 C 
HETATM   19  O24 MIQ B 502      -9.824   1.114  17.820  1.00146.13    -0.273 OA
HETATM   20  C23 MIQ B 502     -12.356   2.153  15.863  1.00139.15     0.045 C 
ENDBRANCH  10  12
BRANCH   5  21
HETATM   21  N6  MIQ B 502     -12.756   2.176   7.734  1.00140.95    -0.377 N 
HETATM   22  C7  MIQ B 502     -13.761   2.483   6.731  1.00142.12     0.149 C 
HETATM   23  C8  MIQ B 502     -13.868   1.387   5.678  1.00144.10     0.187 C 
HETATM   24  O9  MIQ B 502     -12.625   0.992   5.178  1.00148.65    -0.388 OA
HETATM   25  C10 MIQ B 502     -11.446   1.426   5.788  1.00147.44     0.187 C 
HETATM   26  C11 MIQ B 502     -11.459   1.699   7.289  1.00144.08     0.149 C 
ENDBRANCH   5  21
TORSDOF 2
ENDMDL
MODEL 8
REMARK VINA RESULT:      -5.9      1.482      2.599
REMARK  2 active torsions:
REMARK  status: ('A' for Active; 'I' for Inactive)
REMARK    1  A    between atoms: C5_5  and  N6_21 
REMARK    2  A    between atoms: C18_14  and  N17_19 
ROOT
HETATM    1  O1  MIQ B 502     -18.103 -18.239  -2.484  1.00142.91    -0.171 OA
HETATM    2  C2  MIQ B 502     -18.498 -17.034  -3.069  1.00141.17     0.195 A 
HETATM    3  C3  MIQ B 502     -19.931 -16.414  -3.027  1.00141.71     0.035 A 
HETATM    4  C4  MIQ B 502     -21.211 -16.847  -2.417  1.00142.86     0.046 A 
HETATM    5  C5  MIQ B 502     -22.375 -16.049  -2.552  1.00139.53     0.031 A 
HETATM    6  C12 MIQ B 502     -22.312 -14.798  -3.293  1.00139.38     0.030 A 
HETATM    7  C13 MIQ B 502     -21.085 -14.382  -3.876  1.00141.18     0.019 A 
HETATM    8  C14 MIQ B 502     -19.865 -15.222  -3.730  1.00138.77     0.033 A 
HETATM    9  C15 MIQ B 502     -18.382 -15.101  -4.210  1.00142.10     0.195 A 
HETATM   10  N17 MIQ B 502     -17.763 -16.179  -3.760  1.00139.42    -0.288 N 
HETATM   11  O16 MIQ B 502     -17.831 -14.064  -4.964  1.00148.93    -0.171 OA
ENDROOT
BRANCH  10  12
HETATM   12  C18 MIQ B 502     -16.357 -16.415  -4.032  1.00139.82     0.187 C 
HETATM   13  C19 MIQ B 502     -15.573 -15.197  -3.529  1.00140.06     0.247 C 
HETATM   14  O25 MIQ B 502     -15.750 -14.812  -2.428  1.00143.95    -0.271 OA
HETATM   15  N20 MIQ B 502     -14.615 -14.506  -4.367  1.00140.02    -0.296 N 
HETATM   16  H13 MIQ B 502     -14.114 -13.708  -4.029  1.00142.77     0.171 HD
HETATM   17  C21 MIQ B 502     -14.424 -14.987  -5.711  1.00142.22     0.224 C 
HETATM   18  C22 MIQ B 502     -15.640 -15.571  -6.405  1.00139.52     0.106 C 
HETATM   19  O24 MIQ B 502     -13.370 -14.934  -6.243  1.00146.13    -0.273 OA
HETATM   20  C23 MIQ B 502     -16.143 -16.695  -5.518  1.00139.15     0.045 C 
ENDBRANCH  10  12
BRANCH   5  21
HETATM   21  N6  MIQ B 502     -23.626 -16.493  -1.962  1.00140.95    -0.377 N 
HETATM   22  C7  MIQ B 502     -23.811 -17.912  -1.713  1.00142.12     0.149 C 
HETATM   23  C8  MIQ B 502     -25.283 -18.304  -1.726  1.00144.10     0.187 C 
HETATM   24  O9  MIQ B 502     -26.078 -17.454  -0.954  1.00148.65    -0.388 OA
HETATM   25  C10 MIQ B 502     -25.555 -16.261  -0.449  1.00147.44     0.187 C 
HETATM   26  C11 MIQ B 502     -24.463 -15.550  -1.241  1.00144.08     0.149 C 
ENDBRANCH   5  21
TORSDOF 2
ENDMDL
MODEL 9
REMARK VINA RESULT:      -5.9      1.470      2.000
REMARK  2 active torsions:
REMARK  status: ('A' for Active; 'I' for Inactive)
REMARK    1  A    between atoms: C5_5  and  N6_21 
REMARK    2  A    between atoms: C18_14  and  N17_19 
ROOT
HETATM    1  O1  MIQ B 502     -19.094 -12.906  -5.097  1.00142.91    -0.171 OA
HETATM    2  C2  MIQ B 502     -19.085 -14.167  -4.496  1.00141.17     0.195 A 
HETATM    3  C3  MIQ B 502     -20.275 -14.835  -3.737  1.00141.71     0.035 A 
HETATM    4  C4  MIQ B 502     -21.661 -14.405  -3.435  1.00142.86     0.046 A 
HETATM    5  C5  MIQ B 502     -22.532 -15.254  -2.707  1.00139.53     0.031 A 
HETATM    6  C12 MIQ B 502     -22.062 -16.556  -2.255  1.00139.38     0.030 A 
HETATM    7  C13 MIQ B 502     -20.733 -16.969  -2.545  1.00141.18     0.019 A 
HETATM    8  C14 MIQ B 502     -19.824 -16.074  -3.312  1.00138.77     0.033 A 
HETATM    9  C15 MIQ B 502     -18.346 -16.176  -3.811  1.00142.10     0.195 A 
HETATM   10  N17 MIQ B 502     -18.096 -15.043  -4.447  1.00139.42    -0.288 N 
HETATM   11  O16 MIQ B 502     -17.470 -17.246  -3.619  1.00148.93    -0.171 OA
ENDROOT
BRANCH  10  12
HETATM   12  C18 MIQ B 502     -16.798 -14.776  -5.038  1.00139.82     0.187 C 
HETATM   13  C19 MIQ B 502     -16.464 -15.940  -5.979  1.00140.06     0.247 C 
HETATM   14  O25 MIQ B 502     -17.256 -16.273  -6.788  1.00143.95    -0.271 OA
HETATM   15  N20 MIQ B 502     -15.199 -16.642  -5.907  1.00140.02    -0.296 N 
HETATM   16  H13 MIQ B 502     -14.996 -17.404  -6.522  1.00142.77     0.171 HD
HETATM   17  C21 MIQ B 502     -14.253 -16.224  -4.904  1.00142.22     0.224 C 
HETATM   18  C22 MIQ B 502     -14.826 -15.717  -3.595  1.00139.52     0.106 C 
HETATM   19  O24 MIQ B 502     -13.088 -16.271  -5.097  1.00146.13    -0.273 OA
HETATM   20  C23 MIQ B 502     -15.750 -14.566  -3.946  1.00139.15     0.045 C 
ENDBRANCH  10  12
BRANCH   5  21
HETATM   21  N6  MIQ B 502     -23.882 -14.815  -2.405  1.00140.95    -0.377 N 
HETATM   22  C7  MIQ B 502     -24.271 -14.669  -1.013  1.00142.12     0.149 C 
HETATM   23  C8  MIQ B 502     -25.771 -14.846  -0.820  1.00144.10     0.187 C 
HETATM   24  O9  MIQ B 502     -26.527 -14.105  -1.731  1.00148.65    -0.388 OA
HETATM   25  C10 MIQ B 502     -25.912 -13.482  -2.820  1.00147.44     0.187 C 
HETATM   26  C11 MIQ B 502     -24.663 -14.122  -3.416  1.00144.08     0.149 C 
ENDBRANCH   5  21
TORSDOF 2
ENDMDL
