MODEL 1
REMARK VINA RESULT:      -7.4      0.000      0.000
REMARK  2 active torsions:
REMARK  status: ('A' for Active; 'I' for Inactive)
REMARK    1  A    between atoms: C5_5  and  N6_21 
REMARK    2  A    between atoms: C18_14  and  N17_19 
ROOT
HETATM    1  O1  MIQ B 502      -7.210  -7.664   0.049  1.00142.91    -0.171 OA
HETATM    2  C2  MIQ B 502      -8.543  -7.718  -0.362  1.00141.17     0.195 A 
HETATM    3  C3  MIQ B 502      -9.399  -9.011  -0.550  1.00141.71     0.035 A 
HETATM    4  C4  MIQ B 502      -9.115 -10.455  -0.372  1.00142.86     0.046 A 
HETATM    5  C5  MIQ B 502     -10.123 -11.420  -0.626  1.00139.53     0.031 A 
HETATM    6  C12 MIQ B 502     -11.443 -10.989  -1.063  1.00139.38     0.030 A 
HETATM    7  C13 MIQ B 502     -11.715  -9.604  -1.233  1.00141.18     0.019 A 
HETATM    8  C14 MIQ B 502     -10.654  -8.596  -0.963  1.00138.77     0.033 A 
HETATM    9  C15 MIQ B 502     -10.578  -7.036  -1.031  1.00142.10     0.195 A 
HETATM   10  N17 MIQ B 502      -9.348  -6.714  -0.667  1.00139.42    -0.288 N 
HETATM   11  O16 MIQ B 502     -11.603  -6.164  -1.404  1.00148.93    -0.171 OA
ENDROOT
BRANCH  10  12
HETATM   12  C18 MIQ B 502      -8.906  -5.332  -0.628  1.00139.82     0.187 C 
HETATM   13  C19 MIQ B 502      -7.604  -5.234  -1.431  1.00140.06     0.247 C 
HETATM   14  O25 MIQ B 502      -7.567  -5.677  -2.524  1.00143.95    -0.271 OA
HETATM   15  N20 MIQ B 502      -6.417  -4.606  -0.888  1.00140.02    -0.296 N 
HETATM   16  H13 MIQ B 502      -5.571  -4.554  -1.421  1.00142.77     0.171 HD
HETATM   17  C21 MIQ B 502      -6.484  -4.082   0.451  1.00142.22     0.224 C 
HETATM   18  C22 MIQ B 502      -7.369  -4.828   1.431  1.00139.52     0.106 C 
HETATM   19  O24 MIQ B 502      -5.882  -3.115   0.767  1.00146.13    -0.273 OA
HETATM   20  C23 MIQ B 502      -8.757  -4.863   0.819  1.00139.15     0.045 C 
ENDBRANCH  10  12
BRANCH   5  21
HETATM   21  N6  MIQ B 502      -9.827 -12.832  -0.461  1.00140.95    -0.377 N 
HETATM   22  C7  MIQ B 502     -10.688 -13.802  -1.114  1.00142.12     0.149 C 
HETATM   23  C8  MIQ B 502     -10.692 -15.140  -0.385  1.00144.10     0.187 C 
HETATM   24  O9  MIQ B 502      -9.409 -15.594  -0.076  1.00148.65    -0.388 OA
HETATM   25  C10 MIQ B 502      -8.304 -14.754  -0.234  1.00147.44     0.187 C 
HETATM   26  C11 MIQ B 502      -8.498 -13.252  -0.054  1.00144.08     0.149 C 
ENDBRANCH   5  21
TORSDOF 2
ENDMDL
MODEL 2
REMARK VINA RESULT:      -7.4      4.547      6.648
REMARK  2 active torsions:
REMARK  status: ('A' for Active; 'I' for Inactive)
REMARK    1  A    between atoms: C5_5  and  N6_21 
REMARK    2  A    between atoms: C18_14  and  N17_19 
ROOT
HETATM    1  O1  MIQ B 502      -5.855  -4.437  -1.944  1.00142.91    -0.171 OA
HETATM    2  C2  MIQ B 502      -6.234  -5.724  -1.557  1.00141.17     0.195 A 
HETATM    3  C3  MIQ B 502      -5.352  -7.010  -1.643  1.00141.71     0.035 A 
HETATM    4  C4  MIQ B 502      -3.969  -7.268  -2.108  1.00142.86     0.046 A 
HETATM    5  C5  MIQ B 502      -3.429  -8.578  -2.060  1.00139.53     0.031 A 
HETATM    6  C12 MIQ B 502      -4.239  -9.675  -1.550  1.00139.38     0.030 A 
HETATM    7  C13 MIQ B 502      -5.565  -9.428  -1.103  1.00141.18     0.019 A 
HETATM    8  C14 MIQ B 502      -6.126  -8.050  -1.154  1.00138.77     0.033 A 
HETATM    9  C15 MIQ B 502      -7.495  -7.406  -0.761  1.00142.10     0.195 A 
HETATM   10  N17 MIQ B 502      -7.387  -6.118  -1.045  1.00139.42    -0.288 N 
HETATM   11  O16 MIQ B 502      -8.604  -8.062  -0.224  1.00148.93    -0.171 OA
ENDROOT
BRANCH  10  12
HETATM   12  C18 MIQ B 502      -8.488  -5.199  -0.823  1.00139.82     0.187 C 
HETATM   13  C19 MIQ B 502      -8.715  -5.098   0.690  1.00140.06     0.247 C 
HETATM   14  O25 MIQ B 502      -7.799  -4.866   1.396  1.00143.95    -0.271 OA
HETATM   15  N20 MIQ B 502     -10.027  -5.274   1.279  1.00140.02    -0.296 N 
HETATM   16  H13 MIQ B 502     -10.161  -5.212   2.269  1.00142.77     0.171 HD
HETATM   17  C21 MIQ B 502     -11.128  -5.567   0.398  1.00142.22     0.224 C 
HETATM   18  C22 MIQ B 502     -10.815  -6.400  -0.830  1.00139.52     0.106 C 
HETATM   19  O24 MIQ B 502     -12.219  -5.172   0.621  1.00146.13    -0.273 OA
HETATM   20  C23 MIQ B 502      -9.728  -5.660  -1.588  1.00139.15     0.045 C 
ENDBRANCH  10  12
BRANCH   5  21
HETATM   21  N6  MIQ B 502      -2.078  -8.819  -2.533  1.00140.95    -0.377 N 
HETATM   22  C7  MIQ B 502      -1.276  -9.826  -1.860  1.00142.12     0.149 C 
HETATM   23  C8  MIQ B 502       0.216  -9.543  -1.986  1.00144.10     0.187 C 
HETATM   24  O9  MIQ B 502       0.604  -9.247  -3.295  1.00148.65    -0.388 OA
HETATM   25  C10 MIQ B 502      -0.357  -9.020  -4.284  1.00147.44     0.187 C 
HETATM   26  C11 MIQ B 502      -1.696  -8.415  -3.875  1.00144.08     0.149 C 
ENDBRANCH   5  21
TORSDOF 2
ENDMDL
MODEL 3
REMARK VINA RESULT:      -7.3      1.953      2.686
REMARK  2 active torsions:
REMARK  status: ('A' for Active; 'I' for Inactive)
REMARK    1  A    between atoms: C5_5  and  N6_21 
REMARK    2  A    between atoms: C18_14  and  N17_19 
ROOT
HETATM    1  O1  MIQ B 502      -5.950  -8.477  -1.330  1.00142.91    -0.171 OA
HETATM    2  C2  MIQ B 502      -7.160  -7.887  -0.959  1.00141.17     0.195 A 
HETATM    3  C3  MIQ B 502      -8.573  -8.547  -1.047  1.00141.71     0.035 A 
HETATM    4  C4  MIQ B 502      -9.051  -9.874  -1.501  1.00142.86     0.046 A 
HETATM    5  C5  MIQ B 502     -10.433 -10.191  -1.459  1.00139.53     0.031 A 
HETATM    6  C12 MIQ B 502     -11.385  -9.206  -0.967  1.00139.38     0.030 A 
HETATM    7  C13 MIQ B 502     -10.927  -7.934  -0.531  1.00141.18     0.019 A 
HETATM    8  C14 MIQ B 502      -9.475  -7.608  -0.575  1.00138.77     0.033 A 
HETATM    9  C15 MIQ B 502      -8.617  -6.358  -0.190  1.00142.10     0.195 A 
HETATM   10  N17 MIQ B 502      -7.363  -6.679  -0.461  1.00139.42    -0.288 N 
HETATM   11  O16 MIQ B 502      -9.086  -5.151   0.330  1.00148.93    -0.171 OA
ENDROOT
BRANCH  10  12
HETATM   12  C18 MIQ B 502      -6.277  -5.742  -0.242  1.00139.82     0.187 C 
HETATM   13  C19 MIQ B 502      -6.319  -5.313   1.230  1.00140.06     0.247 C 
HETATM   14  O25 MIQ B 502      -6.363  -6.140   2.070  1.00143.95    -0.271 OA
HETATM   15  N20 MIQ B 502      -6.301  -3.918   1.619  1.00140.02    -0.296 N 
HETATM   16  H13 MIQ B 502      -6.336  -3.651   2.584  1.00142.77     0.171 HD
HETATM   17  C21 MIQ B 502      -6.258  -2.927   0.576  1.00142.22     0.224 C 
HETATM   18  C22 MIQ B 502      -6.979  -3.264  -0.715  1.00139.52     0.106 C 
HETATM   19  O24 MIQ B 502      -5.683  -1.904   0.718  1.00146.13    -0.273 OA
HETATM   20  C23 MIQ B 502      -6.384  -4.568  -1.214  1.00139.15     0.045 C 
ENDBRANCH  10  12
BRANCH   5  21
HETATM   21  N6  MIQ B 502     -10.889 -11.489  -1.921  1.00140.95    -0.377 N 
HETATM   22  C7  MIQ B 502     -11.078 -12.547  -0.943  1.00142.12     0.149 C 
HETATM   23  C8  MIQ B 502     -10.915 -13.929  -1.562  1.00144.10     0.187 C 
HETATM   24  O9  MIQ B 502     -11.633 -14.080  -2.750  1.00148.65    -0.388 OA
HETATM   25  C10 MIQ B 502     -12.219 -12.973  -3.368  1.00147.44     0.187 C 
HETATM   26  C11 MIQ B 502     -11.555 -11.610  -3.206  1.00144.08     0.149 C 
ENDBRANCH   5  21
TORSDOF 2
ENDMDL
MODEL 4
REMARK VINA RESULT:      -7.3      4.847      6.837
REMARK  2 active torsions:
REMARK  status: ('A' for Active; 'I' for Inactive)
REMARK    1  A    between atoms: C5_5  and  N6_21 
REMARK    2  A    between atoms: C18_14  and  N17_19 
ROOT
HETATM    1  O1  MIQ B 502      -6.875  -6.304  -2.660  1.00142.91    -0.171 OA
HETATM    2  C2  MIQ B 502      -6.786  -7.530  -1.998  1.00141.17     0.195 A 
HETATM    3  C3  MIQ B 502      -5.498  -8.399  -1.835  1.00141.71     0.035 A 
HETATM    4  C4  MIQ B 502      -4.093  -8.231  -2.278  1.00142.86     0.046 A 
HETATM    5  C5  MIQ B 502      -3.122  -9.217  -1.970  1.00139.53     0.031 A 
HETATM    6  C12 MIQ B 502      -3.508 -10.400  -1.214  1.00139.38     0.030 A 
HETATM    7  C13 MIQ B 502      -4.854 -10.560  -0.788  1.00141.18     0.019 A 
HETATM    8  C14 MIQ B 502      -5.869  -9.521  -1.113  1.00138.77     0.033 A 
HETATM    9  C15 MIQ B 502      -7.396  -9.347  -0.824  1.00142.10     0.195 A 
HETATM   10  N17 MIQ B 502      -7.744  -8.198  -1.378  1.00139.42    -0.288 N 
HETATM   11  O16 MIQ B 502      -8.220 -10.231  -0.125  1.00148.93    -0.171 OA
ENDROOT
BRANCH  10  12
HETATM   12  C18 MIQ B 502      -9.110  -7.713  -1.322  1.00139.82     0.187 C 
HETATM   13  C19 MIQ B 502      -9.558  -7.411  -2.757  1.00140.06     0.247 C 
HETATM   14  O25 MIQ B 502      -9.417  -8.234  -3.590  1.00143.95    -0.271 OA
HETATM   15  N20 MIQ B 502     -10.157  -6.142  -3.119  1.00140.02    -0.296 N 
HETATM   16  H13 MIQ B 502     -10.440  -5.955  -4.061  1.00142.77     0.171 HD
HETATM   17  C21 MIQ B 502     -10.310  -5.150  -2.087  1.00142.22     0.224 C 
HETATM   18  C22 MIQ B 502      -9.242  -5.116  -1.010  1.00139.52     0.106 C 
HETATM   19  O24 MIQ B 502     -11.226  -4.403  -2.078  1.00146.13    -0.273 OA
HETATM   20  C23 MIQ B 502      -9.208  -6.503  -0.394  1.00139.15     0.045 C 
ENDBRANCH  10  12
BRANCH   5  21
HETATM   21  N6  MIQ B 502      -1.753  -9.047  -2.423  1.00140.95    -0.377 N 
HETATM   22  C7  MIQ B 502      -0.688  -9.684  -1.668  1.00142.12     0.149 C 
HETATM   23  C8  MIQ B 502       0.636  -8.947  -1.820  1.00144.10     0.187 C 
HETATM   24  O9  MIQ B 502       0.943  -8.649  -3.149  1.00148.65    -0.388 OA
HETATM   25  C10 MIQ B 502      -0.014  -8.824  -4.152  1.00147.44     0.187 C 
HETATM   26  C11 MIQ B 502      -1.487  -8.652  -3.794  1.00144.08     0.149 C 
ENDBRANCH   5  21
TORSDOF 2
ENDMDL
MODEL 5
REMARK VINA RESULT:      -7.2     23.051     25.059
REMARK  2 active torsions:
REMARK  status: ('A' for Active; 'I' for Inactive)
REMARK    1  A    between atoms: C5_5  and  N6_21 
REMARK    2  A    between atoms: C18_14  and  N17_19 
ROOT
HETATM    1  O1  MIQ B 502       6.353  -0.500 -14.091  1.00142.91    -0.171 OA
HETATM    2  C2  MIQ B 502       6.909   0.733 -14.440  1.00141.17     0.195 A 
HETATM    3  C3  MIQ B 502       8.285   1.294 -13.958  1.00141.71     0.035 A 
HETATM    4  C4  MIQ B 502       9.347   0.764 -13.070  1.00142.86     0.046 A 
HETATM    5  C5  MIQ B 502      10.515   1.525 -12.816  1.00139.53     0.031 A 
HETATM    6  C12 MIQ B 502      10.672   2.835 -13.433  1.00139.38     0.030 A 
HETATM    7  C13 MIQ B 502       9.655   3.343 -14.286  1.00141.18     0.019 A 
HETATM    8  C14 MIQ B 502       8.432   2.538 -14.550  1.00138.77     0.033 A 
HETATM    9  C15 MIQ B 502       7.140   2.750 -15.405  1.00142.10     0.195 A 
HETATM   10  N17 MIQ B 502       6.407   1.662 -15.236  1.00139.42    -0.288 N 
HETATM   11  O16 MIQ B 502       6.827   3.865 -16.184  1.00148.93    -0.171 OA
ENDROOT
BRANCH  10  12
HETATM   12  C18 MIQ B 502       5.113   1.513 -15.875  1.00139.82     0.187 C 
HETATM   13  C19 MIQ B 502       5.286   1.845 -17.363  1.00140.06     0.247 C 
HETATM   14  O25 MIQ B 502       6.144   1.315 -17.975  1.00143.95    -0.271 OA
HETATM   15  N20 MIQ B 502       4.421   2.788 -18.040  1.00140.02    -0.296 N 
HETATM   16  H13 MIQ B 502       4.548   3.001 -19.010  1.00142.77     0.171 HD
HETATM   17  C21 MIQ B 502       3.387   3.430 -17.269  1.00142.22     0.224 C 
HETATM   18  C22 MIQ B 502       3.704   3.719 -15.814  1.00139.52     0.106 C 
HETATM   19  O24 MIQ B 502       2.344   3.712 -17.747  1.00146.13    -0.273 OA
HETATM   20  C23 MIQ B 502       4.072   2.390 -15.181  1.00139.15     0.045 C 
ENDBRANCH  10  12
BRANCH   5  21
HETATM   21  N6  MIQ B 502      11.540   1.001 -11.932  1.00140.95    -0.377 N 
HETATM   22  C7  MIQ B 502      11.138   0.121 -10.848  1.00142.12     0.149 C 
HETATM   23  C8  MIQ B 502      12.117   0.172  -9.682  1.00144.10     0.187 C 
HETATM   24  O9  MIQ B 502      13.449   0.054 -10.084  1.00148.65    -0.388 OA
HETATM   25  C10 MIQ B 502      13.788   0.123 -11.438  1.00147.44     0.187 C 
HETATM   26  C11 MIQ B 502      12.927   0.977 -12.363  1.00144.08     0.149 C 
ENDBRANCH   5  21
TORSDOF 2
ENDMDL
MODEL 6
REMARK VINA RESULT:      -7.1      2.200      2.873
REMARK  2 active torsions:
REMARK  status: ('A' for Active; 'I' for Inactive)
REMARK    1  A    between atoms: C5_5  and  N6_21 
REMARK    2  A    between atoms: C18_14  and  N17_19 
ROOT
HETATM    1  O1  MIQ B 502      -6.687  -8.575  -3.338  1.00142.91    -0.171 OA
HETATM    2  C2  MIQ B 502      -7.869  -8.010  -2.854  1.00141.17     0.195 A 
HETATM    3  C3  MIQ B 502      -9.104  -8.790  -2.300  1.00141.71     0.035 A 
HETATM    4  C4  MIQ B 502      -9.403 -10.230  -2.119  1.00142.86     0.046 A 
HETATM    5  C5  MIQ B 502     -10.645 -10.642  -1.574  1.00139.53     0.031 A 
HETATM    6  C12 MIQ B 502     -11.632  -9.642  -1.190  1.00139.38     0.030 A 
HETATM    7  C13 MIQ B 502     -11.346  -8.261  -1.363  1.00141.18     0.019 A 
HETATM    8  C14 MIQ B 502     -10.039  -7.835  -1.933  1.00138.77     0.033 A 
HETATM    9  C15 MIQ B 502      -9.380  -6.456  -2.260  1.00142.10     0.195 A 
HETATM   10  N17 MIQ B 502      -8.186  -6.730  -2.759  1.00139.42    -0.288 N 
HETATM   11  O16 MIQ B 502      -9.944  -5.193  -2.067  1.00148.93    -0.171 OA
ENDROOT
BRANCH  10  12
HETATM   12  C18 MIQ B 502      -7.286  -5.678  -3.194  1.00139.82     0.187 C 
HETATM   13  C19 MIQ B 502      -7.171  -4.660  -2.053  1.00140.06     0.247 C 
HETATM   14  O25 MIQ B 502      -6.911  -5.039  -0.967  1.00143.95    -0.271 OA
HETATM   15  N20 MIQ B 502      -7.366  -3.241  -2.273  1.00140.02    -0.296 N 
HETATM   16  H13 MIQ B 502      -7.294  -2.587  -1.518  1.00142.77     0.171 HD
HETATM   17  C21 MIQ B 502      -7.692  -2.804  -3.606  1.00142.22     0.224 C 
HETATM   18  C22 MIQ B 502      -8.534  -3.745  -4.445  1.00139.52     0.106 C 
HETATM   19  O24 MIQ B 502      -7.316  -1.764  -4.024  1.00146.13    -0.273 OA
HETATM   20  C23 MIQ B 502      -7.782  -5.062  -4.501  1.00139.15     0.045 C 
ENDBRANCH  10  12
BRANCH   5  21
HETATM   21  N6  MIQ B 502     -10.930 -12.056  -1.416  1.00140.95    -0.377 N 
HETATM   22  C7  MIQ B 502     -11.373 -12.809  -2.577  1.00142.12     0.149 C 
HETATM   23  C8  MIQ B 502     -12.219 -14.014  -2.184  1.00144.10     0.187 C 
HETATM   24  O9  MIQ B 502     -11.643 -14.773  -1.164  1.00148.65    -0.388 OA
HETATM   25  C10 MIQ B 502     -10.533 -14.293  -0.465  1.00147.44     0.187 C 
HETATM   26  C11 MIQ B 502     -10.377 -12.786  -0.289  1.00144.08     0.149 C 
ENDBRANCH   5  21
TORSDOF 2
ENDMDL
MODEL 7
REMARK VINA RESULT:      -7.0     23.488     26.010
REMARK  2 active torsions:
REMARK  status: ('A' for Active; 'I' for Inactive)
REMARK    1  A    between atoms: C5_5  and  N6_21 
REMARK    2  A    between atoms: C18_14  and  N17_19 
ROOT
HETATM    1  O1  MIQ B 502       8.557   4.493 -16.196  1.00142.91    -0.171 OA
HETATM    2  C2  MIQ B 502       7.642   3.492 -15.861  1.00141.17     0.195 A 
HETATM    3  C3  MIQ B 502       6.099   3.535 -16.099  1.00141.71     0.035 A 
HETATM    4  C4  MIQ B 502       5.188   4.539 -16.698  1.00142.86     0.046 A 
HETATM    5  C5  MIQ B 502       3.796   4.285 -16.779  1.00139.53     0.031 A 
HETATM    6  C12 MIQ B 502       3.259   3.031 -16.270  1.00139.38     0.030 A 
HETATM    7  C13 MIQ B 502       4.132   2.068 -15.697  1.00141.18     0.019 A 
HETATM    8  C14 MIQ B 502       5.594   2.338 -15.618  1.00138.77     0.033 A 
HETATM    9  C15 MIQ B 502       6.830   1.548 -15.077  1.00142.10     0.195 A 
HETATM   10  N17 MIQ B 502       7.881   2.323 -15.290  1.00139.42    -0.288 N 
HETATM   11  O16 MIQ B 502       6.821   0.282 -14.488  1.00148.93    -0.171 OA
ENDROOT
BRANCH  10  12
HETATM   12  C18 MIQ B 502       9.216   1.915 -14.896  1.00139.82     0.187 C 
HETATM   13  C19 MIQ B 502       9.802   3.023 -14.013  1.00140.06     0.247 C 
HETATM   14  O25 MIQ B 502       9.175   3.422 -13.097  1.00143.95    -0.271 OA
HETATM   15  N20 MIQ B 502      11.110   3.592 -14.268  1.00140.02    -0.296 N 
HETATM   16  H13 MIQ B 502      11.479   4.319 -13.688  1.00142.77     0.171 HD
HETATM   17  C21 MIQ B 502      11.852   3.096 -15.399  1.00142.22     0.224 C 
HETATM   18  C22 MIQ B 502      11.045   2.672 -16.610  1.00139.52     0.106 C 
HETATM   19  O24 MIQ B 502      13.031   3.019 -15.378  1.00146.13    -0.273 OA
HETATM   20  C23 MIQ B 502      10.066   1.616 -16.129  1.00139.15     0.045 C 
ENDBRANCH  10  12
BRANCH   5  21
HETATM   21  N6  MIQ B 502       2.913   5.284 -17.354  1.00140.95    -0.377 N 
HETATM   22  C7  MIQ B 502       1.778   5.742 -16.571  1.00142.12     0.149 C 
HETATM   23  C8  MIQ B 502       0.640   6.236 -17.455  1.00144.10     0.187 C 
HETATM   24  O9  MIQ B 502       1.069   7.113 -18.454  1.00148.65    -0.388 OA
HETATM   25  C10 MIQ B 502       2.432   7.286 -18.705  1.00147.44     0.187 C 
HETATM   26  C11 MIQ B 502       3.376   6.115 -18.452  1.00144.08     0.149 C 
ENDBRANCH   5  21
TORSDOF 2
ENDMDL
MODEL 8
REMARK VINA RESULT:      -7.0     22.757     25.114
REMARK  2 active torsions:
REMARK  status: ('A' for Active; 'I' for Inactive)
REMARK    1  A    between atoms: C5_5  and  N6_21 
REMARK    2  A    between atoms: C18_14  and  N17_19 
ROOT
HETATM    1  O1  MIQ B 502       7.201   0.588 -13.129  1.00142.91    -0.171 OA
HETATM    2  C2  MIQ B 502       8.383   0.786 -13.847  1.00141.17     0.195 A 
HETATM    3  C3  MIQ B 502       9.834   0.699 -13.275  1.00141.71     0.035 A 
HETATM    4  C4  MIQ B 502      10.384   0.405 -11.931  1.00142.86     0.046 A 
HETATM    5  C5  MIQ B 502      11.785   0.397 -11.716  1.00139.53     0.031 A 
HETATM    6  C12 MIQ B 502      12.688   0.677 -12.823  1.00139.38     0.030 A 
HETATM    7  C13 MIQ B 502      12.161   0.958 -14.113  1.00141.18     0.019 A 
HETATM    8  C14 MIQ B 502      10.689   0.963 -14.333  1.00138.77     0.033 A 
HETATM    9  C15 MIQ B 502       9.763   1.215 -15.568  1.00142.10     0.195 A 
HETATM   10  N17 MIQ B 502       8.523   1.077 -15.128  1.00139.42    -0.288 N 
HETATM   11  O16 MIQ B 502      10.169   1.526 -16.867  1.00148.93    -0.171 OA
ENDROOT
BRANCH  10  12
HETATM   12  C18 MIQ B 502       7.384   1.259 -16.008  1.00139.82     0.187 C 
HETATM   13  C19 MIQ B 502       6.632   2.513 -15.547  1.00140.06     0.247 C 
HETATM   14  O25 MIQ B 502       7.230   3.518 -15.389  1.00143.95    -0.271 OA
HETATM   15  N20 MIQ B 502       5.203   2.502 -15.306  1.00140.02    -0.296 N 
HETATM   16  H13 MIQ B 502       4.725   3.326 -14.998  1.00142.77     0.171 HD
HETATM   17  C21 MIQ B 502       4.497   1.262 -15.496  1.00142.22     0.224 C 
HETATM   18  C22 MIQ B 502       5.254  -0.011 -15.166  1.00139.52     0.106 C 
HETATM   19  O24 MIQ B 502       3.384   1.239 -15.894  1.00146.13    -0.273 OA
HETATM   20  C23 MIQ B 502       6.512   0.004 -16.015  1.00139.15     0.045 C 
ENDBRANCH  10  12
BRANCH   5  21
HETATM   21  N6  MIQ B 502      12.309   0.122 -10.390  1.00140.95    -0.377 N 
HETATM   22  C7  MIQ B 502      11.533  -0.721  -9.497  1.00142.12     0.149 C 
HETATM   23  C8  MIQ B 502      11.820  -0.414  -8.033  1.00144.10     0.187 C 
HETATM   24  O9  MIQ B 502      13.185  -0.342  -7.750  1.00148.65    -0.388 OA
HETATM   25  C10 MIQ B 502      14.123  -0.329  -8.786  1.00147.44     0.187 C 
HETATM   26  C11 MIQ B 502      13.726   0.293 -10.121  1.00144.08     0.149 C 
ENDBRANCH   5  21
TORSDOF 2
ENDMDL
MODEL 9
REMARK VINA RESULT:      -6.9     22.663     25.341
REMARK  2 active torsions:
REMARK  status: ('A' for Active; 'I' for Inactive)
REMARK    1  A    between atoms: C5_5  and  N6_21 
REMARK    2  A    between atoms: C18_14  and  N17_19 
ROOT
HETATM    1  O1  MIQ B 502      10.385  -0.801 -11.062  1.00142.91    -0.171 OA
HETATM    2  C2  MIQ B 502      10.877  -0.228 -12.237  1.00141.17     0.195 A 
HETATM    3  C3  MIQ B 502      10.024   0.394 -13.387  1.00141.71     0.035 A 
HETATM    4  C4  MIQ B 502       8.567   0.570 -13.595  1.00142.86     0.046 A 
HETATM    5  C5  MIQ B 502       8.080   1.191 -14.773  1.00139.53     0.031 A 
HETATM    6  C12 MIQ B 502       9.018   1.658 -15.783  1.00139.38     0.030 A 
HETATM    7  C13 MIQ B 502      10.415   1.491 -15.584  1.00141.18     0.019 A 
HETATM    8  C14 MIQ B 502      10.920   0.841 -14.344  1.00138.77     0.033 A 
HETATM    9  C15 MIQ B 502      12.338   0.494 -13.785  1.00142.10     0.195 A 
HETATM   10  N17 MIQ B 502      12.136  -0.089 -12.614  1.00139.42    -0.288 N 
HETATM   11  O16 MIQ B 502      13.565   0.747 -14.401  1.00148.93    -0.171 OA
ENDROOT
BRANCH  10  12
HETATM   12  C18 MIQ B 502      13.242  -0.566 -11.805  1.00139.82     0.187 C 
HETATM   13  C19 MIQ B 502      12.895  -1.980 -11.325  1.00140.06     0.247 C 
HETATM   14  O25 MIQ B 502      12.546  -2.786 -12.112  1.00143.95    -0.271 OA
HETATM   15  N20 MIQ B 502      12.988  -2.358  -9.930  1.00140.02    -0.296 N 
HETATM   16  H13 MIQ B 502      12.752  -3.283  -9.628  1.00142.77     0.171 HD
HETATM   17  C21 MIQ B 502      13.406  -1.354  -8.986  1.00142.22     0.224 C 
HETATM   18  C22 MIQ B 502      12.986   0.074  -9.278  1.00139.52     0.106 C 
HETATM   19  O24 MIQ B 502      14.050  -1.630  -8.034  1.00146.13    -0.273 OA
HETATM   20  C23 MIQ B 502      13.521   0.406 -10.659  1.00139.15     0.045 C 
ENDBRANCH  10  12
BRANCH   5  21
HETATM   21  N6  MIQ B 502       6.650   1.343 -14.970  1.00140.95    -0.377 N 
HETATM   22  C7  MIQ B 502       6.169   2.499 -15.707  1.00142.12     0.149 C 
HETATM   23  C8  MIQ B 502       4.751   2.881 -15.303  1.00144.10     0.187 C 
HETATM   24  O9  MIQ B 502       3.882   1.789 -15.272  1.00148.65    -0.388 OA
HETATM   25  C10 MIQ B 502       4.377   0.487 -15.379  1.00147.44     0.187 C 
HETATM   26  C11 MIQ B 502       5.774   0.191 -14.842  1.00144.08     0.149 C 
ENDBRANCH   5  21
TORSDOF 2
ENDMDL
