MODEL 1
REMARK VINA RESULT:      -7.0      0.000      0.000
REMARK  2 active torsions:
REMARK  status: ('A' for Active; 'I' for Inactive)
REMARK    1  A    between atoms: C5_5  and  N6_21 
REMARK    2  A    between atoms: C18_14  and  N17_19 
ROOT
HETATM    1  O1  MIQ B 502       2.952 -13.726   6.252  1.00142.91    -0.171 OA
HETATM    2  C2  MIQ B 502       3.675 -14.698   6.946  1.00141.17     0.195 A 
HETATM    3  C3  MIQ B 502       4.022 -16.132   6.432  1.00141.71     0.035 A 
HETATM    4  C4  MIQ B 502       3.736 -16.860   5.173  1.00142.86     0.046 A 
HETATM    5  C5  MIQ B 502       4.197 -18.188   4.992  1.00139.53     0.031 A 
HETATM    6  C12 MIQ B 502       4.957 -18.839   6.050  1.00139.38     0.030 A 
HETATM    7  C13 MIQ B 502       5.232 -18.141   7.257  1.00141.18     0.019 A 
HETATM    8  C14 MIQ B 502       4.748 -16.746   7.439  1.00138.77     0.033 A 
HETATM    9  C15 MIQ B 502       4.852 -15.688   8.586  1.00142.10     0.195 A 
HETATM   10  N17 MIQ B 502       4.211 -14.615   8.152  1.00139.42    -0.288 N 
HETATM   11  O16 MIQ B 502       5.491 -15.849   9.816  1.00148.93    -0.171 OA
ENDROOT
BRANCH  10  12
HETATM   12  C18 MIQ B 502       4.088 -13.423   8.970  1.00139.82     0.187 C 
HETATM   13  C19 MIQ B 502       5.501 -12.990   9.380  1.00140.06     0.247 C 
HETATM   14  O25 MIQ B 502       6.331 -12.871   8.550  1.00143.95    -0.271 OA
HETATM   15  N20 MIQ B 502       5.846 -12.717  10.760  1.00140.02    -0.296 N 
HETATM   16  H13 MIQ B 502       6.774 -12.441  11.015  1.00142.77     0.171 HD
HETATM   17  C21 MIQ B 502       4.819 -12.879  11.757  1.00142.22     0.224 C 
HETATM   18  C22 MIQ B 502       3.801 -13.977  11.513  1.00139.52     0.106 C 
HETATM   19  O24 MIQ B 502       4.771 -12.187  12.713  1.00146.13    -0.273 OA
HETATM   20  C23 MIQ B 502       3.171 -13.689  10.163  1.00139.15     0.045 C 
ENDBRANCH  10  12
BRANCH   5  21
HETATM   21  N6  MIQ B 502       3.897 -18.895   3.760  1.00140.95    -0.377 N 
HETATM   22  C7  MIQ B 502       3.815 -18.134   2.526  1.00142.12     0.149 C 
HETATM   23  C8  MIQ B 502       2.907 -18.805   1.503  1.00144.10     0.187 C 
HETATM   24  O9  MIQ B 502       3.176 -20.166   1.348  1.00148.65    -0.388 OA
HETATM   25  C10 MIQ B 502       4.033 -20.823   2.234  1.00147.44     0.187 C 
HETATM   26  C11 MIQ B 502       4.112 -20.329   3.675  1.00144.08     0.149 C 
ENDBRANCH   5  21
TORSDOF 2
ENDMDL
MODEL 2
REMARK VINA RESULT:      -6.9      2.137      8.334
REMARK  2 active torsions:
REMARK  status: ('A' for Active; 'I' for Inactive)
REMARK    1  A    between atoms: C5_5  and  N6_21 
REMARK    2  A    between atoms: C18_14  and  N17_19 
ROOT
HETATM    1  O1  MIQ B 502       5.191 -17.880   7.296  1.00142.91    -0.171 OA
HETATM    2  C2  MIQ B 502       4.608 -16.611   7.296  1.00141.17     0.195 A 
HETATM    3  C3  MIQ B 502       4.775 -15.518   8.399  1.00141.71     0.035 A 
HETATM    4  C4  MIQ B 502       5.530 -15.465   9.674  1.00142.86     0.046 A 
HETATM    5  C5  MIQ B 502       5.488 -14.302  10.484  1.00139.53     0.031 A 
HETATM    6  C12 MIQ B 502       4.699 -13.154  10.059  1.00139.38     0.030 A 
HETATM    7  C13 MIQ B 502       3.977 -13.204   8.836  1.00141.18     0.019 A 
HETATM    8  C14 MIQ B 502       4.027 -14.427   7.989  1.00138.77     0.033 A 
HETATM    9  C15 MIQ B 502       3.391 -14.845   6.623  1.00142.10     0.195 A 
HETATM   10  N17 MIQ B 502       3.814 -16.076   6.385  1.00139.42    -0.288 N 
HETATM   11  O16 MIQ B 502       2.546 -14.073   5.823  1.00148.93    -0.171 OA
ENDROOT
BRANCH  10  12
HETATM   12  C18 MIQ B 502       3.406 -16.799   5.195  1.00139.82     0.187 C 
HETATM   13  C19 MIQ B 502       2.870 -18.166   5.639  1.00140.06     0.247 C 
HETATM   14  O25 MIQ B 502       2.052 -18.216   6.487  1.00143.95    -0.271 OA
HETATM   15  N20 MIQ B 502       3.338 -19.400   5.042  1.00140.02    -0.296 N 
HETATM   16  H13 MIQ B 502       2.985 -20.286   5.346  1.00142.77     0.171 HD
HETATM   17  C21 MIQ B 502       4.345 -19.314   4.016  1.00142.22     0.224 C 
HETATM   18  C22 MIQ B 502       5.360 -18.195   4.150  1.00139.52     0.106 C 
HETATM   19  O24 MIQ B 502       4.374 -20.076   3.113  1.00146.13    -0.273 OA
HETATM   20  C23 MIQ B 502       4.569 -16.901   4.209  1.00139.15     0.045 C 
ENDBRANCH  10  12
BRANCH   5  21
HETATM   21  N6  MIQ B 502       6.219 -14.269  11.737  1.00140.95    -0.377 N 
HETATM   22  C7  MIQ B 502       6.772 -13.002  12.185  1.00142.12     0.149 C 
HETATM   23  C8  MIQ B 502       7.988 -13.198  13.082  1.00144.10     0.187 C 
HETATM   24  O9  MIQ B 502       7.776 -14.145  14.085  1.00148.65    -0.388 OA
HETATM   25  C10 MIQ B 502       6.638 -14.955  14.065  1.00147.44     0.187 C 
HETATM   26  C11 MIQ B 502       6.029 -15.324  12.716  1.00144.08     0.149 C 
ENDBRANCH   5  21
TORSDOF 2
ENDMDL
MODEL 3
REMARK VINA RESULT:      -6.9      1.882      8.299
REMARK  2 active torsions:
REMARK  status: ('A' for Active; 'I' for Inactive)
REMARK    1  A    between atoms: C5_5  and  N6_21 
REMARK    2  A    between atoms: C18_14  and  N17_19 
ROOT
HETATM    1  O1  MIQ B 502       3.051 -13.577   6.039  1.00142.91    -0.171 OA
HETATM    2  C2  MIQ B 502       3.592 -14.757   6.554  1.00141.17     0.195 A 
HETATM    3  C3  MIQ B 502       4.127 -14.970   8.006  1.00141.71     0.035 A 
HETATM    4  C4  MIQ B 502       4.226 -14.089   9.194  1.00142.86     0.046 A 
HETATM    5  C5  MIQ B 502       4.772 -14.581  10.407  1.00139.53     0.031 A 
HETATM    6  C12 MIQ B 502       5.236 -15.958  10.484  1.00139.38     0.030 A 
HETATM    7  C13 MIQ B 502       5.140 -16.803   9.346  1.00141.18     0.019 A 
HETATM    8  C14 MIQ B 502       4.564 -16.282   8.076  1.00138.77     0.033 A 
HETATM    9  C15 MIQ B 502       4.299 -16.888   6.659  1.00142.10     0.195 A 
HETATM   10  N17 MIQ B 502       3.758 -15.917   5.942  1.00139.42    -0.288 N 
HETATM   11  O16 MIQ B 502       4.580 -18.190   6.241  1.00148.93    -0.171 OA
ENDROOT
BRANCH  10  12
HETATM   12  C18 MIQ B 502       3.389 -16.117   4.553  1.00139.82     0.187 C 
HETATM   13  C19 MIQ B 502       2.422 -17.305   4.491  1.00140.06     0.247 C 
HETATM   14  O25 MIQ B 502       1.481 -17.319   5.203  1.00143.95    -0.271 OA
HETATM   15  N20 MIQ B 502       2.628 -18.411   3.579  1.00140.02    -0.296 N 
HETATM   16  H13 MIQ B 502       1.992 -19.184   3.553  1.00142.77     0.171 HD
HETATM   17  C21 MIQ B 502       3.789 -18.376   2.728  1.00142.22     0.224 C 
HETATM   18  C22 MIQ B 502       5.033 -17.724   3.299  1.00139.52     0.106 C 
HETATM   19  O24 MIQ B 502       3.769 -18.829   1.636  1.00146.13    -0.273 OA
HETATM   20  C23 MIQ B 502       4.638 -16.313   3.694  1.00139.15     0.045 C 
ENDBRANCH  10  12
BRANCH   5  21
HETATM   21  N6  MIQ B 502       4.876 -13.703  11.559  1.00140.95    -0.377 N 
HETATM   22  C7  MIQ B 502       4.501 -14.221  12.863  1.00142.12     0.149 C 
HETATM   23  C8  MIQ B 502       4.043 -13.115  13.804  1.00144.10     0.187 C 
HETATM   24  O9  MIQ B 502       4.912 -12.022  13.823  1.00148.65    -0.388 OA
HETATM   25  C10 MIQ B 502       5.941 -11.920  12.883  1.00147.44     0.187 C 
HETATM   26  C11 MIQ B 502       5.729 -12.529  11.501  1.00144.08     0.149 C 
ENDBRANCH   5  21
TORSDOF 2
ENDMDL
MODEL 4
REMARK VINA RESULT:      -6.8      1.948      2.672
REMARK  2 active torsions:
REMARK  status: ('A' for Active; 'I' for Inactive)
REMARK    1  A    between atoms: C5_5  and  N6_21 
REMARK    2  A    between atoms: C18_14  and  N17_19 
ROOT
HETATM    1  O1  MIQ B 502       3.480 -14.090   6.948  1.00142.91    -0.171 OA
HETATM    2  C2  MIQ B 502       3.755 -15.459   6.978  1.00141.17     0.195 A 
HETATM    3  C3  MIQ B 502       3.552 -16.466   5.802  1.00141.71     0.035 A 
HETATM    4  C4  MIQ B 502       3.058 -16.323   4.412  1.00142.86     0.046 A 
HETATM    5  C5  MIQ B 502       2.988 -17.452   3.557  1.00139.53     0.031 A 
HETATM    6  C12 MIQ B 502       3.404 -18.758   4.048  1.00139.38     0.030 A 
HETATM    7  C13 MIQ B 502       3.879 -18.895   5.380  1.00141.18     0.019 A 
HETATM    8  C14 MIQ B 502       3.952 -17.706   6.273  1.00138.77     0.033 A 
HETATM    9  C15 MIQ B 502       4.407 -17.467   7.750  1.00142.10     0.195 A 
HETATM   10  N17 MIQ B 502       4.237 -16.175   7.979  1.00139.42    -0.288 N 
HETATM   11  O16 MIQ B 502       4.891 -18.426   8.641  1.00148.93    -0.171 OA
ENDROOT
BRANCH  10  12
HETATM   12  C18 MIQ B 502       4.545 -15.589   9.270  1.00139.82     0.187 C 
HETATM   13  C19 MIQ B 502       3.319 -14.787   9.724  1.00140.06     0.247 C 
HETATM   14  O25 MIQ B 502       2.258 -15.303   9.717  1.00143.95    -0.271 OA
HETATM   15  N20 MIQ B 502       3.427 -13.412  10.168  1.00140.02    -0.296 N 
HETATM   16  H13 MIQ B 502       2.618 -12.897  10.456  1.00142.77     0.171 HD
HETATM   17  C21 MIQ B 502       4.731 -12.801  10.159  1.00142.22     0.224 C 
HETATM   18  C22 MIQ B 502       5.680 -13.238   9.060  1.00139.52     0.106 C 
HETATM   19  O24 MIQ B 502       5.045 -12.002  10.971  1.00146.13    -0.273 OA
HETATM   20  C23 MIQ B 502       5.816 -14.745   9.182  1.00139.15     0.045 C 
ENDBRANCH  10  12
BRANCH   5  21
HETATM   21  N6  MIQ B 502       2.489 -17.300   2.202  1.00140.95    -0.377 N 
HETATM   22  C7  MIQ B 502       2.323 -15.959   1.669  1.00142.12     0.149 C 
HETATM   23  C8  MIQ B 502       1.249 -15.905   0.590  1.00144.10     0.187 C 
HETATM   24  O9  MIQ B 502       1.388 -16.914  -0.366  1.00148.65    -0.388 OA
HETATM   25  C10 MIQ B 502       2.288 -17.963  -0.162  1.00147.44     0.187 C 
HETATM   26  C11 MIQ B 502       2.577 -18.409   1.268  1.00144.08     0.149 C 
ENDBRANCH   5  21
TORSDOF 2
ENDMDL
MODEL 5
REMARK VINA RESULT:      -6.8      2.405      3.193
REMARK  2 active torsions:
REMARK  status: ('A' for Active; 'I' for Inactive)
REMARK    1  A    between atoms: C5_5  and  N6_21 
REMARK    2  A    between atoms: C18_14  and  N17_19 
ROOT
HETATM    1  O1  MIQ B 502       3.713 -13.548   9.985  1.00142.91    -0.171 OA
HETATM    2  C2  MIQ B 502       4.455 -14.704   9.735  1.00141.17     0.195 A 
HETATM    3  C3  MIQ B 502       4.467 -15.523   8.405  1.00141.71     0.035 A 
HETATM    4  C4  MIQ B 502       3.774 -15.364   7.104  1.00142.86     0.046 A 
HETATM    5  C5  MIQ B 502       3.995 -16.293   6.057  1.00139.53     0.031 A 
HETATM    6  C12 MIQ B 502       4.907 -17.409   6.261  1.00139.38     0.030 A 
HETATM    7  C13 MIQ B 502       5.572 -17.562   7.508  1.00141.18     0.019 A 
HETATM    8  C14 MIQ B 502       5.338 -16.581   8.603  1.00138.77     0.033 A 
HETATM    9  C15 MIQ B 502       5.871 -16.418  10.064  1.00142.10     0.195 A 
HETATM   10  N17 MIQ B 502       5.287 -15.334  10.547  1.00139.42    -0.288 N 
HETATM   11  O16 MIQ B 502       6.776 -17.253  10.722  1.00148.93    -0.171 OA
ENDROOT
BRANCH  10  12
HETATM   12  C18 MIQ B 502       5.536 -14.879  11.902  1.00139.82     0.187 C 
HETATM   13  C19 MIQ B 502       4.178 -14.700  12.592  1.00140.06     0.247 C 
HETATM   14  O25 MIQ B 502       3.395 -15.581  12.561  1.00143.95    -0.271 OA
HETATM   15  N20 MIQ B 502       3.831 -13.478  13.289  1.00140.02    -0.296 N 
HETATM   16  H13 MIQ B 502       2.939 -13.371  13.729  1.00142.77     0.171 HD
HETATM   17  C21 MIQ B 502       4.800 -12.412  13.304  1.00142.22     0.224 C 
HETATM   18  C22 MIQ B 502       5.676 -12.270  12.075  1.00139.52     0.106 C 
HETATM   19  O24 MIQ B 502       4.907 -11.689  14.233  1.00146.13    -0.273 OA
HETATM   20  C23 MIQ B 502       6.377 -13.603  11.889  1.00139.15     0.045 C 
ENDBRANCH  10  12
BRANCH   5  21
HETATM   21  N6  MIQ B 502       3.299 -16.133   4.793  1.00140.95    -0.377 N 
HETATM   22  C7  MIQ B 502       3.950 -16.594   3.578  1.00142.12     0.149 C 
HETATM   23  C8  MIQ B 502       3.470 -15.829   2.351  1.00144.10     0.187 C 
HETATM   24  O9  MIQ B 502       2.079 -15.730   2.282  1.00148.65    -0.388 OA
HETATM   25  C10 MIQ B 502       1.288 -16.105   3.371  1.00147.44     0.187 C 
HETATM   26  C11 MIQ B 502       1.859 -15.946   4.776  1.00144.08     0.149 C 
ENDBRANCH   5  21
TORSDOF 2
ENDMDL
MODEL 6
REMARK VINA RESULT:      -6.8     14.936     20.545
REMARK  2 active torsions:
REMARK  status: ('A' for Active; 'I' for Inactive)
REMARK    1  A    between atoms: C5_5  and  N6_21 
REMARK    2  A    between atoms: C18_14  and  N17_19 
ROOT
HETATM    1  O1  MIQ B 502       4.650 -14.576 -12.832  1.00142.91    -0.171 OA
HETATM    2  C2  MIQ B 502       3.254 -14.549 -12.827  1.00141.17     0.195 A 
HETATM    3  C3  MIQ B 502       2.338 -14.453 -11.566  1.00141.71     0.035 A 
HETATM    4  C4  MIQ B 502       2.612 -14.366 -10.112  1.00142.86     0.046 A 
HETATM    5  C5  MIQ B 502       1.543 -14.287  -9.184  1.00139.53     0.031 A 
HETATM    6  C12 MIQ B 502       0.168 -14.291  -9.664  1.00139.38     0.030 A 
HETATM    7  C13 MIQ B 502      -0.095 -14.374 -11.058  1.00141.18     0.019 A 
HETATM    8  C14 MIQ B 502       1.032 -14.454 -12.027  1.00138.77     0.033 A 
HETATM    9  C15 MIQ B 502       1.137 -14.550 -13.584  1.00142.10     0.195 A 
HETATM   10  N17 MIQ B 502       2.430 -14.591 -13.861  1.00139.42    -0.288 N 
HETATM   11  O16 MIQ B 502       0.078 -14.588 -14.493  1.00148.93    -0.171 OA
ENDROOT
BRANCH  10  12
HETATM   12  C18 MIQ B 502       2.910 -14.699 -15.226  1.00139.82     0.187 C 
HETATM   13  C19 MIQ B 502       3.785 -15.955 -15.317  1.00140.06     0.247 C 
HETATM   14  O25 MIQ B 502       3.363 -16.981 -14.916  1.00143.95    -0.271 OA
HETATM   15  N20 MIQ B 502       5.116 -15.919 -15.887  1.00140.02    -0.296 N 
HETATM   16  H13 MIQ B 502       5.680 -16.745 -15.934  1.00142.77     0.171 HD
HETATM   17  C21 MIQ B 502       5.613 -14.653 -16.360  1.00142.22     0.224 C 
HETATM   18  C22 MIQ B 502       5.163 -13.418 -15.602  1.00139.52     0.106 C 
HETATM   19  O24 MIQ B 502       6.332 -14.581 -17.295  1.00146.13    -0.273 OA
HETATM   20  C23 MIQ B 502       3.645 -13.423 -15.633  1.00139.15     0.045 C 
ENDBRANCH  10  12
BRANCH   5  21
HETATM   21  N6  MIQ B 502       1.825 -14.216  -7.762  1.00140.95    -0.377 N 
HETATM   22  C7  MIQ B 502       2.613 -15.277  -7.157  1.00142.12     0.149 C 
HETATM   23  C8  MIQ B 502       2.300 -15.443  -5.676  1.00144.10     0.187 C 
HETATM   24  O9  MIQ B 502       2.298 -14.232  -4.982  1.00148.65    -0.388 OA
HETATM   25  C10 MIQ B 502       2.348 -13.019  -5.674  1.00147.44     0.187 C 
HETATM   26  C11 MIQ B 502       1.725 -12.946  -7.064  1.00144.08     0.149 C 
ENDBRANCH   5  21
TORSDOF 2
ENDMDL
MODEL 7
REMARK VINA RESULT:      -6.7      1.712      2.815
REMARK  2 active torsions:
REMARK  status: ('A' for Active; 'I' for Inactive)
REMARK    1  A    between atoms: C5_5  and  N6_21 
REMARK    2  A    between atoms: C18_14  and  N17_19 
ROOT
HETATM    1  O1  MIQ B 502       6.013 -17.343   9.463  1.00142.91    -0.171 OA
HETATM    2  C2  MIQ B 502       5.153 -16.327   9.039  1.00141.17     0.195 A 
HETATM    3  C3  MIQ B 502       4.512 -16.194   7.621  1.00141.71     0.035 A 
HETATM    4  C4  MIQ B 502       4.588 -17.012   6.387  1.00142.86     0.046 A 
HETATM    5  C5  MIQ B 502       3.871 -16.626   5.226  1.00139.53     0.031 A 
HETATM    6  C12 MIQ B 502       3.057 -15.419   5.247  1.00139.38     0.030 A 
HETATM    7  C13 MIQ B 502       2.983 -14.635   6.430  1.00141.18     0.019 A 
HETATM    8  C14 MIQ B 502       3.735 -15.047   7.647  1.00138.77     0.033 A 
HETATM    9  C15 MIQ B 502       3.895 -14.465   9.089  1.00142.10     0.195 A 
HETATM   10  N17 MIQ B 502       4.707 -15.291   9.728  1.00139.42    -0.288 N 
HETATM   11  O16 MIQ B 502       3.302 -13.306   9.594  1.00148.93    -0.171 OA
ENDROOT
BRANCH  10  12
HETATM   12  C18 MIQ B 502       5.098 -15.055  11.106  1.00139.82     0.187 C 
HETATM   13  C19 MIQ B 502       3.817 -14.911  11.937  1.00140.06     0.247 C 
HETATM   14  O25 MIQ B 502       2.980 -15.738  11.853  1.00143.95    -0.271 OA
HETATM   15  N20 MIQ B 502       3.608 -13.790  12.830  1.00140.02    -0.296 N 
HETATM   16  H13 MIQ B 502       2.765 -13.704  13.362  1.00142.77     0.171 HD
HETATM   17  C21 MIQ B 502       4.640 -12.788  12.907  1.00142.22     0.224 C 
HETATM   18  C22 MIQ B 502       5.417 -12.510  11.635  1.00139.52     0.106 C 
HETATM   19  O24 MIQ B 502       4.871 -12.216  13.915  1.00146.13    -0.273 OA
HETATM   20  C23 MIQ B 502       6.013 -13.835  11.196  1.00139.15     0.045 C 
ENDBRANCH  10  12
BRANCH   5  21
HETATM   21  N6  MIQ B 502       3.967 -17.428   4.020  1.00140.95    -0.377 N 
HETATM   22  C7  MIQ B 502       3.388 -16.909   2.793  1.00142.12     0.149 C 
HETATM   23  C8  MIQ B 502       2.981 -18.025   1.839  1.00144.10     0.187 C 
HETATM   24  O9  MIQ B 502       3.981 -18.985   1.668  1.00148.65    -0.388 OA
HETATM   25  C10 MIQ B 502       5.109 -18.986   2.492  1.00147.44     0.187 C 
HETATM   26  C11 MIQ B 502       4.969 -18.475   3.922  1.00144.08     0.149 C 
ENDBRANCH   5  21
TORSDOF 2
ENDMDL
MODEL 8
REMARK VINA RESULT:      -6.7     13.861     18.254
REMARK  2 active torsions:
REMARK  status: ('A' for Active; 'I' for Inactive)
REMARK    1  A    between atoms: C5_5  and  N6_21 
REMARK    2  A    between atoms: C18_14  and  N17_19 
ROOT
HETATM    1  O1  MIQ B 502       3.433 -14.036  -8.631  1.00142.91    -0.171 OA
HETATM    2  C2  MIQ B 502       2.310 -14.341  -9.403  1.00141.17     0.195 A 
HETATM    3  C3  MIQ B 502       2.211 -14.257 -10.960  1.00141.71     0.035 A 
HETATM    4  C4  MIQ B 502       3.170 -13.871 -12.023  1.00142.86     0.046 A 
HETATM    5  C5  MIQ B 502       2.778 -13.896 -13.385  1.00139.53     0.031 A 
HETATM    6  C12 MIQ B 502       1.426 -14.304 -13.740  1.00139.38     0.030 A 
HETATM    7  C13 MIQ B 502       0.507 -14.675 -12.722  1.00141.18     0.019 A 
HETATM    8  C14 MIQ B 502       0.925 -14.649 -11.294  1.00138.77     0.033 A 
HETATM    9  C15 MIQ B 502       0.222 -14.979  -9.937  1.00142.10     0.195 A 
HETATM   10  N17 MIQ B 502       1.125 -14.760  -8.995  1.00139.42    -0.288 N 
HETATM   11  O16 MIQ B 502      -1.093 -15.414  -9.761  1.00148.93    -0.171 OA
ENDROOT
BRANCH  10  12
HETATM   12  C18 MIQ B 502       0.815 -14.950  -7.590  1.00139.82     0.187 C 
HETATM   13  C19 MIQ B 502       1.401 -13.762  -6.817  1.00140.06     0.247 C 
HETATM   14  O25 MIQ B 502       1.158 -12.665  -7.176  1.00143.95    -0.271 OA
HETATM   15  N20 MIQ B 502       2.240 -13.948  -5.651  1.00140.02    -0.296 N 
HETATM   16  H13 MIQ B 502       2.622 -13.165  -5.159  1.00142.77     0.171 HD
HETATM   17  C21 MIQ B 502       2.531 -15.297  -5.238  1.00142.22     0.224 C 
HETATM   18  C22 MIQ B 502       2.650 -16.336  -6.337  1.00139.52     0.106 C 
HETATM   19  O24 MIQ B 502       2.664 -15.579  -4.098  1.00146.13    -0.273 OA
HETATM   20  C23 MIQ B 502       1.343 -16.300  -7.107  1.00139.15     0.045 C 
ENDBRANCH  10  12
BRANCH   5  21
HETATM   21  N6  MIQ B 502       3.722 -13.502 -14.414  1.00140.95    -0.377 N 
HETATM   22  C7  MIQ B 502       4.910 -12.763 -14.021  1.00142.12     0.149 C 
HETATM   23  C8  MIQ B 502       5.437 -11.890 -15.152  1.00144.10     0.187 C 
HETATM   24  O9  MIQ B 502       5.533 -12.573 -16.366  1.00148.65    -0.388 OA
HETATM   25  C10 MIQ B 502       4.970 -13.843 -16.510  1.00147.44     0.187 C 
HETATM   26  C11 MIQ B 502       3.727 -14.187 -15.695  1.00144.08     0.149 C 
ENDBRANCH   5  21
TORSDOF 2
ENDMDL
MODEL 9
REMARK VINA RESULT:      -6.7      2.468      8.214
REMARK  2 active torsions:
REMARK  status: ('A' for Active; 'I' for Inactive)
REMARK    1  A    between atoms: C5_5  and  N6_21 
REMARK    2  A    between atoms: C18_14  and  N17_19 
ROOT
HETATM    1  O1  MIQ B 502       4.336 -18.196   7.729  1.00142.91    -0.171 OA
HETATM    2  C2  MIQ B 502       4.186 -16.837   7.444  1.00141.17     0.195 A 
HETATM    3  C3  MIQ B 502       4.586 -15.650   8.376  1.00141.71     0.035 A 
HETATM    4  C4  MIQ B 502       5.196 -15.574   9.725  1.00142.86     0.046 A 
HETATM    5  C5  MIQ B 502       5.447 -14.316  10.329  1.00139.53     0.031 A 
HETATM    6  C12 MIQ B 502       5.105 -13.092   9.617  1.00139.38     0.030 A 
HETATM    7  C13 MIQ B 502       4.522 -13.165   8.324  1.00141.18     0.019 A 
HETATM    8  C14 MIQ B 502       4.262 -14.488   7.695  1.00138.77     0.033 A 
HETATM    9  C15 MIQ B 502       3.658 -14.957   6.331  1.00142.10     0.195 A 
HETATM   10  N17 MIQ B 502       3.691 -16.280   6.352  1.00139.42    -0.288 N 
HETATM   11  O16 MIQ B 502       3.180 -14.142   5.304  1.00148.93    -0.171 OA
ENDROOT
BRANCH  10  12
HETATM   12  C18 MIQ B 502       3.189 -17.068   5.242  1.00139.82     0.187 C 
HETATM   13  C19 MIQ B 502       4.050 -16.748   4.014  1.00140.06     0.247 C 
HETATM   14  O25 MIQ B 502       5.225 -16.811   4.103  1.00143.95    -0.271 OA
HETATM   15  N20 MIQ B 502       3.461 -16.377   2.744  1.00140.02    -0.296 N 
HETATM   16  H13 MIQ B 502       4.035 -16.164   1.952  1.00142.77     0.171 HD
HETATM   17  C21 MIQ B 502       2.026 -16.298   2.664  1.00142.22     0.224 C 
HETATM   18  C22 MIQ B 502       1.298 -15.838   3.912  1.00139.52     0.106 C 
HETATM   19  O24 MIQ B 502       1.445 -16.582   1.674  1.00146.13    -0.273 OA
HETATM   20  C23 MIQ B 502       1.703 -16.791   5.023  1.00139.15     0.045 C 
ENDBRANCH  10  12
BRANCH   5  21
HETATM   21  N6  MIQ B 502       6.031 -14.257  11.656  1.00140.95    -0.377 N 
HETATM   22  C7  MIQ B 502       6.615 -13.004  12.103  1.00142.12     0.149 C 
HETATM   23  C8  MIQ B 502       7.704 -13.224  13.146  1.00144.10     0.187 C 
HETATM   24  O9  MIQ B 502       7.313 -14.097  14.163  1.00148.65    -0.388 OA
HETATM   25  C10 MIQ B 502       6.131 -14.833  14.049  1.00147.44     0.187 C 
HETATM   26  C11 MIQ B 502       5.657 -15.240  12.658  1.00144.08     0.149 C 
ENDBRANCH   5  21
TORSDOF 2
ENDMDL
