MODEL 1
REMARK VINA RESULT:      -7.1      0.000      0.000
REMARK  2 active torsions:
REMARK  status: ('A' for Active; 'I' for Inactive)
REMARK    1  A    between atoms: C5_5  and  N6_21 
REMARK    2  A    between atoms: C18_14  and  N17_19 
ROOT
HETATM    1  O1  MIQ B 502      15.750   2.045  -3.490  1.00142.91    -0.171 OA
HETATM    2  C2  MIQ B 502      16.833   1.785  -2.646  1.00141.17     0.195 A 
HETATM    3  C3  MIQ B 502      16.792   0.959  -1.321  1.00141.71     0.035 A 
HETATM    4  C4  MIQ B 502      15.712   0.249  -0.596  1.00142.86     0.046 A 
HETATM    5  C5  MIQ B 502      15.990  -0.432   0.616  1.00139.53     0.031 A 
HETATM    6  C12 MIQ B 502      17.345  -0.434   1.149  1.00139.38     0.030 A 
HETATM    7  C13 MIQ B 502      18.381   0.245   0.454  1.00141.18     0.019 A 
HETATM    8  C14 MIQ B 502      18.083   0.957  -0.820  1.00138.77     0.033 A 
HETATM    9  C15 MIQ B 502      18.931   1.786  -1.839  1.00142.10     0.195 A 
HETATM   10  N17 MIQ B 502      18.091   2.167  -2.787  1.00139.42    -0.288 N 
HETATM   11  O16 MIQ B 502      20.296   2.066  -1.759  1.00148.93    -0.171 OA
ENDROOT
BRANCH  10  12
HETATM   12  C18 MIQ B 502      18.530   2.979  -3.907  1.00139.82     0.187 C 
HETATM   13  C19 MIQ B 502      17.582   4.180  -4.014  1.00140.06     0.247 C 
HETATM   14  O25 MIQ B 502      17.367   4.832  -3.055  1.00143.95    -0.271 OA
HETATM   15  N20 MIQ B 502      16.945   4.540  -5.265  1.00140.02    -0.296 N 
HETATM   16  H13 MIQ B 502      16.323   5.323  -5.320  1.00142.77     0.171 HD
HETATM   17  C21 MIQ B 502      17.215   3.723  -6.419  1.00142.22     0.224 C 
HETATM   18  C22 MIQ B 502      17.437   2.244  -6.170  1.00139.52     0.106 C 
HETATM   19  O24 MIQ B 502      17.266   4.186  -7.506  1.00146.13    -0.273 OA
HETATM   20  C23 MIQ B 502      18.585   2.140  -5.183  1.00139.15     0.045 C 
ENDBRANCH  10  12
BRANCH   5  21
HETATM   21  N6  MIQ B 502      14.919  -1.111   1.324  1.00140.95    -0.377 N 
HETATM   22  C7  MIQ B 502      14.387  -2.341   0.763  1.00142.12     0.149 C 
HETATM   23  C8  MIQ B 502      12.943  -2.579   1.186  1.00144.10     0.187 C 
HETATM   24  O9  MIQ B 502      12.743  -2.413   2.558  1.00148.65    -0.388 OA
HETATM   25  C10 MIQ B 502      13.746  -1.858   3.356  1.00147.44     0.187 C 
HETATM   26  C11 MIQ B 502      14.696  -0.840   2.733  1.00144.08     0.149 C 
ENDBRANCH   5  21
TORSDOF 2
ENDMDL
MODEL 2
REMARK VINA RESULT:      -6.9      3.089      5.295
REMARK  2 active torsions:
REMARK  status: ('A' for Active; 'I' for Inactive)
REMARK    1  A    between atoms: C5_5  and  N6_21 
REMARK    2  A    between atoms: C18_14  and  N17_19 
ROOT
HETATM    1  O1  MIQ B 502      15.648   1.697  -7.239  1.00142.91    -0.171 OA
HETATM    2  C2  MIQ B 502      16.843   2.364  -6.958  1.00141.17     0.195 A 
HETATM    3  C3  MIQ B 502      17.565   2.419  -5.574  1.00141.71     0.035 A 
HETATM    4  C4  MIQ B 502      17.262   1.843  -4.243  1.00142.86     0.046 A 
HETATM    5  C5  MIQ B 502      18.132   2.073  -3.147  1.00139.53     0.031 A 
HETATM    6  C12 MIQ B 502      19.331   2.878  -3.333  1.00139.38     0.030 A 
HETATM    7  C13 MIQ B 502      19.623   3.429  -4.610  1.00141.18     0.019 A 
HETATM    8  C14 MIQ B 502      18.706   3.183  -5.757  1.00138.77     0.033 A 
HETATM    9  C15 MIQ B 502      18.693   3.603  -7.263  1.00142.10     0.195 A 
HETATM   10  N17 MIQ B 502      17.601   3.067  -7.782  1.00139.42    -0.288 N 
HETATM   11  O16 MIQ B 502      19.642   4.388  -7.920  1.00148.93    -0.171 OA
ENDROOT
BRANCH  10  12
HETATM   12  C18 MIQ B 502      17.249   3.264  -9.176  1.00139.82     0.187 C 
HETATM   13  C19 MIQ B 502      15.815   3.805  -9.225  1.00140.06     0.247 C 
HETATM   14  O25 MIQ B 502      15.529   4.739  -8.563  1.00143.95    -0.271 OA
HETATM   15  N20 MIQ B 502      14.801   3.206 -10.068  1.00140.02    -0.296 N 
HETATM   16  H13 MIQ B 502      13.867   3.564 -10.086  1.00142.77     0.171 HD
HETATM   17  C21 MIQ B 502      15.172   2.061 -10.859  1.00142.22     0.224 C 
HETATM   18  C22 MIQ B 502      16.201   1.122 -10.259  1.00139.52     0.106 C 
HETATM   19  O24 MIQ B 502      14.700   1.867 -11.925  1.00146.13    -0.273 OA
HETATM   20  C23 MIQ B 502      17.428   1.964  -9.958  1.00139.15     0.045 C 
ENDBRANCH  10  12
BRANCH   5  21
HETATM   21  N6  MIQ B 502      17.814   1.515  -1.845  1.00140.95    -0.377 N 
HETATM   22  C7  MIQ B 502      16.430   1.192  -1.547  1.00142.12     0.149 C 
HETATM   23  C8  MIQ B 502      16.142   1.248  -0.052  1.00144.10     0.187 C 
HETATM   24  O9  MIQ B 502      17.092   0.565   0.710  1.00148.65    -0.388 OA
HETATM   25  C10 MIQ B 502      18.275   0.108   0.123  1.00147.44     0.187 C 
HETATM   26  C11 MIQ B 502      18.856   0.890  -1.050  1.00144.08     0.149 C 
ENDBRANCH   5  21
TORSDOF 2
ENDMDL
MODEL 3
REMARK VINA RESULT:      -6.7      2.177      7.771
REMARK  2 active torsions:
REMARK  status: ('A' for Active; 'I' for Inactive)
REMARK    1  A    between atoms: C5_5  and  N6_21 
REMARK    2  A    between atoms: C18_14  and  N17_19 
ROOT
HETATM    1  O1  MIQ B 502      15.624   1.044  -1.617  1.00142.91    -0.171 OA
HETATM    2  C2  MIQ B 502      16.811   1.706  -1.936  1.00141.17     0.195 A 
HETATM    3  C3  MIQ B 502      17.188   2.302  -3.330  1.00141.71     0.035 A 
HETATM    4  C4  MIQ B 502      16.489   2.360  -4.636  1.00142.86     0.046 A 
HETATM    5  C5  MIQ B 502      17.103   2.987  -5.750  1.00139.53     0.031 A 
HETATM    6  C12 MIQ B 502      18.427   3.576  -5.609  1.00139.38     0.030 A 
HETATM    7  C13 MIQ B 502      19.097   3.521  -4.357  1.00141.18     0.019 A 
HETATM    8  C14 MIQ B 502      18.446   2.864  -3.190  1.00138.77     0.033 A 
HETATM    9  C15 MIQ B 502      18.852   2.617  -1.701  1.00142.10     0.195 A 
HETATM   10  N17 MIQ B 502      17.839   1.969  -1.149  1.00139.42    -0.288 N 
HETATM   11  O16 MIQ B 502      20.045   3.001  -1.085  1.00148.93    -0.171 OA
ENDROOT
BRANCH  10  12
HETATM   12  C18 MIQ B 502      17.873   1.555   0.242  1.00139.82     0.187 C 
HETATM   13  C19 MIQ B 502      17.595   0.048   0.287  1.00140.06     0.247 C 
HETATM   14  O25 MIQ B 502      18.223  -0.675  -0.402  1.00143.95    -0.271 OA
HETATM   15  N20 MIQ B 502      16.586  -0.517   1.160  1.00140.02    -0.296 N 
HETATM   16  H13 MIQ B 502      16.410  -1.502   1.175  1.00142.77     0.171 HD
HETATM   17  C21 MIQ B 502      15.826   0.386   1.984  1.00142.22     0.224 C 
HETATM   18  C22 MIQ B 502      15.535   1.757   1.405  1.00139.52     0.106 C 
HETATM   19  O24 MIQ B 502      15.452   0.073   3.061  1.00146.13    -0.273 OA
HETATM   20  C23 MIQ B 502      16.879   2.374   1.064  1.00139.15     0.045 C 
ENDBRANCH  10  12
BRANCH   5  21
HETATM   21  N6  MIQ B 502      16.414   3.023  -7.027  1.00140.95    -0.377 N 
HETATM   22  C7  MIQ B 502      16.961   3.851  -8.088  1.00142.12     0.149 C 
HETATM   23  C8  MIQ B 502      15.886   4.307  -9.066  1.00144.10     0.187 C 
HETATM   24  O9  MIQ B 502      15.058   3.264  -9.488  1.00148.65    -0.388 OA
HETATM   25  C10 MIQ B 502      15.116   2.017  -8.863  1.00147.44     0.187 C 
HETATM   26  C11 MIQ B 502      15.495   1.958  -7.386  1.00144.08     0.149 C 
ENDBRANCH   5  21
TORSDOF 2
ENDMDL
MODEL 4
REMARK VINA RESULT:      -6.6      2.483      8.113
REMARK  2 active torsions:
REMARK  status: ('A' for Active; 'I' for Inactive)
REMARK    1  A    between atoms: C5_5  and  N6_21 
REMARK    2  A    between atoms: C18_14  and  N17_19 
ROOT
HETATM    1  O1  MIQ B 502      15.335  -1.057   1.108  1.00142.91    -0.171 OA
HETATM    2  C2  MIQ B 502      16.033   0.142   1.266  1.00141.17     0.195 A 
HETATM    3  C3  MIQ B 502      16.521   1.083   0.119  1.00141.71     0.035 A 
HETATM    4  C4  MIQ B 502      16.416   1.028  -1.359  1.00142.86     0.046 A 
HETATM    5  C5  MIQ B 502      16.972   2.060  -2.156  1.00139.53     0.031 A 
HETATM    6  C12 MIQ B 502      17.649   3.180  -1.518  1.00139.38     0.030 A 
HETATM    7  C13 MIQ B 502      17.749   3.234  -0.101  1.00141.18     0.019 A 
HETATM    8  C14 MIQ B 502      17.161   2.148   0.730  1.00138.77     0.033 A 
HETATM    9  C15 MIQ B 502      17.070   1.867   2.266  1.00142.10     0.195 A 
HETATM   10  N17 MIQ B 502      16.416   0.724   2.389  1.00139.42    -0.288 N 
HETATM   11  O16 MIQ B 502      17.580   2.663   3.293  1.00148.93    -0.171 OA
ENDROOT
BRANCH  10  12
HETATM   12  C18 MIQ B 502      16.155   0.137   3.691  1.00139.82     0.187 C 
HETATM   13  C19 MIQ B 502      16.623  -1.322   3.648  1.00140.06     0.247 C 
HETATM   14  O25 MIQ B 502      17.712  -1.567   3.264  1.00143.95    -0.271 OA
HETATM   15  N20 MIQ B 502      15.767  -2.412   4.071  1.00140.02    -0.296 N 
HETATM   16  H13 MIQ B 502      16.083  -3.361   4.032  1.00142.77     0.171 HD
HETATM   17  C21 MIQ B 502      14.440  -2.089   4.525  1.00142.22     0.224 C 
HETATM   18  C22 MIQ B 502      13.760  -0.908   3.859  1.00139.52     0.106 C 
HETATM   19  O24 MIQ B 502      13.910  -2.711   5.379  1.00146.13    -0.273 OA
HETATM   20  C23 MIQ B 502      14.679   0.285   4.055  1.00139.15     0.045 C 
ENDBRANCH  10  12
BRANCH   5  21
HETATM   21  N6  MIQ B 502      16.875   1.986  -3.602  1.00140.95    -0.377 N 
HETATM   22  C7  MIQ B 502      16.271   3.099  -4.315  1.00142.12     0.149 C 
HETATM   23  C8  MIQ B 502      15.658   2.660  -5.639  1.00144.10     0.187 C 
HETATM   24  O9  MIQ B 502      16.516   1.860  -6.397  1.00148.65    -0.388 OA
HETATM   25  C10 MIQ B 502      17.696   1.361  -5.838  1.00147.44     0.187 C 
HETATM   26  C11 MIQ B 502      17.730   1.074  -4.341  1.00144.08     0.149 C 
ENDBRANCH   5  21
TORSDOF 2
ENDMDL
MODEL 5
REMARK VINA RESULT:      -6.5      2.393      7.767
REMARK  2 active torsions:
REMARK  status: ('A' for Active; 'I' for Inactive)
REMARK    1  A    between atoms: C5_5  and  N6_21 
REMARK    2  A    between atoms: C18_14  and  N17_19 
ROOT
HETATM    1  O1  MIQ B 502      16.525  -0.439  -0.290  1.00142.91    -0.171 OA
HETATM    2  C2  MIQ B 502      16.839   0.922  -0.317  1.00141.17     0.195 A 
HETATM    3  C3  MIQ B 502      16.992   1.808  -1.595  1.00141.71     0.035 A 
HETATM    4  C4  MIQ B 502      16.866   1.533  -3.046  1.00142.86     0.046 A 
HETATM    5  C5  MIQ B 502      17.067   2.571  -3.991  1.00139.53     0.031 A 
HETATM    6  C12 MIQ B 502      17.398   3.912  -3.533  1.00139.38     0.030 A 
HETATM    7  C13 MIQ B 502      17.518   4.176  -2.142  1.00141.18     0.019 A 
HETATM    8  C14 MIQ B 502      17.304   3.083  -1.153  1.00138.77     0.033 A 
HETATM    9  C15 MIQ B 502      17.344   2.989   0.407  1.00142.10     0.195 A 
HETATM   10  N17 MIQ B 502      17.063   1.731   0.704  1.00139.42    -0.288 N 
HETATM   11  O16 MIQ B 502      17.623   4.025   1.300  1.00148.93    -0.171 OA
ENDROOT
BRANCH  10  12
HETATM   12  C18 MIQ B 502      17.026   1.268   2.079  1.00139.82     0.187 C 
HETATM   13  C19 MIQ B 502      17.916   0.023   2.177  1.00140.06     0.247 C 
HETATM   14  O25 MIQ B 502      19.017   0.068   1.757  1.00143.95    -0.271 OA
HETATM   15  N20 MIQ B 502      17.444  -1.208   2.777  1.00140.02    -0.296 N 
HETATM   16  H13 MIQ B 502      18.033  -2.016   2.829  1.00142.77     0.171 HD
HETATM   17  C21 MIQ B 502      16.092  -1.242   3.273  1.00142.22     0.224 C 
HETATM   18  C22 MIQ B 502      15.069  -0.416   2.518  1.00139.52     0.106 C 
HETATM   19  O24 MIQ B 502      15.799  -1.878   4.225  1.00146.13    -0.273 OA
HETATM   20  C23 MIQ B 502      15.584   1.012   2.515  1.00139.15     0.045 C 
ENDBRANCH  10  12
BRANCH   5  21
HETATM   21  N6  MIQ B 502      16.955   2.284  -5.410  1.00140.95    -0.377 N 
HETATM   22  C7  MIQ B 502      15.858   2.878  -6.154  1.00142.12     0.149 C 
HETATM   23  C8  MIQ B 502      15.477   2.043  -7.370  1.00144.10     0.187 C 
HETATM   24  O9  MIQ B 502      16.582   1.665  -8.136  1.00148.65    -0.388 OA
HETATM   25  C10 MIQ B 502      17.878   1.862  -7.654  1.00147.44     0.187 C 
HETATM   26  C11 MIQ B 502      18.113   1.810  -6.148  1.00144.08     0.149 C 
ENDBRANCH   5  21
TORSDOF 2
ENDMDL
MODEL 6
REMARK VINA RESULT:      -6.4      1.690      2.883
REMARK  2 active torsions:
REMARK  status: ('A' for Active; 'I' for Inactive)
REMARK    1  A    between atoms: C5_5  and  N6_21 
REMARK    2  A    between atoms: C18_14  and  N17_19 
ROOT
HETATM    1  O1  MIQ B 502      20.141   2.007  -1.686  1.00142.91    -0.171 OA
HETATM    2  C2  MIQ B 502      18.771   1.769  -1.822  1.00141.17     0.195 A 
HETATM    3  C3  MIQ B 502      17.867   0.983  -0.819  1.00141.71     0.035 A 
HETATM    4  C4  MIQ B 502      18.130   0.304   0.472  1.00142.86     0.046 A 
HETATM    5  C5  MIQ B 502      17.077  -0.340   1.170  1.00139.53     0.031 A 
HETATM    6  C12 MIQ B 502      15.731  -0.332   0.614  1.00139.38     0.030 A 
HETATM    7  C13 MIQ B 502      15.479   0.320  -0.623  1.00141.18     0.019 A 
HETATM    8  C14 MIQ B 502      16.588   0.996  -1.350  1.00138.77     0.033 A 
HETATM    9  C15 MIQ B 502      16.697   1.796  -2.689  1.00142.10     0.195 A 
HETATM   10  N17 MIQ B 502      17.967   2.153  -2.798  1.00139.42    -0.288 N 
HETATM   11  O16 MIQ B 502      15.663   2.071  -3.585  1.00148.93    -0.171 OA
ENDROOT
BRANCH  10  12
HETATM   12  C18 MIQ B 502      18.446   2.906  -3.942  1.00139.82     0.187 C 
HETATM   13  C19 MIQ B 502      17.546   4.137  -4.102  1.00140.06     0.247 C 
HETATM   14  O25 MIQ B 502      17.350   4.832  -3.168  1.00143.95    -0.271 OA
HETATM   15  N20 MIQ B 502      16.933   4.477  -5.369  1.00140.02    -0.296 N 
HETATM   16  H13 MIQ B 502      16.343   5.280  -5.459  1.00142.77     0.171 HD
HETATM   17  C21 MIQ B 502      17.179   3.608  -6.492  1.00142.22     0.224 C 
HETATM   18  C22 MIQ B 502      17.342   2.132  -6.187  1.00139.52     0.106 C 
HETATM   19  O24 MIQ B 502      17.256   4.029  -7.593  1.00146.13    -0.273 OA
HETATM   20  C23 MIQ B 502      18.477   2.020  -5.187  1.00139.15     0.045 C 
ENDBRANCH  10  12
BRANCH   5  21
HETATM   21  N6  MIQ B 502      17.351  -1.015   2.425  1.00140.95    -0.377 N 
HETATM   22  C7  MIQ B 502      18.579  -0.695   3.132  1.00142.12     0.149 C 
HETATM   23  C8  MIQ B 502      19.049  -1.851   4.007  1.00144.10     0.187 C 
HETATM   24  O9  MIQ B 502      18.028  -2.384   4.796  1.00148.65    -0.388 OA
HETATM   25  C10 MIQ B 502      16.699  -2.010   4.582  1.00147.44     0.187 C 
HETATM   26  C11 MIQ B 502      16.266  -1.631   3.170  1.00144.08     0.149 C 
ENDBRANCH   5  21
TORSDOF 2
ENDMDL
MODEL 7
REMARK VINA RESULT:      -6.4      3.242      9.606
REMARK  2 active torsions:
REMARK  status: ('A' for Active; 'I' for Inactive)
REMARK    1  A    between atoms: C5_5  and  N6_21 
REMARK    2  A    between atoms: C18_14  and  N17_19 
ROOT
HETATM    1  O1  MIQ B 502      16.650  -0.454   5.056  1.00142.91    -0.171 OA
HETATM    2  C2  MIQ B 502      15.620  -0.797   4.177  1.00141.17     0.195 A 
HETATM    3  C3  MIQ B 502      15.571  -0.487   2.647  1.00141.71     0.035 A 
HETATM    4  C4  MIQ B 502      16.500   0.197   1.716  1.00142.86     0.046 A 
HETATM    5  C5  MIQ B 502      16.172   0.326   0.343  1.00139.53     0.031 A 
HETATM    6  C12 MIQ B 502      14.916  -0.216  -0.154  1.00139.38     0.030 A 
HETATM    7  C13 MIQ B 502      14.025  -0.873   0.738  1.00141.18     0.019 A 
HETATM    8  C14 MIQ B 502      14.376  -1.008   2.178  1.00138.77     0.033 A 
HETATM    9  C15 MIQ B 502      13.679  -1.646   3.424  1.00142.10     0.195 A 
HETATM   10  N17 MIQ B 502      14.498  -1.445   4.443  1.00139.42    -0.288 N 
HETATM   11  O16 MIQ B 502      12.442  -2.292   3.450  1.00148.93    -0.171 OA
ENDROOT
BRANCH  10  12
HETATM   12  C18 MIQ B 502      14.166  -1.895   5.782  1.00139.82     0.187 C 
HETATM   13  C19 MIQ B 502      14.270  -0.687   6.721  1.00140.06     0.247 C 
HETATM   14  O25 MIQ B 502      13.707   0.311   6.440  1.00143.95    -0.271 OA
HETATM   15  N20 MIQ B 502      15.036  -0.739   7.949  1.00140.02    -0.296 N 
HETATM   16  H13 MIQ B 502      15.101   0.059   8.551  1.00142.77     0.171 HD
HETATM   17  C21 MIQ B 502      15.722  -1.965   8.265  1.00142.22     0.224 C 
HETATM   18  C22 MIQ B 502      16.257  -2.767   7.095  1.00139.52     0.106 C 
HETATM   19  O24 MIQ B 502      15.856  -2.327   9.382  1.00146.13    -0.273 OA
HETATM   20  C23 MIQ B 502      15.071  -3.056   6.192  1.00139.15     0.045 C 
ENDBRANCH  10  12
BRANCH   5  21
HETATM   21  N6  MIQ B 502      17.084   1.011  -0.555  1.00140.95    -0.377 N 
HETATM   22  C7  MIQ B 502      16.586   1.457  -1.845  1.00142.12     0.149 C 
HETATM   23  C8  MIQ B 502      17.696   1.546  -2.884  1.00144.10     0.187 C 
HETATM   24  O9  MIQ B 502      18.826   2.220  -2.415  1.00148.65    -0.388 OA
HETATM   25  C10 MIQ B 502      18.947   2.541  -1.061  1.00147.44     0.187 C 
HETATM   26  C11 MIQ B 502      18.293   1.624  -0.032  1.00144.08     0.149 C 
ENDBRANCH   5  21
TORSDOF 2
ENDMDL
MODEL 8
REMARK VINA RESULT:      -6.3     17.127     18.846
REMARK  2 active torsions:
REMARK  status: ('A' for Active; 'I' for Inactive)
REMARK    1  A    between atoms: C5_5  and  N6_21 
REMARK    2  A    between atoms: C18_14  and  N17_19 
ROOT
HETATM    1  O1  MIQ B 502      10.093  -5.766 -15.579  1.00142.91    -0.171 OA
HETATM    2  C2  MIQ B 502      10.022  -6.732 -16.585  1.00141.17     0.195 A 
HETATM    3  C3  MIQ B 502       9.330  -8.128 -16.476  1.00141.71     0.035 A 
HETATM    4  C4  MIQ B 502       8.594  -8.819 -15.391  1.00142.86     0.046 A 
HETATM    5  C5  MIQ B 502       8.065 -10.118 -15.597  1.00139.53     0.031 A 
HETATM    6  C12 MIQ B 502       8.246 -10.775 -16.884  1.00139.38     0.030 A 
HETATM    7  C13 MIQ B 502       8.950 -10.113 -17.925  1.00141.18     0.019 A 
HETATM    8  C14 MIQ B 502       9.501  -8.748 -17.703  1.00138.77     0.033 A 
HETATM    9  C15 MIQ B 502      10.304  -7.731 -18.579  1.00142.10     0.195 A 
HETATM   10  N17 MIQ B 502      10.508  -6.672 -17.813  1.00139.42    -0.288 N 
HETATM   11  O16 MIQ B 502      10.721  -7.912 -19.899  1.00148.93    -0.171 OA
ENDROOT
BRANCH  10  12
HETATM   12  C18 MIQ B 502      11.245  -5.519 -18.296  1.00139.82     0.187 C 
HETATM   13  C19 MIQ B 502      12.281  -5.145 -17.229  1.00140.06     0.247 C 
HETATM   14  O25 MIQ B 502      12.998  -5.980 -16.806  1.00143.95    -0.271 OA
HETATM   15  N20 MIQ B 502      12.408  -3.791 -16.730  1.00140.02    -0.296 N 
HETATM   16  H13 MIQ B 502      13.084  -3.561 -16.028  1.00142.77     0.171 HD
HETATM   17  C21 MIQ B 502      11.514  -2.792 -17.255  1.00142.22     0.224 C 
HETATM   18  C22 MIQ B 502      10.117  -3.253 -17.624  1.00139.52     0.106 C 
HETATM   19  O24 MIQ B 502      11.856  -1.669 -17.395  1.00146.13    -0.273 OA
HETATM   20  C23 MIQ B 502      10.286  -4.377 -18.630  1.00139.15     0.045 C 
ENDBRANCH  10  12
BRANCH   5  21
HETATM   21  N6  MIQ B 502       7.360 -10.788 -14.520  1.00140.95    -0.377 N 
HETATM   22  C7  MIQ B 502       6.003 -10.370 -14.213  1.00142.12     0.149 C 
HETATM   23  C8  MIQ B 502       5.639 -10.646 -12.759  1.00144.10     0.187 C 
HETATM   24  O9  MIQ B 502       5.972 -11.939 -12.352  1.00148.65    -0.388 OA
HETATM   25  C10 MIQ B 502       6.762 -12.756 -13.164  1.00147.44     0.187 C 
HETATM   26  C11 MIQ B 502       7.797 -12.099 -14.072  1.00144.08     0.149 C 
ENDBRANCH   5  21
TORSDOF 2
ENDMDL
MODEL 9
REMARK VINA RESULT:      -6.3      3.904      9.463
REMARK  2 active torsions:
REMARK  status: ('A' for Active; 'I' for Inactive)
REMARK    1  A    between atoms: C5_5  and  N6_21 
REMARK    2  A    between atoms: C18_14  and  N17_19 
ROOT
HETATM    1  O1  MIQ B 502      15.647   2.034   5.116  1.00142.91    -0.171 OA
HETATM    2  C2  MIQ B 502      15.210   0.821   4.580  1.00141.17     0.195 A 
HETATM    3  C3  MIQ B 502      15.494   0.295   3.137  1.00141.71     0.035 A 
HETATM    4  C4  MIQ B 502      16.242   0.844   1.981  1.00142.86     0.046 A 
HETATM    5  C5  MIQ B 502      16.327   0.112   0.769  1.00139.53     0.031 A 
HETATM    6  C12 MIQ B 502      15.676  -1.186   0.662  1.00139.38     0.030 A 
HETATM    7  C13 MIQ B 502      14.960  -1.713   1.770  1.00141.18     0.019 A 
HETATM    8  C14 MIQ B 502      14.876  -0.941   3.040  1.00138.77     0.033 A 
HETATM    9  C15 MIQ B 502      14.205  -1.184   4.431  1.00142.10     0.195 A 
HETATM   10  N17 MIQ B 502      14.487  -0.120   5.164  1.00139.42    -0.288 N 
HETATM   11  O16 MIQ B 502      13.459  -2.299   4.816  1.00148.93    -0.171 OA
ENDROOT
BRANCH  10  12
HETATM   12  C18 MIQ B 502      14.007   0.011   6.527  1.00139.82     0.187 C 
HETATM   13  C19 MIQ B 502      13.330   1.381   6.655  1.00140.06     0.247 C 
HETATM   14  O25 MIQ B 502      12.510   1.694   5.868  1.00143.95    -0.271 OA
HETATM   15  N20 MIQ B 502      13.666   2.302   7.722  1.00140.02    -0.296 N 
HETATM   16  H13 MIQ B 502      13.221   3.196   7.791  1.00142.77     0.171 HD
HETATM   17  C21 MIQ B 502      14.678   1.902   8.665  1.00142.22     0.224 C 
HETATM   18  C22 MIQ B 502      15.805   1.039   8.130  1.00139.52     0.106 C 
HETATM   19  O24 MIQ B 502      14.627   2.226   9.800  1.00146.13    -0.273 OA
HETATM   20  C23 MIQ B 502      15.155  -0.187   7.516  1.00139.15     0.045 C 
ENDBRANCH  10  12
BRANCH   5  21
HETATM   21  N6  MIQ B 502      17.050   0.669  -0.360  1.00140.95    -0.377 N 
HETATM   22  C7  MIQ B 502      18.460   0.349  -0.507  1.00142.12     0.149 C 
HETATM   23  C8  MIQ B 502      19.212   1.433  -1.269  1.00144.10     0.187 C 
HETATM   24  O9  MIQ B 502      18.562   1.824  -2.441  1.00148.65    -0.388 OA
HETATM   25  C10 MIQ B 502      17.258   1.398  -2.703  1.00147.44     0.187 C 
HETATM   26  C11 MIQ B 502      16.324   1.142  -1.525  1.00144.08     0.149 C 
ENDBRANCH   5  21
TORSDOF 2
ENDMDL
