MODEL 1
REMARK VINA RESULT:      -6.5      0.000      0.000
REMARK  2 active torsions:
REMARK  status: ('A' for Active; 'I' for Inactive)
REMARK    1  A    between atoms: C5_5  and  N6_21 
REMARK    2  A    between atoms: C18_14  and  N17_19 
ROOT
HETATM    1  O1  MIQ B 502       8.031   9.887  12.328  1.00142.91    -0.171 OA
HETATM    2  C2  MIQ B 502       8.612  11.158  12.322  1.00141.17     0.195 A 
HETATM    3  C3  MIQ B 502      10.138  11.473  12.224  1.00141.71     0.035 A 
HETATM    4  C4  MIQ B 502      11.349  10.625  12.112  1.00142.86     0.046 A 
HETATM    5  C5  MIQ B 502      12.634  11.218  12.037  1.00139.53     0.031 A 
HETATM    6  C12 MIQ B 502      12.765  12.668  12.070  1.00139.38     0.030 A 
HETATM    7  C13 MIQ B 502      11.604  13.481  12.176  1.00141.18     0.019 A 
HETATM    8  C14 MIQ B 502      10.257  12.853  12.251  1.00138.77     0.033 A 
HETATM    9  C15 MIQ B 502       8.795  13.397  12.367  1.00142.10     0.195 A 
HETATM   10  N17 MIQ B 502       8.010  12.333  12.392  1.00139.42    -0.288 N 
HETATM   11  O16 MIQ B 502       8.405  14.736  12.434  1.00148.93    -0.171 OA
ENDROOT
BRANCH  10  12
HETATM   12  C18 MIQ B 502       6.569  12.457  12.510  1.00139.82     0.187 C 
HETATM   13  C19 MIQ B 502       6.109  11.515  13.629  1.00140.06     0.247 C 
HETATM   14  O25 MIQ B 502       6.643  11.564  14.680  1.00143.95    -0.271 OA
HETATM   15  N20 MIQ B 502       5.031  10.567  13.434  1.00140.02    -0.296 N 
HETATM   16  H13 MIQ B 502       4.744   9.953  14.171  1.00142.77     0.171 HD
HETATM   17  C21 MIQ B 502       4.401  10.519  12.140  1.00142.22     0.224 C 
HETATM   18  C22 MIQ B 502       5.287  10.799  10.941  1.00139.52     0.106 C 
HETATM   19  O24 MIQ B 502       3.251  10.277  12.021  1.00146.13    -0.273 OA
HETATM   20  C23 MIQ B 502       5.899  12.170  11.168  1.00139.15     0.045 C 
ENDBRANCH  10  12
BRANCH   5  21
HETATM   21  N6  MIQ B 502      13.813  10.376  11.943  1.00140.95    -0.377 N 
HETATM   22  C7  MIQ B 502      15.122  11.002  12.010  1.00142.12     0.149 C 
HETATM   23  C8  MIQ B 502      16.182  10.184  11.284  1.00144.10     0.187 C 
HETATM   24  O9  MIQ B 502      16.150   8.830  11.623  1.00148.65    -0.388 OA
HETATM   25  C10 MIQ B 502      15.088   8.312  12.369  1.00147.44     0.187 C 
HETATM   26  C11 MIQ B 502      13.712   8.954  12.223  1.00144.08     0.149 C 
ENDBRANCH   5  21
TORSDOF 2
ENDMDL
MODEL 2
REMARK VINA RESULT:      -6.3      5.048      8.706
REMARK  2 active torsions:
REMARK  status: ('A' for Active; 'I' for Inactive)
REMARK    1  A    between atoms: C5_5  and  N6_21 
REMARK    2  A    between atoms: C18_14  and  N17_19 
ROOT
HETATM    1  O1  MIQ B 502       6.222  12.305  14.480  1.00142.91    -0.171 OA
HETATM    2  C2  MIQ B 502       5.700  11.258  15.244  1.00141.17     0.195 A 
HETATM    3  C3  MIQ B 502       5.444  11.279  16.784  1.00141.71     0.035 A 
HETATM    4  C4  MIQ B 502       5.643  12.304  17.837  1.00142.86     0.046 A 
HETATM    5  C5  MIQ B 502       5.305  12.022  19.184  1.00139.53     0.031 A 
HETATM    6  C12 MIQ B 502       4.760  10.718  19.535  1.00139.38     0.030 A 
HETATM    7  C13 MIQ B 502       4.568   9.736  18.526  1.00141.18     0.019 A 
HETATM    8  C14 MIQ B 502       4.922  10.039  17.113  1.00138.77     0.033 A 
HETATM    9  C15 MIQ B 502       4.853   9.243  15.768  1.00142.10     0.195 A 
HETATM   10  N17 MIQ B 502       5.317  10.060  14.837  1.00139.42    -0.288 N 
HETATM   11  O16 MIQ B 502       4.398   7.936  15.593  1.00148.93    -0.171 OA
ENDROOT
BRANCH  10  12
HETATM   12  C18 MIQ B 502       5.416   9.648  13.449  1.00139.82     0.187 C 
HETATM   13  C19 MIQ B 502       6.853   9.915  12.983  1.00140.06     0.247 C 
HETATM   14  O25 MIQ B 502       7.752   9.509  13.629  1.00143.95    -0.271 OA
HETATM   15  N20 MIQ B 502       7.137  10.649  11.767  1.00140.02    -0.296 N 
HETATM   16  H13 MIQ B 502       8.079  10.823  11.477  1.00142.77     0.171 HD
HETATM   17  C21 MIQ B 502       6.022  11.145  11.002  1.00142.22     0.224 C 
HETATM   18  C22 MIQ B 502       4.795  11.571  11.784  1.00139.52     0.106 C 
HETATM   19  O24 MIQ B 502       6.062  11.209   9.822  1.00146.13    -0.273 OA
HETATM   20  C23 MIQ B 502       4.366  10.368  12.604  1.00139.15     0.045 C 
ENDBRANCH  10  12
BRANCH   5  21
HETATM   21  N6  MIQ B 502       5.519  13.029  20.207  1.00140.95    -0.377 N 
HETATM   22  C7  MIQ B 502       5.893  14.371  19.793  1.00142.12     0.149 C 
HETATM   23  C8  MIQ B 502       6.684  15.100  20.872  1.00144.10     0.187 C 
HETATM   24  O9  MIQ B 502       6.094  15.007  22.134  1.00148.65    -0.388 OA
HETATM   25  C10 MIQ B 502       5.028  14.131  22.355  1.00147.44     0.187 C 
HETATM   26  C11 MIQ B 502       4.956  12.848  21.534  1.00144.08     0.149 C 
ENDBRANCH   5  21
TORSDOF 2
ENDMDL
MODEL 3
REMARK VINA RESULT:      -6.3      1.383      1.743
REMARK  2 active torsions:
REMARK  status: ('A' for Active; 'I' for Inactive)
REMARK    1  A    between atoms: C5_5  and  N6_21 
REMARK    2  A    between atoms: C18_14  and  N17_19 
ROOT
HETATM    1  O1  MIQ B 502       7.675   9.457  12.132  1.00142.91    -0.171 OA
HETATM    2  C2  MIQ B 502       8.155  10.519  12.901  1.00141.17     0.195 A 
HETATM    3  C3  MIQ B 502       9.656  10.874  13.148  1.00141.71     0.035 A 
HETATM    4  C4  MIQ B 502      10.933  10.273  12.696  1.00142.86     0.046 A 
HETATM    5  C5  MIQ B 502      12.172  10.837  13.096  1.00139.53     0.031 A 
HETATM    6  C12 MIQ B 502      12.187  12.013  13.954  1.00139.38     0.030 A 
HETATM    7  C13 MIQ B 502      10.963  12.590  14.387  1.00141.18     0.019 A 
HETATM    8  C14 MIQ B 502       9.666  11.995  13.962  1.00138.77     0.033 A 
HETATM    9  C15 MIQ B 502       8.163  12.338  14.222  1.00142.10     0.195 A 
HETATM   10  N17 MIQ B 502       7.462  11.429  13.564  1.00139.42    -0.288 N 
HETATM   11  O16 MIQ B 502       7.666  13.389  14.994  1.00148.93    -0.171 OA
ENDROOT
BRANCH  10  12
HETATM   12  C18 MIQ B 502       6.011  11.426  13.590  1.00139.82     0.187 C 
HETATM   13  C19 MIQ B 502       5.553   9.999  13.916  1.00140.06     0.247 C 
HETATM   14  O25 MIQ B 502       6.011   9.447  14.852  1.00143.95    -0.271 OA
HETATM   15  N20 MIQ B 502       4.566   9.311  13.110  1.00140.02    -0.296 N 
HETATM   16  H13 MIQ B 502       4.279   8.377  13.330  1.00142.77     0.171 HD
HETATM   17  C21 MIQ B 502       4.028  10.003  11.967  1.00142.22     0.224 C 
HETATM   18  C22 MIQ B 502       4.965  10.946  11.238  1.00139.52     0.106 C 
HETATM   19  O24 MIQ B 502       2.909   9.845  11.619  1.00146.13    -0.273 OA
HETATM   20  C23 MIQ B 502       5.454  11.949  12.267  1.00139.15     0.045 C 
ENDBRANCH  10  12
BRANCH   5  21
HETATM   21  N6  MIQ B 502      13.415  10.229  12.658  1.00140.95    -0.377 N 
HETATM   22  C7  MIQ B 502      13.373   8.889  12.097  1.00142.12     0.149 C 
HETATM   23  C8  MIQ B 502      14.694   8.153  12.285  1.00144.10     0.187 C 
HETATM   24  O9  MIQ B 502      15.801   8.920  11.917  1.00148.65    -0.388 OA
HETATM   25  C10 MIQ B 502      15.658  10.282  11.641  1.00147.44     0.187 C 
HETATM   26  C11 MIQ B 502      14.568  11.063  12.368  1.00144.08     0.149 C 
ENDBRANCH   5  21
TORSDOF 2
ENDMDL
MODEL 4
REMARK VINA RESULT:      -6.2     16.916     20.072
REMARK  2 active torsions:
REMARK  status: ('A' for Active; 'I' for Inactive)
REMARK    1  A    between atoms: C5_5  and  N6_21 
REMARK    2  A    between atoms: C18_14  and  N17_19 
ROOT
HETATM    1  O1  MIQ B 502       0.829  16.472  -2.307  1.00142.91    -0.171 OA
HETATM    2  C2  MIQ B 502       1.820  17.411  -2.603  1.00141.17     0.195 A 
HETATM    3  C3  MIQ B 502       1.594  18.926  -2.907  1.00141.71     0.035 A 
HETATM    4  C4  MIQ B 502       0.387  19.783  -2.972  1.00142.86     0.046 A 
HETATM    5  C5  MIQ B 502       0.503  21.163  -3.279  1.00139.53     0.031 A 
HETATM    6  C12 MIQ B 502       1.816  21.739  -3.530  1.00139.38     0.030 A 
HETATM    7  C13 MIQ B 502       2.974  20.918  -3.467  1.00141.18     0.019 A 
HETATM    8  C14 MIQ B 502       2.846  19.471  -3.142  1.00138.77     0.033 A 
HETATM    9  C15 MIQ B 502       3.855  18.287  -2.983  1.00142.10     0.195 A 
HETATM   10  N17 MIQ B 502       3.126  17.224  -2.684  1.00139.42    -0.288 N 
HETATM   11  O16 MIQ B 502       5.242  18.345  -3.131  1.00148.93    -0.171 OA
ENDROOT
BRANCH  10  12
HETATM   12  C18 MIQ B 502       3.734  15.923  -2.477  1.00139.82     0.187 C 
HETATM   13  C19 MIQ B 502       4.879  16.096  -1.472  1.00140.06     0.247 C 
HETATM   14  O25 MIQ B 502       4.672  16.652  -0.452  1.00143.95    -0.271 OA
HETATM   15  N20 MIQ B 502       6.211  15.590  -1.736  1.00140.02    -0.296 N 
HETATM   16  H13 MIQ B 502       6.951  15.716  -1.074  1.00142.77     0.171 HD
HETATM   17  C21 MIQ B 502       6.442  14.925  -2.992  1.00142.22     0.224 C 
HETATM   18  C22 MIQ B 502       5.656  15.430  -4.186  1.00139.52     0.106 C 
HETATM   19  O24 MIQ B 502       7.204  14.026  -3.084  1.00146.13    -0.273 OA
HETATM   20  C23 MIQ B 502       4.189  15.331  -3.810  1.00139.15     0.045 C 
ENDBRANCH  10  12
BRANCH   5  21
HETATM   21  N6  MIQ B 502      -0.690  21.987  -3.353  1.00140.95    -0.377 N 
HETATM   22  C7  MIQ B 502      -1.977  21.334  -3.513  1.00142.12     0.149 C 
HETATM   23  C8  MIQ B 502      -2.992  22.238  -4.202  1.00144.10     0.187 C 
HETATM   24  O9  MIQ B 502      -3.038  23.520  -3.652  1.00148.65    -0.388 OA
HETATM   25  C10 MIQ B 502      -2.068  23.932  -2.734  1.00147.44     0.187 C 
HETATM   26  C11 MIQ B 502      -0.664  23.348  -2.845  1.00144.08     0.149 C 
ENDBRANCH   5  21
TORSDOF 2
ENDMDL
MODEL 5
REMARK VINA RESULT:      -6.2      4.425      7.195
REMARK  2 active torsions:
REMARK  status: ('A' for Active; 'I' for Inactive)
REMARK    1  A    between atoms: C5_5  and  N6_21 
REMARK    2  A    between atoms: C18_14  and  N17_19 
ROOT
HETATM    1  O1  MIQ B 502       8.174  10.365  16.750  1.00142.91    -0.171 OA
HETATM    2  C2  MIQ B 502       7.116   9.838  16.007  1.00141.17     0.195 A 
HETATM    3  C3  MIQ B 502       6.778  10.171  14.519  1.00141.71     0.035 A 
HETATM    4  C4  MIQ B 502       7.399  11.057  13.506  1.00142.86     0.046 A 
HETATM    5  C5  MIQ B 502       6.851  11.151  12.202  1.00139.53     0.031 A 
HETATM    6  C12 MIQ B 502       5.670  10.371  11.857  1.00139.38     0.030 A 
HETATM    7  C13 MIQ B 502       5.075   9.521  12.827  1.00141.18     0.019 A 
HETATM    8  C14 MIQ B 502       5.657   9.425  14.194  1.00138.77     0.033 A 
HETATM    9  C15 MIQ B 502       5.297   8.623  15.488  1.00142.10     0.195 A 
HETATM   10  N17 MIQ B 502       6.201   8.964  16.391  1.00139.42    -0.288 N 
HETATM   11  O16 MIQ B 502       4.235   7.733  15.651  1.00148.93    -0.171 OA
ENDROOT
BRANCH  10  12
HETATM   12  C18 MIQ B 502       6.170   8.420  17.736  1.00139.82     0.187 C 
HETATM   13  C19 MIQ B 502       6.204   9.597  18.718  1.00140.06     0.247 C 
HETATM   14  O25 MIQ B 502       5.436  10.482  18.584  1.00143.95    -0.271 OA
HETATM   15  N20 MIQ B 502       7.152   9.652  19.813  1.00140.02    -0.296 N 
HETATM   16  H13 MIQ B 502       7.168  10.429  20.443  1.00142.77     0.171 HD
HETATM   17  C21 MIQ B 502       8.087   8.565  19.950  1.00142.22     0.224 C 
HETATM   18  C22 MIQ B 502       8.564   7.911  18.668  1.00139.52     0.106 C 
HETATM   19  O24 MIQ B 502       8.458   8.200  21.011  1.00146.13    -0.273 OA
HETATM   20  C23 MIQ B 502       7.321   7.435  17.938  1.00139.15     0.045 C 
ENDBRANCH  10  12
BRANCH   5  21
HETATM   21  N6  MIQ B 502       7.461  12.034  11.225  1.00140.95    -0.377 N 
HETATM   22  C7  MIQ B 502       6.644  12.528  10.130  1.00142.12     0.149 C 
HETATM   23  C8  MIQ B 502       7.482  12.864   8.903  1.00144.10     0.187 C 
HETATM   24  O9  MIQ B 502       8.605  13.636   9.206  1.00148.65    -0.388 OA
HETATM   25  C10 MIQ B 502       8.985  13.841  10.534  1.00147.44     0.187 C 
HETATM   26  C11 MIQ B 502       8.679  12.752  11.557  1.00144.08     0.149 C 
ENDBRANCH   5  21
TORSDOF 2
ENDMDL
MODEL 6
REMARK VINA RESULT:      -6.1      1.998      7.930
REMARK  2 active torsions:
REMARK  status: ('A' for Active; 'I' for Inactive)
REMARK    1  A    between atoms: C5_5  and  N6_21 
REMARK    2  A    between atoms: C18_14  and  N17_19 
ROOT
HETATM    1  O1  MIQ B 502      11.539   9.815  12.096  1.00142.91    -0.171 OA
HETATM    2  C2  MIQ B 502      11.632  11.194  11.900  1.00141.17     0.195 A 
HETATM    3  C3  MIQ B 502      10.437  12.199  11.833  1.00141.71     0.035 A 
HETATM    4  C4  MIQ B 502       8.968  12.043  11.948  1.00142.86     0.046 A 
HETATM    5  C5  MIQ B 502       8.117  13.173  11.844  1.00139.53     0.031 A 
HETATM    6  C12 MIQ B 502       8.692  14.493  11.624  1.00139.38     0.030 A 
HETATM    7  C13 MIQ B 502      10.101  14.642  11.516  1.00141.18     0.019 A 
HETATM    8  C14 MIQ B 502      10.989  13.453  11.628  1.00138.77     0.033 A 
HETATM    9  C15 MIQ B 502      12.535  13.226  11.567  1.00142.10     0.195 A 
HETATM   10  N17 MIQ B 502      12.720  11.927  11.737  1.00139.42    -0.288 N 
HETATM   11  O16 MIQ B 502      13.516  14.199  11.370  1.00148.93    -0.171 OA
ENDROOT
BRANCH  10  12
HETATM   12  C18 MIQ B 502      14.048  11.343  11.723  1.00139.82     0.187 C 
HETATM   13  C19 MIQ B 502      14.046  10.200  10.700  1.00140.06     0.247 C 
HETATM   14  O25 MIQ B 502      13.643  10.404   9.610  1.00143.95    -0.271 OA
HETATM   15  N20 MIQ B 502      14.532   8.877  11.032  1.00140.02    -0.296 N 
HETATM   16  H13 MIQ B 502      14.519   8.138  10.357  1.00142.77     0.171 HD
HETATM   17  C21 MIQ B 502      15.009   8.650  12.372  1.00142.22     0.224 C 
HETATM   18  C22 MIQ B 502      14.319   9.421  13.481  1.00139.52     0.106 C 
HETATM   19  O24 MIQ B 502      15.899   7.904  12.593  1.00146.13    -0.273 OA
HETATM   20  C23 MIQ B 502      14.446  10.892  13.127  1.00139.15     0.045 C 
ENDBRANCH  10  12
BRANCH   5  21
HETATM   21  N6  MIQ B 502       6.679  13.004  11.943  1.00140.95    -0.377 N 
HETATM   22  C7  MIQ B 502       6.161  11.924  12.765  1.00142.12     0.149 C 
HETATM   23  C8  MIQ B 502       4.788  11.460  12.296  1.00144.10     0.187 C 
HETATM   24  O9  MIQ B 502       3.904  12.518  12.074  1.00148.65    -0.388 OA
HETATM   25  C10 MIQ B 502       4.364  13.837  12.072  1.00147.44     0.187 C 
HETATM   26  C11 MIQ B 502       5.795  14.110  11.618  1.00144.08     0.149 C 
ENDBRANCH   5  21
TORSDOF 2
ENDMDL
MODEL 7
REMARK VINA RESULT:      -6.1      3.804      8.020
REMARK  2 active torsions:
REMARK  status: ('A' for Active; 'I' for Inactive)
REMARK    1  A    between atoms: C5_5  and  N6_21 
REMARK    2  A    between atoms: C18_14  and  N17_19 
ROOT
HETATM    1  O1  MIQ B 502       8.233  12.496  14.650  1.00142.91    -0.171 OA
HETATM    2  C2  MIQ B 502       7.241  11.627  14.189  1.00141.17     0.195 A 
HETATM    3  C3  MIQ B 502       6.343  10.703  15.071  1.00141.71     0.035 A 
HETATM    4  C4  MIQ B 502       6.249  10.465  16.531  1.00142.86     0.046 A 
HETATM    5  C5  MIQ B 502       5.307   9.540  17.048  1.00139.53     0.031 A 
HETATM    6  C12 MIQ B 502       4.427   8.821  16.138  1.00139.38     0.030 A 
HETATM    7  C13 MIQ B 502       4.516   9.049  14.738  1.00141.18     0.019 A 
HETATM    8  C14 MIQ B 502       5.505  10.023  14.202  1.00138.77     0.033 A 
HETATM    9  C15 MIQ B 502       5.885  10.529  12.772  1.00142.10     0.195 A 
HETATM   10  N17 MIQ B 502       6.857  11.411  12.943  1.00139.42    -0.288 N 
HETATM   11  O16 MIQ B 502       5.315  10.126  11.564  1.00148.93    -0.171 OA
ENDROOT
BRANCH  10  12
HETATM   12  C18 MIQ B 502       7.476  12.084  11.817  1.00139.82     0.187 C 
HETATM   13  C19 MIQ B 502       8.994  11.911  11.945  1.00140.06     0.247 C 
HETATM   14  O25 MIQ B 502       9.438  10.830  12.110  1.00143.95    -0.271 OA
HETATM   15  N20 MIQ B 502       9.901  13.037  11.862  1.00140.02    -0.296 N 
HETATM   16  H13 MIQ B 502      10.890  12.911  11.953  1.00142.77     0.171 HD
HETATM   17  C21 MIQ B 502       9.334  14.347  11.669  1.00142.22     0.224 C 
HETATM   18  C22 MIQ B 502       7.984  14.605  12.309  1.00139.52     0.106 C 
HETATM   19  O24 MIQ B 502       9.893  15.175  11.039  1.00146.13    -0.273 OA
HETATM   20  C23 MIQ B 502       7.040  13.548  11.767  1.00139.15     0.045 C 
ENDBRANCH  10  12
BRANCH   5  21
HETATM   21  N6  MIQ B 502       5.236   9.306  18.479  1.00140.95    -0.377 N 
HETATM   22  C7  MIQ B 502       6.268   8.496  19.102  1.00142.12     0.149 C 
HETATM   23  C8  MIQ B 502       5.767   7.813  20.368  1.00144.10     0.187 C 
HETATM   24  O9  MIQ B 502       5.093   8.684  21.226  1.00148.65    -0.388 OA
HETATM   25  C10 MIQ B 502       4.746   9.969  20.800  1.00147.44     0.187 C 
HETATM   26  C11 MIQ B 502       4.450  10.192  19.321  1.00144.08     0.149 C 
ENDBRANCH   5  21
TORSDOF 2
ENDMDL
MODEL 8
REMARK VINA RESULT:      -6.1      3.421      4.526
REMARK  2 active torsions:
REMARK  status: ('A' for Active; 'I' for Inactive)
REMARK    1  A    between atoms: C5_5  and  N6_21 
REMARK    2  A    between atoms: C18_14  and  N17_19 
ROOT
HETATM    1  O1  MIQ B 502       7.106  13.590  10.203  1.00142.91    -0.171 OA
HETATM    2  C2  MIQ B 502       8.014  13.263  11.213  1.00141.17     0.195 A 
HETATM    3  C3  MIQ B 502       9.493  13.753  11.317  1.00141.71     0.035 A 
HETATM    4  C4  MIQ B 502      10.336  14.635  10.476  1.00142.86     0.046 A 
HETATM    5  C5  MIQ B 502      11.680  14.903  10.840  1.00139.53     0.031 A 
HETATM    6  C12 MIQ B 502      12.234  14.308  12.048  1.00139.38     0.030 A 
HETATM    7  C13 MIQ B 502      11.425  13.463  12.856  1.00141.18     0.019 A 
HETATM    8  C14 MIQ B 502      10.015  13.188  12.470  1.00138.77     0.033 A 
HETATM    9  C15 MIQ B 502       8.852  12.342  13.084  1.00142.10     0.195 A 
HETATM   10  N17 MIQ B 502       7.820  12.494  12.271  1.00139.42    -0.288 N 
HETATM   11  O16 MIQ B 502       8.900  11.581  14.253  1.00148.93    -0.171 OA
ENDROOT
BRANCH  10  12
HETATM   12  C18 MIQ B 502       6.554  11.831  12.521  1.00139.82     0.187 C 
HETATM   13  C19 MIQ B 502       6.140  12.143  13.964  1.00140.06     0.247 C 
HETATM   14  O25 MIQ B 502       6.130  13.264  14.331  1.00143.95    -0.271 OA
HETATM   15  N20 MIQ B 502       5.755  11.099  14.891  1.00140.02    -0.296 N 
HETATM   16  H13 MIQ B 502       5.493  11.315  15.833  1.00142.77     0.171 HD
HETATM   17  C21 MIQ B 502       5.785   9.737  14.424  1.00142.22     0.224 C 
HETATM   18  C22 MIQ B 502       6.860   9.388  13.413  1.00139.52     0.106 C 
HETATM   19  O24 MIQ B 502       5.006   8.935  14.807  1.00146.13    -0.273 OA
HETATM   20  C23 MIQ B 502       6.673  10.334  12.241  1.00139.15     0.045 C 
ENDBRANCH  10  12
BRANCH   5  21
HETATM   21  N6  MIQ B 502      12.499  15.756   9.998  1.00140.95    -0.377 N 
HETATM   22  C7  MIQ B 502      12.593  15.450   8.581  1.00142.12     0.149 C 
HETATM   23  C8  MIQ B 502      13.897  15.954   7.976  1.00144.10     0.187 C 
HETATM   24  O9  MIQ B 502      14.181  17.277   8.321  1.00148.65    -0.388 OA
HETATM   25  C10 MIQ B 502      13.433  17.928   9.305  1.00147.44     0.187 C 
HETATM   26  C11 MIQ B 502      12.840  17.098  10.439  1.00144.08     0.149 C 
ENDBRANCH   5  21
TORSDOF 2
ENDMDL
MODEL 9
REMARK VINA RESULT:      -6.1      4.232      8.260
REMARK  2 active torsions:
REMARK  status: ('A' for Active; 'I' for Inactive)
REMARK    1  A    between atoms: C5_5  and  N6_21 
REMARK    2  A    between atoms: C18_14  and  N17_19 
ROOT
HETATM    1  O1  MIQ B 502       7.259  13.798  13.291  1.00142.91    -0.171 OA
HETATM    2  C2  MIQ B 502       6.798  12.657  13.952  1.00141.17     0.195 A 
HETATM    3  C3  MIQ B 502       6.298  12.587  15.430  1.00141.71     0.035 A 
HETATM    4  C4  MIQ B 502       6.158  13.596  16.508  1.00142.86     0.046 A 
HETATM    5  C5  MIQ B 502       5.660  13.220  17.781  1.00139.53     0.031 A 
HETATM    6  C12 MIQ B 502       5.284  11.835  18.029  1.00139.38     0.030 A 
HETATM    7  C13 MIQ B 502       5.417  10.869  16.997  1.00141.18     0.019 A 
HETATM    8  C14 MIQ B 502       5.938  11.269  15.661  1.00138.77     0.033 A 
HETATM    9  C15 MIQ B 502       6.215  10.518  14.319  1.00142.10     0.195 A 
HETATM   10  N17 MIQ B 502       6.683  11.428  13.480  1.00139.42    -0.288 N 
HETATM   11  O16 MIQ B 502       6.010   9.161  14.063  1.00148.93    -0.171 OA
ENDROOT
BRANCH  10  12
HETATM   12  C18 MIQ B 502       7.068  11.082  12.125  1.00139.82     0.187 C 
HETATM   13  C19 MIQ B 502       8.497  11.590  11.900  1.00140.06     0.247 C 
HETATM   14  O25 MIQ B 502       9.337  11.312  12.681  1.00143.95    -0.271 OA
HETATM   15  N20 MIQ B 502       8.849  12.399  10.751  1.00140.02    -0.296 N 
HETATM   16  H13 MIQ B 502       9.784  12.731  10.620  1.00142.77     0.171 HD
HETATM   17  C21 MIQ B 502       7.804  12.735   9.818  1.00142.22     0.224 C 
HETATM   18  C22 MIQ B 502       6.415  12.934  10.393  1.00139.52     0.106 C 
HETATM   19  O24 MIQ B 502       8.021  12.843   8.661  1.00146.13    -0.273 OA
HETATM   20  C23 MIQ B 502       6.063  11.652  11.125  1.00139.15     0.045 C 
ENDBRANCH  10  12
BRANCH   5  21
HETATM   21  N6  MIQ B 502       5.542  14.215  18.831  1.00140.95    -0.377 N 
HETATM   22  C7  MIQ B 502       5.383  15.608  18.453  1.00142.12     0.149 C 
HETATM   23  C8  MIQ B 502       5.906  16.553  19.528  1.00144.10     0.187 C 
HETATM   24  O9  MIQ B 502       5.451  16.225  20.807  1.00148.65    -0.388 OA
HETATM   25  C10 MIQ B 502       4.787  15.017  21.034  1.00147.44     0.187 C 
HETATM   26  C11 MIQ B 502       5.148  13.813  20.170  1.00144.08     0.149 C 
ENDBRANCH   5  21
TORSDOF 2
ENDMDL
