MODEL 1
REMARK VINA RESULT:      -7.0      0.000      0.000
REMARK  2 active torsions:
REMARK  status: ('A' for Active; 'I' for Inactive)
REMARK    1  A    between atoms: C5_5  and  N6_21 
REMARK    2  A    between atoms: C18_14  and  N17_19 
ROOT
HETATM    1  O1  MIQ B 502       9.194  11.996   8.196  1.00142.91    -0.171 OA
HETATM    2  C2  MIQ B 502       8.934  12.818   9.295  1.00141.17     0.195 A 
HETATM    3  C3  MIQ B 502       7.732  13.803   9.446  1.00141.71     0.035 A 
HETATM    4  C4  MIQ B 502       6.587  14.156   8.573  1.00142.86     0.046 A 
HETATM    5  C5  MIQ B 502       5.630  15.113   8.997  1.00139.53     0.031 A 
HETATM    6  C12 MIQ B 502       5.774  15.751  10.297  1.00139.38     0.030 A 
HETATM    7  C13 MIQ B 502       6.870  15.412  11.136  1.00141.18     0.019 A 
HETATM    8  C14 MIQ B 502       7.870  14.405  10.686  1.00138.77     0.033 A 
HETATM    9  C15 MIQ B 502       9.166  13.789  11.309  1.00142.10     0.195 A 
HETATM   10  N17 MIQ B 502       9.628  12.931  10.415  1.00139.42    -0.288 N 
HETATM   11  O16 MIQ B 502       9.719  14.090  12.555  1.00148.93    -0.171 OA
ENDROOT
BRANCH  10  12
HETATM   12  C18 MIQ B 502      10.844  12.175  10.649  1.00139.82     0.187 C 
HETATM   13  C19 MIQ B 502      11.799  12.450   9.481  1.00140.06     0.247 C 
HETATM   14  O25 MIQ B 502      12.027  13.566   9.175  1.00143.95    -0.271 OA
HETATM   15  N20 MIQ B 502      12.435  11.377   8.745  1.00140.02    -0.296 N 
HETATM   16  H13 MIQ B 502      13.051  11.570   7.980  1.00142.77     0.171 HD
HETATM   17  C21 MIQ B 502      12.133  10.023   9.131  1.00142.22     0.224 C 
HETATM   18  C22 MIQ B 502      10.731   9.758   9.647  1.00139.52     0.106 C 
HETATM   19  O24 MIQ B 502      12.941   9.163   9.054  1.00146.13    -0.273 OA
HETATM   20  C23 MIQ B 502      10.522  10.691  10.825  1.00139.15     0.045 C 
ENDBRANCH  10  12
BRANCH   5  21
HETATM   21  N6  MIQ B 502       4.523  15.459   8.125  1.00140.95    -0.377 N 
HETATM   22  C7  MIQ B 502       4.619  15.126   6.714  1.00142.12     0.149 C 
HETATM   23  C8  MIQ B 502       3.778  16.059   5.851  1.00144.10     0.187 C 
HETATM   24  O9  MIQ B 502       2.480  16.227   6.338  1.00148.65    -0.388 OA
HETATM   25  C10 MIQ B 502       2.133  15.753   7.606  1.00147.44     0.187 C 
HETATM   26  C11 MIQ B 502       3.207  15.710   8.687  1.00144.08     0.149 C 
ENDBRANCH   5  21
TORSDOF 2
ENDMDL
MODEL 2
REMARK VINA RESULT:      -6.5      3.781      9.365
REMARK  2 active torsions:
REMARK  status: ('A' for Active; 'I' for Inactive)
REMARK    1  A    between atoms: C5_5  and  N6_21 
REMARK    2  A    between atoms: C18_14  and  N17_19 
ROOT
HETATM    1  O1  MIQ B 502      11.807  12.705   8.222  1.00142.91    -0.171 OA
HETATM    2  C2  MIQ B 502      11.895  11.318   8.361  1.00141.17     0.195 A 
HETATM    3  C3  MIQ B 502      12.982  10.395   7.723  1.00141.71     0.035 A 
HETATM    4  C4  MIQ B 502      14.156  10.652   6.856  1.00142.86     0.046 A 
HETATM    5  C5  MIQ B 502      14.979   9.580   6.428  1.00139.53     0.031 A 
HETATM    6  C12 MIQ B 502      14.668   8.220   6.844  1.00139.38     0.030 A 
HETATM    7  C13 MIQ B 502      13.544   7.973   7.677  1.00141.18     0.019 A 
HETATM    8  C14 MIQ B 502      12.684   9.103   8.125  1.00138.77     0.033 A 
HETATM    9  C15 MIQ B 502      11.406   9.225   9.017  1.00142.10     0.195 A 
HETATM   10  N17 MIQ B 502      11.103  10.512   9.047  1.00139.42    -0.288 N 
HETATM   11  O16 MIQ B 502      10.726   8.183   9.649  1.00148.93    -0.171 OA
ENDROOT
BRANCH  10  12
HETATM   12  C18 MIQ B 502       9.950  11.002   9.778  1.00139.82     0.187 C 
HETATM   13  C19 MIQ B 502       9.126  11.874   8.822  1.00140.06     0.247 C 
HETATM   14  O25 MIQ B 502       8.827  11.445   7.765  1.00143.95    -0.271 OA
HETATM   15  N20 MIQ B 502       8.697  13.209   9.184  1.00140.02    -0.296 N 
HETATM   16  H13 MIQ B 502       8.165  13.771   8.549  1.00142.77     0.171 HD
HETATM   17  C21 MIQ B 502       9.083  13.714  10.477  1.00142.22     0.224 C 
HETATM   18  C22 MIQ B 502      10.428  13.262  11.011  1.00139.52     0.106 C 
HETATM   19  O24 MIQ B 502       8.381  14.441  11.091  1.00146.13    -0.273 OA
HETATM   20  C23 MIQ B 502      10.394  11.745  11.037  1.00139.15     0.045 C 
ENDBRANCH  10  12
BRANCH   5  21
HETATM   21  N6  MIQ B 502      16.117   9.844   5.566  1.00140.95    -0.377 N 
HETATM   22  C7  MIQ B 502      16.815   8.717   4.972  1.00142.12     0.149 C 
HETATM   23  C8  MIQ B 502      18.270   9.046   4.667  1.00144.10     0.187 C 
HETATM   24  O9  MIQ B 502      18.423  10.262   3.998  1.00148.65    -0.388 OA
HETATM   25  C10 MIQ B 502      17.343  11.139   3.867  1.00147.44     0.187 C 
HETATM   26  C11 MIQ B 502      16.280  11.154   4.960  1.00144.08     0.149 C 
ENDBRANCH   5  21
TORSDOF 2
ENDMDL
MODEL 3
REMARK VINA RESULT:      -6.4      4.557      9.646
REMARK  2 active torsions:
REMARK  status: ('A' for Active; 'I' for Inactive)
REMARK    1  A    between atoms: C5_5  and  N6_21 
REMARK    2  A    between atoms: C18_14  and  N17_19 
ROOT
HETATM    1  O1  MIQ B 502      14.506  12.095  10.464  1.00142.91    -0.171 OA
HETATM    2  C2  MIQ B 502      13.766  11.894   9.297  1.00141.17     0.195 A 
HETATM    3  C3  MIQ B 502      14.345  11.713   7.857  1.00141.71     0.035 A 
HETATM    4  C4  MIQ B 502      15.721  11.691   7.308  1.00142.86     0.046 A 
HETATM    5  C5  MIQ B 502      15.936  11.500   5.920  1.00139.53     0.031 A 
HETATM    6  C12 MIQ B 502      14.797  11.323   5.030  1.00139.38     0.030 A 
HETATM    7  C13 MIQ B 502      13.478  11.343   5.556  1.00141.18     0.019 A 
HETATM    8  C14 MIQ B 502      13.258  11.541   7.015  1.00138.77     0.033 A 
HETATM    9  C15 MIQ B 502      11.998  11.616   7.937  1.00142.10     0.195 A 
HETATM   10  N17 MIQ B 502      12.453  11.811   9.163  1.00139.42    -0.288 N 
HETATM   11  O16 MIQ B 502      10.664  11.502   7.540  1.00148.93    -0.171 OA
ENDROOT
BRANCH  10  12
HETATM   12  C18 MIQ B 502      11.553  11.948  10.293  1.00139.82     0.187 C 
HETATM   13  C19 MIQ B 502      10.608  10.740  10.287  1.00140.06     0.247 C 
HETATM   14  O25 MIQ B 502      11.062   9.654  10.215  1.00143.95    -0.271 OA
HETATM   15  N20 MIQ B 502       9.170  10.895  10.372  1.00140.02    -0.296 N 
HETATM   16  H13 MIQ B 502       8.563  10.099  10.361  1.00142.77     0.171 HD
HETATM   17  C21 MIQ B 502       8.639  12.231  10.449  1.00142.22     0.224 C 
HETATM   18  C22 MIQ B 502       9.396  13.309   9.698  1.00139.52     0.106 C 
HETATM   19  O24 MIQ B 502       7.663  12.474  11.071  1.00146.13    -0.273 OA
HETATM   20  C23 MIQ B 502      10.818  13.286  10.228  1.00139.15     0.045 C 
ENDBRANCH  10  12
BRANCH   5  21
HETATM   21  N6  MIQ B 502      17.289  11.497   5.393  1.00140.95    -0.377 N 
HETATM   22  C7  MIQ B 502      17.520  10.931   4.075  1.00142.12     0.149 C 
HETATM   23  C8  MIQ B 502      18.942  10.407   3.922  1.00144.10     0.187 C 
HETATM   24  O9  MIQ B 502      19.906  11.319   4.358  1.00148.65    -0.388 OA
HETATM   25  C10 MIQ B 502      19.529  12.465   5.062  1.00147.44     0.187 C 
HETATM   26  C11 MIQ B 502      18.282  12.405   5.938  1.00144.08     0.149 C 
ENDBRANCH   5  21
TORSDOF 2
ENDMDL
MODEL 4
REMARK VINA RESULT:      -6.3      7.774     11.583
REMARK  2 active torsions:
REMARK  status: ('A' for Active; 'I' for Inactive)
REMARK    1  A    between atoms: C5_5  and  N6_21 
REMARK    2  A    between atoms: C18_14  and  N17_19 
ROOT
HETATM    1  O1  MIQ B 502      15.696  11.364   4.635  1.00142.91    -0.171 OA
HETATM    2  C2  MIQ B 502      16.149  11.437   5.954  1.00141.17     0.195 A 
HETATM    3  C3  MIQ B 502      17.346  12.297   6.472  1.00141.71     0.035 A 
HETATM    4  C4  MIQ B 502      18.296  13.224   5.812  1.00142.86     0.046 A 
HETATM    5  C5  MIQ B 502      19.302  13.876   6.568  1.00139.53     0.031 A 
HETATM    6  C12 MIQ B 502      19.402  13.634   8.000  1.00139.38     0.030 A 
HETATM    7  C13 MIQ B 502      18.491  12.746   8.633  1.00141.18     0.019 A 
HETATM    8  C14 MIQ B 502      17.434  12.066   7.835  1.00138.77     0.033 A 
HETATM    9  C15 MIQ B 502      16.286  11.057   8.165  1.00142.10     0.195 A 
HETATM   10  N17 MIQ B 502      15.672  10.815   7.019  1.00139.42    -0.288 N 
HETATM   11  O16 MIQ B 502      15.978  10.522   9.417  1.00148.93    -0.171 OA
ENDROOT
BRANCH  10  12
HETATM   12  C18 MIQ B 502      14.549   9.899   6.939  1.00139.82     0.187 C 
HETATM   13  C19 MIQ B 502      14.821   8.925   5.786  1.00140.06     0.247 C 
HETATM   14  O25 MIQ B 502      15.855   8.359   5.742  1.00143.95    -0.271 OA
HETATM   15  N20 MIQ B 502      13.839   8.675   4.751  1.00140.02    -0.296 N 
HETATM   16  H13 MIQ B 502      14.032   8.042   4.000  1.00142.77     0.171 HD
HETATM   17  C21 MIQ B 502      12.589   9.386   4.821  1.00142.22     0.224 C 
HETATM   18  C22 MIQ B 502      12.634  10.790   5.391  1.00139.52     0.106 C 
HETATM   19  O24 MIQ B 502      11.578   8.895   4.456  1.00146.13    -0.273 OA
HETATM   20  C23 MIQ B 502      13.242  10.673   6.777  1.00139.15     0.045 C 
ENDBRANCH  10  12
BRANCH   5  21
HETATM   21  N6  MIQ B 502      20.235  14.770   5.906  1.00140.95    -0.377 N 
HETATM   22  C7  MIQ B 502      19.937  16.191   5.882  1.00142.12     0.149 C 
HETATM   23  C8  MIQ B 502      20.573  16.886   4.685  1.00144.10     0.187 C 
HETATM   24  O9  MIQ B 502      21.920  16.556   4.518  1.00148.65    -0.388 OA
HETATM   25  C10 MIQ B 502      22.491  15.517   5.258  1.00147.44     0.187 C 
HETATM   26  C11 MIQ B 502      21.606  14.348   5.677  1.00144.08     0.149 C 
ENDBRANCH   5  21
TORSDOF 2
ENDMDL
MODEL 5
REMARK VINA RESULT:      -6.2      1.713      2.107
REMARK  2 active torsions:
REMARK  status: ('A' for Active; 'I' for Inactive)
REMARK    1  A    between atoms: C5_5  and  N6_21 
REMARK    2  A    between atoms: C18_14  and  N17_19 
ROOT
HETATM    1  O1  MIQ B 502       8.519  12.104   7.952  1.00142.91    -0.171 OA
HETATM    2  C2  MIQ B 502       8.432  12.955   9.055  1.00141.17     0.195 A 
HETATM    3  C3  MIQ B 502       7.284  13.974   9.346  1.00141.71     0.035 A 
HETATM    4  C4  MIQ B 502       6.038  14.336   8.631  1.00142.86     0.046 A 
HETATM    5  C5  MIQ B 502       5.170  15.326   9.158  1.00139.53     0.031 A 
HETATM    6  C12 MIQ B 502       5.506  15.988  10.411  1.00139.38     0.030 A 
HETATM    7  C13 MIQ B 502       6.701  15.639  11.098  1.00141.18     0.019 A 
HETATM    8  C14 MIQ B 502       7.606  14.598  10.540  1.00138.77     0.033 A 
HETATM    9  C15 MIQ B 502       8.962  13.963  10.993  1.00142.10     0.195 A 
HETATM   10  N17 MIQ B 502       9.277  13.075  10.065  1.00139.42    -0.288 N 
HETATM   11  O16 MIQ B 502       9.688  14.277  12.143  1.00148.93    -0.171 OA
ENDROOT
BRANCH  10  12
HETATM   12  C18 MIQ B 502      10.496  12.293  10.148  1.00139.82     0.187 C 
HETATM   13  C19 MIQ B 502      10.574  11.695  11.559  1.00140.06     0.247 C 
HETATM   14  O25 MIQ B 502       9.644  11.108  11.987  1.00143.95    -0.271 OA
HETATM   15  N20 MIQ B 502      11.760  11.826  12.380  1.00140.02    -0.296 N 
HETATM   16  H13 MIQ B 502      11.795  11.437  13.301  1.00142.77     0.171 HD
HETATM   17  C21 MIQ B 502      12.877  12.556  11.839  1.00142.22     0.224 C 
HETATM   18  C22 MIQ B 502      12.552  13.719  10.922  1.00139.52     0.106 C 
HETATM   19  O24 MIQ B 502      13.992  12.258  12.094  1.00146.13    -0.273 OA
HETATM   20  C23 MIQ B 502      11.706  13.156   9.794  1.00139.15     0.045 C 
ENDBRANCH  10  12
BRANCH   5  21
HETATM   21  N6  MIQ B 502       3.961  15.682   8.439  1.00140.95    -0.377 N 
HETATM   22  C7  MIQ B 502       3.828  15.264   7.054  1.00142.12     0.149 C 
HETATM   23  C8  MIQ B 502       2.909  16.190   6.267  1.00144.10     0.187 C 
HETATM   24  O9  MIQ B 502       1.709  16.455   6.928  1.00148.65    -0.388 OA
HETATM   25  C10 MIQ B 502       1.536  16.075   8.261  1.00147.44     0.187 C 
HETATM   26  C11 MIQ B 502       2.758  16.035   9.173  1.00144.08     0.149 C 
ENDBRANCH   5  21
TORSDOF 2
ENDMDL
MODEL 6
REMARK VINA RESULT:      -6.2      2.296      3.827
REMARK  2 active torsions:
REMARK  status: ('A' for Active; 'I' for Inactive)
REMARK    1  A    between atoms: C5_5  and  N6_21 
REMARK    2  A    between atoms: C18_14  and  N17_19 
ROOT
HETATM    1  O1  MIQ B 502      11.144  11.372   6.726  1.00142.91    -0.171 OA
HETATM    2  C2  MIQ B 502      11.049  11.181   8.106  1.00141.17     0.195 A 
HETATM    3  C3  MIQ B 502       9.976  11.808   9.053  1.00141.71     0.035 A 
HETATM    4  C4  MIQ B 502       8.824  12.713   8.828  1.00142.86     0.046 A 
HETATM    5  C5  MIQ B 502       8.009  13.118   9.916  1.00139.53     0.031 A 
HETATM    6  C12 MIQ B 502       8.307  12.641  11.259  1.00139.38     0.030 A 
HETATM    7  C13 MIQ B 502       9.410  11.772  11.474  1.00141.18     0.019 A 
HETATM    8  C14 MIQ B 502      10.261  11.348  10.328  1.00138.77     0.033 A 
HETATM    9  C15 MIQ B 502      11.517  10.431  10.173  1.00142.10     0.195 A 
HETATM   10  N17 MIQ B 502      11.823  10.444   8.886  1.00139.42    -0.288 N 
HETATM   11  O16 MIQ B 502      12.180   9.741  11.190  1.00148.93    -0.171 OA
ENDROOT
BRANCH  10  12
HETATM   12  C18 MIQ B 502      12.959   9.705   8.369  1.00139.82     0.187 C 
HETATM   13  C19 MIQ B 502      13.885  10.704   7.663  1.00140.06     0.247 C 
HETATM   14  O25 MIQ B 502      14.218  11.682   8.232  1.00143.95    -0.271 OA
HETATM   15  N20 MIQ B 502      14.368  10.477   6.317  1.00140.02    -0.296 N 
HETATM   16  H13 MIQ B 502      14.967  11.140   5.865  1.00142.77     0.171 HD
HETATM   17  C21 MIQ B 502      13.940   9.280   5.639  1.00142.22     0.224 C 
HETATM   18  C22 MIQ B 502      12.543   8.782   5.954  1.00139.52     0.106 C 
HETATM   19  O24 MIQ B 502      14.646   8.714   4.879  1.00146.13    -0.273 OA
HETATM   20  C23 MIQ B 502      12.488   8.574   7.457  1.00139.15     0.045 C 
ENDBRANCH  10  12
BRANCH   5  21
HETATM   21  N6  MIQ B 502       6.893  14.017   9.684  1.00140.95    -0.377 N 
HETATM   22  C7  MIQ B 502       6.517  14.943  10.738  1.00142.12     0.149 C 
HETATM   23  C8  MIQ B 502       5.045  15.328  10.658  1.00144.10     0.187 C 
HETATM   24  O9  MIQ B 502       4.648  15.695   9.371  1.00148.65    -0.388 OA
HETATM   25  C10 MIQ B 502       5.496  15.483   8.281  1.00147.44     0.187 C 
HETATM   26  C11 MIQ B 502       6.461  14.302   8.327  1.00144.08     0.149 C 
ENDBRANCH   5  21
TORSDOF 2
ENDMDL
MODEL 7
REMARK VINA RESULT:      -6.2      4.433      7.507
REMARK  2 active torsions:
REMARK  status: ('A' for Active; 'I' for Inactive)
REMARK    1  A    between atoms: C5_5  and  N6_21 
REMARK    2  A    between atoms: C18_14  and  N17_19 
ROOT
HETATM    1  O1  MIQ B 502      16.069  12.029   8.663  1.00142.91    -0.171 OA
HETATM    2  C2  MIQ B 502      15.242  11.355   7.762  1.00141.17     0.195 A 
HETATM    3  C3  MIQ B 502      13.681  11.405   7.728  1.00141.71     0.035 A 
HETATM    4  C4  MIQ B 502      12.666  12.110   8.546  1.00142.86     0.046 A 
HETATM    5  C5  MIQ B 502      11.285  11.956   8.265  1.00139.53     0.031 A 
HETATM    6  C12 MIQ B 502      10.863  11.101   7.165  1.00139.38     0.030 A 
HETATM    7  C13 MIQ B 502      11.836  10.425   6.380  1.00141.18     0.019 A 
HETATM    8  C14 MIQ B 502      13.284  10.593   6.678  1.00138.77     0.033 A 
HETATM    9  C15 MIQ B 502      14.606  10.035   6.057  1.00142.10     0.195 A 
HETATM   10  N17 MIQ B 502      15.592  10.555   6.770  1.00139.42    -0.288 N 
HETATM   11  O16 MIQ B 502      14.718   9.164   4.972  1.00148.93    -0.171 OA
ENDROOT
BRANCH  10  12
HETATM   12  C18 MIQ B 502      16.980  10.241   6.485  1.00139.82     0.187 C 
HETATM   13  C19 MIQ B 502      17.207  10.448   4.982  1.00140.06     0.247 C 
HETATM   14  O25 MIQ B 502      16.874  11.464   4.484  1.00143.95    -0.271 OA
HETATM   15  N20 MIQ B 502      17.826   9.431   4.156  1.00140.02    -0.296 N 
HETATM   16  H13 MIQ B 502      17.962   9.576   3.175  1.00142.77     0.171 HD
HETATM   17  C21 MIQ B 502      18.214   8.195   4.785  1.00142.22     0.224 C 
HETATM   18  C22 MIQ B 502      17.342   7.708   5.926  1.00139.52     0.106 C 
HETATM   19  O24 MIQ B 502      19.169   7.595   4.431  1.00146.13    -0.273 OA
HETATM   20  C23 MIQ B 502      17.312   8.825   6.953  1.00139.15     0.045 C 
ENDBRANCH  10  12
BRANCH   5  21
HETATM   21  N6  MIQ B 502      10.302  12.641   9.084  1.00140.95    -0.377 N 
HETATM   22  C7  MIQ B 502       8.909  12.240   8.978  1.00142.12     0.149 C 
HETATM   23  C8  MIQ B 502       7.961  13.376   9.340  1.00144.10     0.187 C 
HETATM   24  O9  MIQ B 502       8.309  14.016  10.531  1.00148.65    -0.388 OA
HETATM   25  C10 MIQ B 502       9.535  13.749  11.145  1.00147.44     0.187 C 
HETATM   26  C11 MIQ B 502      10.723  13.368  10.268  1.00144.08     0.149 C 
ENDBRANCH   5  21
TORSDOF 2
ENDMDL
MODEL 8
REMARK VINA RESULT:      -6.0      3.896      6.259
REMARK  2 active torsions:
REMARK  status: ('A' for Active; 'I' for Inactive)
REMARK    1  A    between atoms: C5_5  and  N6_21 
REMARK    2  A    between atoms: C18_14  and  N17_19 
ROOT
HETATM    1  O1  MIQ B 502      13.178  11.303   9.040  1.00142.91    -0.171 OA
HETATM    2  C2  MIQ B 502      11.824  11.578   8.836  1.00141.17     0.195 A 
HETATM    3  C3  MIQ B 502      10.891  12.382   9.796  1.00141.71     0.035 A 
HETATM    4  C4  MIQ B 502      11.105  13.052  11.101  1.00142.86     0.046 A 
HETATM    5  C5  MIQ B 502      10.035  13.720  11.748  1.00139.53     0.031 A 
HETATM    6  C12 MIQ B 502       8.719  13.750  11.125  1.00139.38     0.030 A 
HETATM    7  C13 MIQ B 502       8.514  13.109   9.873  1.00141.18     0.019 A 
HETATM    8  C14 MIQ B 502       9.641  12.410   9.198  1.00138.77     0.033 A 
HETATM    9  C15 MIQ B 502       9.800  11.620   7.858  1.00142.10     0.195 A 
HETATM   10  N17 MIQ B 502      11.064  11.232   7.811  1.00139.42    -0.288 N 
HETATM   11  O16 MIQ B 502       8.806  11.374   6.910  1.00148.93    -0.171 OA
ENDROOT
BRANCH  10  12
HETATM   12  C18 MIQ B 502      11.575  10.449   6.701  1.00139.82     0.187 C 
HETATM   13  C19 MIQ B 502      12.281   9.218   7.282  1.00140.06     0.247 C 
HETATM   14  O25 MIQ B 502      11.715   8.547   8.069  1.00143.95    -0.271 OA
HETATM   15  N20 MIQ B 502      13.626   8.852   6.886  1.00140.02    -0.296 N 
HETATM   16  H13 MIQ B 502      14.078   8.049   7.278  1.00142.77     0.171 HD
HETATM   17  C21 MIQ B 502      14.301   9.692   5.931  1.00142.22     0.224 C 
HETATM   18  C22 MIQ B 502      13.988  11.175   5.988  1.00139.52     0.106 C 
HETATM   19  O24 MIQ B 502      15.057   9.245   5.140  1.00146.13    -0.273 OA
HETATM   20  C23 MIQ B 502      12.485  11.305   5.821  1.00139.15     0.045 C 
ENDBRANCH  10  12
BRANCH   5  21
HETATM   21  N6  MIQ B 502      10.255  14.359  13.032  1.00140.95    -0.377 N 
HETATM   22  C7  MIQ B 502       9.622  15.641  13.288  1.00142.12     0.149 C 
HETATM   23  C8  MIQ B 502      10.398  16.466  14.307  1.00144.10     0.187 C 
HETATM   24  O9  MIQ B 502      10.748  15.735  15.445  1.00148.65    -0.388 OA
HETATM   25  C10 MIQ B 502      10.580  14.348  15.474  1.00147.44     0.187 C 
HETATM   26  C11 MIQ B 502      10.702  13.571  14.167  1.00144.08     0.149 C 
ENDBRANCH   5  21
TORSDOF 2
ENDMDL
MODEL 9
REMARK VINA RESULT:      -6.0      5.006      8.233
REMARK  2 active torsions:
REMARK  status: ('A' for Active; 'I' for Inactive)
REMARK    1  A    between atoms: C5_5  and  N6_21 
REMARK    2  A    between atoms: C18_14  and  N17_19 
ROOT
HETATM    1  O1  MIQ B 502      16.575  11.929   8.640  1.00142.91    -0.171 OA
HETATM    2  C2  MIQ B 502      15.830  11.694   7.482  1.00141.17     0.195 A 
HETATM    3  C3  MIQ B 502      14.275  11.579   7.394  1.00141.71     0.035 A 
HETATM    4  C4  MIQ B 502      13.188  11.673   8.397  1.00142.86     0.046 A 
HETATM    5  C5  MIQ B 502      11.834  11.522   8.002  1.00139.53     0.031 A 
HETATM    6  C12 MIQ B 502      11.512  11.275   6.604  1.00139.38     0.030 A 
HETATM    7  C13 MIQ B 502      12.554  11.187   5.642  1.00141.18     0.019 A 
HETATM    8  C14 MIQ B 502      13.973  11.348   6.062  1.00138.77     0.033 A 
HETATM    9  C15 MIQ B 502      15.349  11.320   5.319  1.00142.10     0.195 A 
HETATM   10  N17 MIQ B 502      16.269  11.530   6.246  1.00139.42    -0.288 N 
HETATM   11  O16 MIQ B 502      15.558  11.112   3.954  1.00148.93    -0.171 OA
ENDROOT
BRANCH  10  12
HETATM   12  C18 MIQ B 502      17.682  11.555   5.918  1.00139.82     0.187 C 
HETATM   13  C19 MIQ B 502      18.396  10.571   6.853  1.00140.06     0.247 C 
HETATM   14  O25 MIQ B 502      17.987   9.469   6.952  1.00143.95    -0.271 OA
HETATM   15  N20 MIQ B 502      19.566  10.955   7.617  1.00140.02    -0.296 N 
HETATM   16  H13 MIQ B 502      20.019  10.306   8.229  1.00142.77     0.171 HD
HETATM   17  C21 MIQ B 502      20.041  12.309   7.488  1.00142.22     0.224 C 
HETATM   18  C22 MIQ B 502      18.992  13.380   7.263  1.00139.52     0.106 C 
HETATM   19  O24 MIQ B 502      21.192  12.568   7.549  1.00146.13    -0.273 OA
HETATM   20  C23 MIQ B 502      18.225  12.979   6.016  1.00139.15     0.045 C 
ENDBRANCH  10  12
BRANCH   5  21
HETATM   21  N6  MIQ B 502      10.780  11.601   8.997  1.00140.95    -0.377 N 
HETATM   22  C7  MIQ B 502       9.399  11.592   8.548  1.00142.12     0.149 C 
HETATM   23  C8  MIQ B 502       8.476  12.301   9.531  1.00144.10     0.187 C 
HETATM   24  O9  MIQ B 502       8.677  11.897  10.853  1.00148.65    -0.388 OA
HETATM   25  C10 MIQ B 502       9.777  11.105  11.191  1.00147.44     0.187 C 
HETATM   26  C11 MIQ B 502      11.059  11.252  10.379  1.00144.08     0.149 C 
ENDBRANCH   5  21
TORSDOF 2
ENDMDL
