MODEL 1
REMARK VINA RESULT:      -6.9      0.000      0.000
REMARK  2 active torsions:
REMARK  status: ('A' for Active; 'I' for Inactive)
REMARK    1  A    between atoms: C5_5  and  N6_21 
REMARK    2  A    between atoms: C18_14  and  N17_19 
ROOT
HETATM    1  O1  MIQ B 502     -17.188  -4.612  -9.736  1.00142.91    -0.171 OA
HETATM    2  C2  MIQ B 502     -16.083  -3.875 -10.167  1.00141.17     0.195 A 
HETATM    3  C3  MIQ B 502     -14.591  -4.336 -10.117  1.00141.71     0.035 A 
HETATM    4  C4  MIQ B 502     -13.922  -5.574  -9.650  1.00142.86     0.046 A 
HETATM    5  C5  MIQ B 502     -12.513  -5.703  -9.736  1.00139.53     0.031 A 
HETATM    6  C12 MIQ B 502     -11.720  -4.613 -10.287  1.00139.38     0.030 A 
HETATM    7  C13 MIQ B 502     -12.361  -3.427 -10.736  1.00141.18     0.019 A 
HETATM    8  C14 MIQ B 502     -13.841  -3.298 -10.645  1.00138.77     0.033 A 
HETATM    9  C15 MIQ B 502     -14.873  -2.187 -11.026  1.00142.10     0.195 A 
HETATM   10  N17 MIQ B 502     -16.062  -2.666 -10.700  1.00139.42    -0.288 N 
HETATM   11  O16 MIQ B 502     -14.590  -0.943 -11.592  1.00148.93    -0.171 OA
ENDROOT
BRANCH  10  12
HETATM   12  C18 MIQ B 502     -17.272  -1.890 -10.900  1.00139.82     0.187 C 
HETATM   13  C19 MIQ B 502     -18.044  -1.877  -9.576  1.00140.06     0.247 C 
HETATM   14  O25 MIQ B 502     -17.483  -1.570  -8.585  1.00143.95    -0.271 OA
HETATM   15  N20 MIQ B 502     -19.448  -2.227  -9.507  1.00140.02    -0.296 N 
HETATM   16  H13 MIQ B 502     -19.940  -2.222  -8.635  1.00142.77     0.171 HD
HETATM   17  C21 MIQ B 502     -20.109  -2.609 -10.728  1.00142.22     0.224 C 
HETATM   18  C22 MIQ B 502     -19.271  -3.350 -11.753  1.00139.52     0.106 C 
HETATM   19  O24 MIQ B 502     -21.246  -2.352 -10.923  1.00146.13    -0.273 OA
HETATM   20  C23 MIQ B 502     -18.082  -2.459 -12.064  1.00139.15     0.045 C 
ENDBRANCH  10  12
BRANCH   5  21
HETATM   21  N6  MIQ B 502     -11.870  -6.914  -9.261  1.00140.95    -0.377 N 
HETATM   22  C7  MIQ B 502     -11.441  -7.901 -10.237  1.00142.12     0.149 C 
HETATM   23  C8  MIQ B 502     -11.400  -9.305  -9.647  1.00144.10     0.187 C 
HETATM   24  O9  MIQ B 502     -10.744  -9.358  -8.416  1.00148.65    -0.388 OA
HETATM   25  C10 MIQ B 502     -10.396  -8.181  -7.748  1.00147.44     0.187 C 
HETATM   26  C11 MIQ B 502     -11.274  -6.949  -7.937  1.00144.08     0.149 C 
ENDBRANCH   5  21
TORSDOF 2
ENDMDL
MODEL 2
REMARK VINA RESULT:      -6.8      1.813      8.103
REMARK  2 active torsions:
REMARK  status: ('A' for Active; 'I' for Inactive)
REMARK    1  A    between atoms: C5_5  and  N6_21 
REMARK    2  A    between atoms: C18_14  and  N17_19 
ROOT
HETATM    1  O1  MIQ B 502     -13.713  -7.219  -8.175  1.00142.91    -0.171 OA
HETATM    2  C2  MIQ B 502     -12.986  -6.326  -8.966  1.00141.17     0.195 A 
HETATM    3  C3  MIQ B 502     -13.532  -5.017  -9.620  1.00141.71     0.035 A 
HETATM    4  C4  MIQ B 502     -14.858  -4.354  -9.619  1.00142.86     0.046 A 
HETATM    5  C5  MIQ B 502     -15.052  -3.139 -10.324  1.00139.53     0.031 A 
HETATM    6  C12 MIQ B 502     -13.942  -2.540 -11.051  1.00139.38     0.030 A 
HETATM    7  C13 MIQ B 502     -12.671  -3.175 -11.051  1.00141.18     0.019 A 
HETATM    8  C14 MIQ B 502     -12.472  -4.450 -10.308  1.00138.77     0.033 A 
HETATM    9  C15 MIQ B 502     -11.261  -5.411 -10.079  1.00142.10     0.195 A 
HETATM   10  N17 MIQ B 502     -11.713  -6.393  -9.317  1.00139.42    -0.288 N 
HETATM   11  O16 MIQ B 502      -9.967  -5.260 -10.582  1.00148.93    -0.171 OA
ENDROOT
BRANCH  10  12
HETATM   12  C18 MIQ B 502     -10.857  -7.491  -8.909  1.00139.82     0.187 C 
HETATM   13  C19 MIQ B 502     -11.549  -8.799  -9.313  1.00140.06     0.247 C 
HETATM   14  O25 MIQ B 502     -11.935  -8.928 -10.420  1.00143.95    -0.271 OA
HETATM   15  N20 MIQ B 502     -11.739  -9.884  -8.373  1.00140.02    -0.296 N 
HETATM   16  H13 MIQ B 502     -12.198 -10.730  -8.647  1.00142.77     0.171 HD
HETATM   17  C21 MIQ B 502     -11.269  -9.699  -7.024  1.00142.22     0.224 C 
HETATM   18  C22 MIQ B 502     -11.345  -8.291  -6.464  1.00139.52     0.106 C 
HETATM   19  O24 MIQ B 502     -10.841 -10.599  -6.390  1.00146.13    -0.273 OA
HETATM   20  C23 MIQ B 502     -10.558  -7.406  -7.413  1.00139.15     0.045 C 
ENDBRANCH  10  12
BRANCH   5  21
HETATM   21  N6  MIQ B 502     -16.359  -2.508 -10.326  1.00140.95    -0.377 N 
HETATM   22  C7  MIQ B 502     -16.484  -1.165  -9.786  1.00142.12     0.149 C 
HETATM   23  C8  MIQ B 502     -17.887  -0.891  -9.262  1.00144.10     0.187 C 
HETATM   24  O9  MIQ B 502     -18.887  -1.267 -10.161  1.00148.65    -0.388 OA
HETATM   25  C10 MIQ B 502     -18.571  -2.022 -11.294  1.00147.44     0.187 C 
HETATM   26  C11 MIQ B 502     -17.396  -2.991 -11.221  1.00144.08     0.149 C 
ENDBRANCH   5  21
TORSDOF 2
ENDMDL
MODEL 3
REMARK VINA RESULT:      -6.8      2.352      8.255
REMARK  2 active torsions:
REMARK  status: ('A' for Active; 'I' for Inactive)
REMARK    1  A    between atoms: C5_5  and  N6_21 
REMARK    2  A    between atoms: C18_14  and  N17_19 
ROOT
HETATM    1  O1  MIQ B 502     -14.253  -8.887  -8.803  1.00142.91    -0.171 OA
HETATM    2  C2  MIQ B 502     -13.114  -8.176  -9.185  1.00141.17     0.195 A 
HETATM    3  C3  MIQ B 502     -13.058  -6.664  -9.575  1.00141.71     0.035 A 
HETATM    4  C4  MIQ B 502     -14.081  -5.595  -9.657  1.00142.86     0.046 A 
HETATM    5  C5  MIQ B 502     -13.717  -4.283 -10.051  1.00139.53     0.031 A 
HETATM    6  C12 MIQ B 502     -12.329  -3.985 -10.375  1.00139.38     0.030 A 
HETATM    7  C13 MIQ B 502     -11.347  -5.010 -10.295  1.00141.18     0.019 A 
HETATM    8  C14 MIQ B 502     -11.736  -6.385  -9.879  1.00138.77     0.033 A 
HETATM    9  C15 MIQ B 502     -10.966  -7.731  -9.676  1.00142.10     0.195 A 
HETATM   10  N17 MIQ B 502     -11.871  -8.615  -9.291  1.00139.42    -0.288 N 
HETATM   11  O16 MIQ B 502      -9.601  -7.949  -9.867  1.00148.93    -0.171 OA
ENDROOT
BRANCH  10  12
HETATM   12  C18 MIQ B 502     -11.515  -9.996  -9.023  1.00139.82     0.187 C 
HETATM   13  C19 MIQ B 502     -12.457 -10.889  -9.840  1.00140.06     0.247 C 
HETATM   14  O25 MIQ B 502     -12.587 -10.684 -10.994  1.00143.95    -0.271 OA
HETATM   15  N20 MIQ B 502     -13.188 -11.983  -9.234  1.00140.02    -0.296 N 
HETATM   16  H13 MIQ B 502     -13.805 -12.555  -9.777  1.00142.77     0.171 HD
HETATM   17  C21 MIQ B 502     -13.020 -12.206  -7.821  1.00142.22     0.224 C 
HETATM   18  C22 MIQ B 502     -12.794 -10.979  -6.960  1.00139.52     0.106 C 
HETATM   19  O24 MIQ B 502     -13.052 -13.294  -7.360  1.00146.13    -0.273 OA
HETATM   20  C23 MIQ B 502     -11.571 -10.277  -7.522  1.00139.15     0.045 C 
ENDBRANCH  10  12
BRANCH   5  21
HETATM   21  N6  MIQ B 502     -14.731  -3.249 -10.142  1.00140.95    -0.377 N 
HETATM   22  C7  MIQ B 502     -15.679  -3.107  -9.049  1.00142.12     0.149 C 
HETATM   23  C8  MIQ B 502     -16.997  -2.501  -9.514  1.00144.10     0.187 C 
HETATM   24  O9  MIQ B 502     -16.822  -1.363 -10.304  1.00148.65    -0.388 OA
HETATM   25  C10 MIQ B 502     -15.553  -1.014 -10.772  1.00147.44     0.187 C 
HETATM   26  C11 MIQ B 502     -14.544  -2.125 -11.043  1.00144.08     0.149 C 
ENDBRANCH   5  21
TORSDOF 2
ENDMDL
MODEL 4
REMARK VINA RESULT:      -6.7      1.828      2.734
REMARK  2 active torsions:
REMARK  status: ('A' for Active; 'I' for Inactive)
REMARK    1  A    between atoms: C5_5  and  N6_21 
REMARK    2  A    between atoms: C18_14  and  N17_19 
ROOT
HETATM    1  O1  MIQ B 502     -14.486  -1.520 -11.161  1.00142.91    -0.171 OA
HETATM    2  C2  MIQ B 502     -15.270  -2.674 -11.109  1.00141.17     0.195 A 
HETATM    3  C3  MIQ B 502     -14.872  -4.030 -10.444  1.00141.71     0.035 A 
HETATM    4  C4  MIQ B 502     -13.664  -4.495  -9.721  1.00142.86     0.046 A 
HETATM    5  C5  MIQ B 502     -13.595  -5.818  -9.218  1.00139.53     0.031 A 
HETATM    6  C12 MIQ B 502     -14.717  -6.725  -9.411  1.00139.38     0.030 A 
HETATM    7  C13 MIQ B 502     -15.876  -6.280 -10.103  1.00141.18     0.019 A 
HETATM    8  C14 MIQ B 502     -15.944  -4.888 -10.628  1.00138.77     0.033 A 
HETATM    9  C15 MIQ B 502     -17.014  -4.060 -11.411  1.00142.10     0.195 A 
HETATM   10  N17 MIQ B 502     -16.486  -2.861 -11.594  1.00139.42    -0.288 N 
HETATM   11  O16 MIQ B 502     -18.269  -4.502 -11.832  1.00148.93    -0.171 OA
ENDROOT
BRANCH  10  12
HETATM   12  C18 MIQ B 502     -17.200  -1.820 -12.308  1.00139.82     0.187 C 
HETATM   13  C19 MIQ B 502     -18.592  -1.691 -11.678  1.00140.06     0.247 C 
HETATM   14  O25 MIQ B 502     -18.686  -1.566 -10.509  1.00143.95    -0.271 OA
HETATM   15  N20 MIQ B 502     -19.799  -1.711 -12.479  1.00140.02    -0.296 N 
HETATM   16  H13 MIQ B 502     -20.702  -1.633 -12.055  1.00142.77     0.171 HD
HETATM   17  C21 MIQ B 502     -19.660  -1.875 -13.903  1.00142.22     0.224 C 
HETATM   18  C22 MIQ B 502     -18.510  -2.741 -14.380  1.00139.52     0.106 C 
HETATM   19  O24 MIQ B 502     -20.403  -1.355 -14.661  1.00146.13    -0.273 OA
HETATM   20  C23 MIQ B 502     -17.244  -2.134 -13.803  1.00139.15     0.045 C 
ENDBRANCH  10  12
BRANCH   5  21
HETATM   21  N6  MIQ B 502     -12.400  -6.264  -8.525  1.00140.95    -0.377 N 
HETATM   22  C7  MIQ B 502     -11.127  -6.198  -9.222  1.00142.12     0.149 C 
HETATM   23  C8  MIQ B 502     -10.137  -7.231  -8.698  1.00144.10     0.187 C 
HETATM   24  O9  MIQ B 502     -10.054  -7.245  -7.304  1.00148.65    -0.388 OA
HETATM   25  C10 MIQ B 502     -10.976  -6.533  -6.533  1.00147.44     0.187 C 
HETATM   26  C11 MIQ B 502     -12.389  -6.345  -7.075  1.00144.08     0.149 C 
ENDBRANCH   5  21
TORSDOF 2
ENDMDL
MODEL 5
REMARK VINA RESULT:      -6.6      9.365     16.435
REMARK  2 active torsions:
REMARK  status: ('A' for Active; 'I' for Inactive)
REMARK    1  A    between atoms: C5_5  and  N6_21 
REMARK    2  A    between atoms: C18_14  and  N17_19 
ROOT
HETATM    1  O1  MIQ B 502      -3.677 -13.245  -9.587  1.00142.91    -0.171 OA
HETATM    2  C2  MIQ B 502      -4.450 -14.408  -9.619  1.00141.17     0.195 A 
HETATM    3  C3  MIQ B 502      -6.001 -14.489  -9.456  1.00141.71     0.035 A 
HETATM    4  C4  MIQ B 502      -7.058 -13.473  -9.240  1.00142.86     0.046 A 
HETATM    5  C5  MIQ B 502      -8.417 -13.863  -9.130  1.00139.53     0.031 A 
HETATM    6  C12 MIQ B 502      -8.774 -15.271  -9.231  1.00139.38     0.030 A 
HETATM    7  C13 MIQ B 502      -7.762 -16.246  -9.439  1.00141.18     0.019 A 
HETATM    8  C14 MIQ B 502      -6.337 -15.830  -9.556  1.00138.77     0.033 A 
HETATM    9  C15 MIQ B 502      -4.987 -16.585  -9.783  1.00142.10     0.195 A 
HETATM   10  N17 MIQ B 502      -4.046 -15.655  -9.794  1.00139.42    -0.288 N 
HETATM   11  O16 MIQ B 502      -4.815 -17.961  -9.938  1.00148.93    -0.171 OA
ENDROOT
BRANCH  10  12
HETATM   12  C18 MIQ B 502      -2.647 -15.995  -9.969  1.00139.82     0.187 C 
HETATM   13  C19 MIQ B 502      -2.534 -16.886 -11.212  1.00140.06     0.247 C 
HETATM   14  O25 MIQ B 502      -3.030 -16.531 -12.222  1.00143.95    -0.271 OA
HETATM   15  N20 MIQ B 502      -1.828 -18.151 -11.184  1.00140.02    -0.296 N 
HETATM   16  H13 MIQ B 502      -1.768 -18.726 -12.001  1.00142.77     0.171 HD
HETATM   17  C21 MIQ B 502      -1.240 -18.568  -9.937  1.00142.22     0.224 C 
HETATM   18  C22 MIQ B 502      -1.973 -18.168  -8.671  1.00139.52     0.106 C 
HETATM   19  O24 MIQ B 502      -0.234 -19.186  -9.905  1.00146.13    -0.273 OA
HETATM   20  C23 MIQ B 502      -2.098 -16.655  -8.705  1.00139.15     0.045 C 
ENDBRANCH  10  12
BRANCH   5  21
HETATM   21  N6  MIQ B 502      -9.439 -12.858  -8.904  1.00140.95    -0.377 N 
HETATM   22  C7  MIQ B 502     -10.788 -13.121  -9.376  1.00142.12     0.149 C 
HETATM   23  C8  MIQ B 502     -11.550 -11.834  -9.667  1.00144.10     0.187 C 
HETATM   24  O9  MIQ B 502     -11.451 -10.900  -8.634  1.00148.65    -0.388 OA
HETATM   25  C10 MIQ B 502     -10.545 -11.094  -7.588  1.00147.44     0.187 C 
HETATM   26  C11 MIQ B 502      -9.252 -11.852  -7.874  1.00144.08     0.149 C 
ENDBRANCH   5  21
TORSDOF 2
ENDMDL
MODEL 6
REMARK VINA RESULT:      -6.6     12.435     19.327
REMARK  2 active torsions:
REMARK  status: ('A' for Active; 'I' for Inactive)
REMARK    1  A    between atoms: C5_5  and  N6_21 
REMARK    2  A    between atoms: C18_14  and  N17_19 
ROOT
HETATM    1  O1  MIQ B 502      -2.952 -19.464  -8.527  1.00142.91    -0.171 OA
HETATM    2  C2  MIQ B 502      -2.437 -18.230  -8.930  1.00141.17     0.195 A 
HETATM    3  C3  MIQ B 502      -3.253 -16.915  -9.143  1.00141.71     0.035 A 
HETATM    4  C4  MIQ B 502      -4.688 -16.573  -9.001  1.00142.86     0.046 A 
HETATM    5  C5  MIQ B 502      -5.141 -15.256  -9.270  1.00139.53     0.031 A 
HETATM    6  C12 MIQ B 502      -4.190 -14.237  -9.688  1.00139.38     0.030 A 
HETATM    7  C13 MIQ B 502      -2.814 -14.564  -9.824  1.00141.18     0.019 A 
HETATM    8  C14 MIQ B 502      -2.344 -15.947  -9.537  1.00138.77     0.033 A 
HETATM    9  C15 MIQ B 502      -0.955 -16.665  -9.569  1.00142.10     0.195 A 
HETATM   10  N17 MIQ B 502      -1.182 -17.917  -9.205  1.00139.42    -0.288 N 
HETATM   11  O16 MIQ B 502       0.272 -16.096  -9.914  1.00148.93    -0.171 OA
ENDROOT
BRANCH  10  12
HETATM   12  C18 MIQ B 502      -0.110 -18.892  -9.136  1.00139.82     0.187 C 
HETATM   13  C19 MIQ B 502      -0.550 -20.128  -9.931  1.00140.06     0.247 C 
HETATM   14  O25 MIQ B 502      -0.951 -19.992 -11.032  1.00143.95    -0.271 OA
HETATM   15  N20 MIQ B 502      -0.481 -21.461  -9.369  1.00140.02    -0.296 N 
HETATM   16  H13 MIQ B 502      -0.778 -22.259  -9.896  1.00142.77     0.171 HD
HETATM   17  C21 MIQ B 502       0.002 -21.601  -8.020  1.00142.22     0.224 C 
HETATM   18  C22 MIQ B 502      -0.323 -20.473  -7.060  1.00139.52     0.106 C 
HETATM   19  O24 MIQ B 502       0.626 -22.546  -7.682  1.00146.13    -0.273 OA
HETATM   20  C23 MIQ B 502       0.232 -19.204  -7.680  1.00139.15     0.045 C 
ENDBRANCH  10  12
BRANCH   5  21
HETATM   21  N6  MIQ B 502      -6.551 -14.939  -9.142  1.00140.95    -0.377 N 
HETATM   22  C7  MIQ B 502      -6.986 -13.581  -9.421  1.00142.12     0.149 C 
HETATM   23  C8  MIQ B 502      -8.259 -13.224  -8.665  1.00144.10     0.187 C 
HETATM   24  O9  MIQ B 502      -9.249 -14.202  -8.776  1.00148.65    -0.388 OA
HETATM   25  C10 MIQ B 502      -8.953 -15.448  -9.334  1.00147.44     0.187 C 
HETATM   26  C11 MIQ B 502      -7.541 -16.001  -9.177  1.00144.08     0.149 C 
ENDBRANCH   5  21
TORSDOF 2
ENDMDL
MODEL 7
REMARK VINA RESULT:      -6.6      2.091      8.013
REMARK  2 active torsions:
REMARK  status: ('A' for Active; 'I' for Inactive)
REMARK    1  A    between atoms: C5_5  and  N6_21 
REMARK    2  A    between atoms: C18_14  and  N17_19 
ROOT
HETATM    1  O1  MIQ B 502     -16.097  -6.920  -9.652  1.00142.91    -0.171 OA
HETATM    2  C2  MIQ B 502     -15.306  -5.793  -9.883  1.00141.17     0.195 A 
HETATM    3  C3  MIQ B 502     -15.800  -4.414 -10.425  1.00141.71     0.035 A 
HETATM    4  C4  MIQ B 502     -17.128  -3.894 -10.829  1.00142.86     0.046 A 
HETATM    5  C5  MIQ B 502     -17.265  -2.561 -11.292  1.00139.53     0.031 A 
HETATM    6  C12 MIQ B 502     -16.095  -1.699 -11.370  1.00139.38     0.030 A 
HETATM    7  C13 MIQ B 502     -14.822  -2.196 -10.982  1.00141.18     0.019 A 
HETATM    8  C14 MIQ B 502     -14.684  -3.596 -10.494  1.00138.77     0.033 A 
HETATM    9  C15 MIQ B 502     -13.490  -4.472  -9.991  1.00142.10     0.195 A 
HETATM   10  N17 MIQ B 502     -14.005  -5.653  -9.692  1.00139.42    -0.288 N 
HETATM   11  O16 MIQ B 502     -12.154  -4.082  -9.884  1.00148.93    -0.171 OA
ENDROOT
BRANCH  10  12
HETATM   12  C18 MIQ B 502     -13.176  -6.738  -9.201  1.00139.82     0.187 C 
HETATM   13  C19 MIQ B 502     -12.348  -6.201  -8.028  1.00140.06     0.247 C 
HETATM   14  O25 MIQ B 502     -12.894  -5.633  -7.150  1.00143.95    -0.271 OA
HETATM   15  N20 MIQ B 502     -10.911  -6.376  -7.963  1.00140.02    -0.296 N 
HETATM   16  H13 MIQ B 502     -10.382  -6.014  -7.194  1.00142.77     0.171 HD
HETATM   17  C21 MIQ B 502     -10.266  -7.063  -9.051  1.00142.22     0.224 C 
HETATM   18  C22 MIQ B 502     -10.867  -6.871 -10.430  1.00139.52     0.106 C 
HETATM   19  O24 MIQ B 502      -9.318  -7.746  -8.875  1.00146.13    -0.273 OA
HETATM   20  C23 MIQ B 502     -12.318  -7.305 -10.332  1.00139.15     0.045 C 
ENDBRANCH  10  12
BRANCH   5  21
HETATM   21  N6  MIQ B 502     -18.570  -2.071 -11.699  1.00140.95    -0.377 N 
HETATM   22  C7  MIQ B 502     -18.718  -1.515 -13.033  1.00142.12     0.149 C 
HETATM   23  C8  MIQ B 502     -19.853  -0.502 -13.105  1.00144.10     0.187 C 
HETATM   24  O9  MIQ B 502     -21.032  -0.964 -12.516  1.00148.65    -0.388 OA
HETATM   25  C10 MIQ B 502     -21.031  -2.137 -11.757  1.00147.44     0.187 C 
HETATM   26  C11 MIQ B 502     -19.762  -2.515 -11.000  1.00144.08     0.149 C 
ENDBRANCH   5  21
TORSDOF 2
ENDMDL
MODEL 8
REMARK VINA RESULT:      -6.6      2.339      8.687
REMARK  2 active torsions:
REMARK  status: ('A' for Active; 'I' for Inactive)
REMARK    1  A    between atoms: C5_5  and  N6_21 
REMARK    2  A    between atoms: C18_14  and  N17_19 
ROOT
HETATM    1  O1  MIQ B 502     -14.901  -8.691  -7.833  1.00142.91    -0.171 OA
HETATM    2  C2  MIQ B 502     -13.665  -8.229  -8.293  1.00141.17     0.195 A 
HETATM    3  C3  MIQ B 502     -13.388  -6.840  -8.950  1.00141.71     0.035 A 
HETATM    4  C4  MIQ B 502     -14.245  -5.674  -9.270  1.00142.86     0.046 A 
HETATM    5  C5  MIQ B 502     -13.690  -4.522  -9.882  1.00139.53     0.031 A 
HETATM    6  C12 MIQ B 502     -12.269  -4.486 -10.198  1.00139.38     0.030 A 
HETATM    7  C13 MIQ B 502     -11.446  -5.603  -9.891  1.00141.18     0.019 A 
HETATM    8  C14 MIQ B 502     -12.035  -6.808  -9.246  1.00138.77     0.033 A 
HETATM    9  C15 MIQ B 502     -11.469  -8.186  -8.768  1.00142.10     0.195 A 
HETATM   10  N17 MIQ B 502     -12.498  -8.848  -8.265  1.00139.42    -0.288 N 
HETATM   11  O16 MIQ B 502     -10.147  -8.623  -8.860  1.00148.93    -0.171 OA
ENDROOT
BRANCH  10  12
HETATM   12  C18 MIQ B 502     -12.348 -10.190  -7.733  1.00139.82     0.187 C 
HETATM   13  C19 MIQ B 502     -11.192 -10.167  -6.725  1.00140.06     0.247 C 
HETATM   14  O25 MIQ B 502     -11.189  -9.352  -5.872  1.00143.95    -0.271 OA
HETATM   15  N20 MIQ B 502     -10.106 -11.122  -6.786  1.00140.02    -0.296 N 
HETATM   16  H13 MIQ B 502      -9.354 -11.093  -6.126  1.00142.77     0.171 HD
HETATM   17  C21 MIQ B 502     -10.127 -12.101  -7.843  1.00142.22     0.224 C 
HETATM   18  C22 MIQ B 502     -10.724 -11.661  -9.166  1.00139.52     0.106 C 
HETATM   19  O24 MIQ B 502      -9.705 -13.193  -7.683  1.00146.13    -0.273 OA
HETATM   20  C23 MIQ B 502     -12.135 -11.191  -8.868  1.00139.15     0.045 C 
ENDBRANCH  10  12
BRANCH   5  21
HETATM   21  N6  MIQ B 502     -14.544  -3.393 -10.203  1.00140.95    -0.377 N 
HETATM   22  C7  MIQ B 502     -15.594  -3.028  -9.267  1.00142.12     0.149 C 
HETATM   23  C8  MIQ B 502     -16.754  -2.326  -9.960  1.00144.10     0.187 C 
HETATM   24  O9  MIQ B 502     -16.338  -1.306 -10.817  1.00148.65    -0.388 OA
HETATM   25  C10 MIQ B 502     -14.986  -1.157 -11.137  1.00147.44     0.187 C 
HETATM   26  C11 MIQ B 502     -14.103  -2.401 -11.168  1.00144.08     0.149 C 
ENDBRANCH   5  21
TORSDOF 2
ENDMDL
MODEL 9
REMARK VINA RESULT:      -6.4     11.982     16.541
REMARK  2 active torsions:
REMARK  status: ('A' for Active; 'I' for Inactive)
REMARK    1  A    between atoms: C5_5  and  N6_21 
REMARK    2  A    between atoms: C18_14  and  N17_19 
ROOT
HETATM    1  O1  MIQ B 502      -5.004 -17.806 -10.088  1.00142.91    -0.171 OA
HETATM    2  C2  MIQ B 502      -5.102 -16.430  -9.874  1.00141.17     0.195 A 
HETATM    3  C3  MIQ B 502      -6.418 -15.626  -9.627  1.00141.71     0.035 A 
HETATM    4  C4  MIQ B 502      -7.847 -16.012  -9.542  1.00142.86     0.046 A 
HETATM    5  C5  MIQ B 502      -8.841 -15.031  -9.298  1.00139.53     0.031 A 
HETATM    6  C12 MIQ B 502      -8.455 -13.637  -9.131  1.00139.38     0.030 A 
HETATM    7  C13 MIQ B 502      -7.085 -13.267  -9.212  1.00141.18     0.019 A 
HETATM    8  C14 MIQ B 502      -6.046 -14.302  -9.465  1.00138.77     0.033 A 
HETATM    9  C15 MIQ B 502      -4.489 -14.283  -9.612  1.00142.10     0.195 A 
HETATM   10  N17 MIQ B 502      -4.128 -15.537  -9.832  1.00139.42    -0.288 N 
HETATM   11  O16 MIQ B 502      -3.655 -13.167  -9.530  1.00148.93    -0.171 OA
ENDROOT
BRANCH  10  12
HETATM   12  C18 MIQ B 502      -2.738 -15.900 -10.035  1.00139.82     0.187 C 
HETATM   13  C19 MIQ B 502      -2.659 -16.754 -11.306  1.00140.06     0.247 C 
HETATM   14  O25 MIQ B 502      -3.161 -16.358 -12.298  1.00143.95    -0.271 OA
HETATM   15  N20 MIQ B 502      -1.980 -18.033 -11.326  1.00140.02    -0.296 N 
HETATM   16  H13 MIQ B 502      -1.941 -18.584 -12.160  1.00142.77     0.171 HD
HETATM   17  C21 MIQ B 502      -1.384 -18.499 -10.100  1.00142.22     0.224 C 
HETATM   18  C22 MIQ B 502      -2.092 -18.124  -8.813  1.00139.52     0.106 C 
HETATM   19  O24 MIQ B 502      -0.390 -19.138 -10.100  1.00146.13    -0.273 OA
HETATM   20  C23 MIQ B 502      -2.187 -16.609  -8.799  1.00139.15     0.045 C 
ENDBRANCH  10  12
BRANCH   5  21
HETATM   21  N6  MIQ B 502     -10.238 -15.421  -9.232  1.00140.95    -0.377 N 
HETATM   22  C7  MIQ B 502     -11.214 -14.436  -8.799  1.00142.12     0.149 C 
HETATM   23  C8  MIQ B 502     -12.439 -15.087  -8.171  1.00144.10     0.187 C 
HETATM   24  O9  MIQ B 502     -12.950 -16.137  -8.937  1.00148.65    -0.388 OA
HETATM   25  C10 MIQ B 502     -12.229 -16.634 -10.026  1.00147.44     0.187 C 
HETATM   26  C11 MIQ B 502     -10.705 -16.574  -9.981  1.00144.08     0.149 C 
ENDBRANCH   5  21
TORSDOF 2
ENDMDL
