MODEL 1
REMARK VINA RESULT:      -7.1      0.000      0.000
REMARK  2 active torsions:
REMARK  status: ('A' for Active; 'I' for Inactive)
REMARK    1  A    between atoms: C5_5  and  N6_21 
REMARK    2  A    between atoms: C18_14  and  N17_19 
ROOT
HETATM    1  O1  MIQ B 502      -0.841 -16.148   5.375  1.00142.91    -0.171 OA
HETATM    2  C2  MIQ B 502      -1.092 -16.987   6.463  1.00141.17     0.195 A 
HETATM    3  C3  MIQ B 502      -1.793 -18.382   6.410  1.00141.71     0.035 A 
HETATM    4  C4  MIQ B 502      -2.361 -19.195   5.308  1.00142.86     0.046 A 
HETATM    5  C5  MIQ B 502      -2.946 -20.458   5.578  1.00139.53     0.031 A 
HETATM    6  C12 MIQ B 502      -2.989 -20.957   6.945  1.00139.38     0.030 A 
HETATM    7  C13 MIQ B 502      -2.443 -20.179   8.001  1.00141.18     0.019 A 
HETATM    8  C14 MIQ B 502      -1.828 -18.855   7.711  1.00138.77     0.033 A 
HETATM    9  C15 MIQ B 502      -1.144 -17.747   8.578  1.00142.10     0.195 A 
HETATM   10  N17 MIQ B 502      -0.794 -16.789   7.736  1.00139.42    -0.288 N 
HETATM   11  O16 MIQ B 502      -0.948 -17.770   9.960  1.00148.93    -0.171 OA
ENDROOT
BRANCH  10  12
HETATM   12  C18 MIQ B 502      -0.139 -15.579   8.196  1.00139.82     0.187 C 
HETATM   13  C19 MIQ B 502      -1.057 -14.395   7.867  1.00140.06     0.247 C 
HETATM   14  O25 MIQ B 502      -2.189 -14.435   8.196  1.00143.95    -0.271 OA
HETATM   15  N20 MIQ B 502      -0.572 -13.224   7.166  1.00140.02    -0.296 N 
HETATM   16  H13 MIQ B 502      -1.183 -12.461   6.951  1.00142.77     0.171 HD
HETATM   17  C21 MIQ B 502       0.811 -13.203   6.765  1.00142.22     0.224 C 
HETATM   18  C22 MIQ B 502       1.429 -14.533   6.378  1.00139.52     0.106 C 
HETATM   19  O24 MIQ B 502       1.433 -12.198   6.744  1.00146.13    -0.273 OA
HETATM   20  C23 MIQ B 502       1.249 -15.455   7.570  1.00139.15     0.045 C 
ENDBRANCH  10  12
BRANCH   5  21
HETATM   21  N6  MIQ B 502      -3.512 -21.237   4.492  1.00140.95    -0.377 N 
HETATM   22  C7  MIQ B 502      -3.971 -22.587   4.771  1.00142.12     0.149 C 
HETATM   23  C8  MIQ B 502      -3.921 -23.472   3.533  1.00144.10     0.187 C 
HETATM   24  O9  MIQ B 502      -4.490 -22.869   2.409  1.00148.65    -0.388 OA
HETATM   25  C10 MIQ B 502      -4.832 -21.514   2.431  1.00147.44     0.187 C 
HETATM   26  C11 MIQ B 502      -4.014 -20.569   3.304  1.00144.08     0.149 C 
ENDBRANCH   5  21
TORSDOF 2
ENDMDL
MODEL 2
REMARK VINA RESULT:      -7.0      1.516      1.853
REMARK  2 active torsions:
REMARK  status: ('A' for Active; 'I' for Inactive)
REMARK    1  A    between atoms: C5_5  and  N6_21 
REMARK    2  A    between atoms: C18_14  and  N17_19 
ROOT
HETATM    1  O1  MIQ B 502      -1.063 -16.149   5.570  1.00142.91    -0.171 OA
HETATM    2  C2  MIQ B 502      -0.600 -16.802   6.714  1.00141.17     0.195 A 
HETATM    3  C3  MIQ B 502      -0.855 -18.297   7.090  1.00141.71     0.035 A 
HETATM    4  C4  MIQ B 502      -1.590 -19.402   6.431  1.00142.86     0.046 A 
HETATM    5  C5  MIQ B 502      -1.646 -20.685   7.032  1.00139.53     0.031 A 
HETATM    6  C12 MIQ B 502      -0.975 -20.916   8.303  1.00139.38     0.030 A 
HETATM    7  C13 MIQ B 502      -0.270 -19.857   8.935  1.00141.18     0.019 A 
HETATM    8  C14 MIQ B 502      -0.213 -18.513   8.298  1.00138.77     0.033 A 
HETATM    9  C15 MIQ B 502       0.445 -17.146   8.674  1.00142.10     0.195 A 
HETATM   10  N17 MIQ B 502       0.138 -16.311   7.695  1.00139.42    -0.288 N 
HETATM   11  O16 MIQ B 502       1.200 -16.867   9.814  1.00148.93    -0.171 OA
ENDROOT
BRANCH  10  12
HETATM   12  C18 MIQ B 502       0.574 -14.927   7.714  1.00139.82     0.187 C 
HETATM   13  C19 MIQ B 502      -0.675 -14.042   7.627  1.00140.06     0.247 C 
HETATM   14  O25 MIQ B 502      -1.570 -14.233   8.372  1.00143.95    -0.271 OA
HETATM   15  N20 MIQ B 502      -0.787 -12.972   6.657  1.00140.02    -0.296 N 
HETATM   16  H13 MIQ B 502      -1.611 -12.406   6.606  1.00142.77     0.171 HD
HETATM   17  C21 MIQ B 502       0.313 -12.766   5.751  1.00142.22     0.224 C 
HETATM   18  C22 MIQ B 502       1.080 -14.000   5.318  1.00139.52     0.106 C 
HETATM   19  O24 MIQ B 502       0.605 -11.686   5.369  1.00146.13    -0.273 OA
HETATM   20  C23 MIQ B 502       1.574 -14.668   6.588  1.00139.15     0.045 C 
ENDBRANCH  10  12
BRANCH   5  21
HETATM   21  N6  MIQ B 502      -2.382 -21.754   6.382  1.00140.95    -0.377 N 
HETATM   22  C7  MIQ B 502      -2.414 -23.060   7.018  1.00142.12     0.149 C 
HETATM   23  C8  MIQ B 502      -2.621 -24.180   6.006  1.00144.10     0.187 C 
HETATM   24  O9  MIQ B 502      -3.666 -23.922   5.116  1.00148.65    -0.388 OA
HETATM   25  C10 MIQ B 502      -4.257 -22.657   5.066  1.00147.44     0.187 C 
HETATM   26  C11 MIQ B 502      -3.402 -21.439   5.398  1.00144.08     0.149 C 
ENDBRANCH   5  21
TORSDOF 2
ENDMDL
MODEL 3
REMARK VINA RESULT:      -6.8      3.132      4.446
REMARK  2 active torsions:
REMARK  status: ('A' for Active; 'I' for Inactive)
REMARK    1  A    between atoms: C5_5  and  N6_21 
REMARK    2  A    between atoms: C18_14  and  N17_19 
ROOT
HETATM    1  O1  MIQ B 502       1.303 -16.561  10.032  1.00142.91    -0.171 OA
HETATM    2  C2  MIQ B 502       0.610 -16.909   8.871  1.00141.17     0.195 A 
HETATM    3  C3  MIQ B 502       0.079 -18.332   8.506  1.00141.71     0.035 A 
HETATM    4  C4  MIQ B 502       0.125 -19.645   9.193  1.00142.86     0.046 A 
HETATM    5  C5  MIQ B 502      -0.462 -20.788   8.595  1.00139.53     0.031 A 
HETATM    6  C12 MIQ B 502      -1.114 -20.671   7.299  1.00139.38     0.030 A 
HETATM    7  C13 MIQ B 502      -1.160 -19.413   6.640  1.00141.18     0.019 A 
HETATM    8  C14 MIQ B 502      -0.544 -18.215   7.274  1.00138.77     0.033 A 
HETATM    9  C15 MIQ B 502      -0.400 -16.711   6.872  1.00142.10     0.195 A 
HETATM   10  N17 MIQ B 502       0.258 -16.130   7.863  1.00139.42    -0.288 N 
HETATM   11  O16 MIQ B 502      -0.869 -16.109   5.704  1.00148.93    -0.171 OA
ENDROOT
BRANCH  10  12
HETATM   12  C18 MIQ B 502       0.590 -14.718   7.826  1.00139.82     0.187 C 
HETATM   13  C19 MIQ B 502      -0.715 -13.936   7.636  1.00140.06     0.247 C 
HETATM   14  O25 MIQ B 502      -1.627 -14.155   8.351  1.00143.95    -0.271 OA
HETATM   15  N20 MIQ B 502      -0.859 -12.928   6.605  1.00140.02    -0.296 N 
HETATM   16  H13 MIQ B 502      -1.718 -12.429   6.487  1.00142.77     0.171 HD
HETATM   17  C21 MIQ B 502       0.265 -12.686   5.738  1.00142.22     0.224 C 
HETATM   18  C22 MIQ B 502       1.140 -13.880   5.407  1.00139.52     0.106 C 
HETATM   19  O24 MIQ B 502       0.495 -11.608   5.311  1.00146.13    -0.273 OA
HETATM   20  C23 MIQ B 502       1.621 -14.443   6.732  1.00139.15     0.045 C 
ENDBRANCH  10  12
BRANCH   5  21
HETATM   21  N6  MIQ B 502      -0.396 -22.070   9.273  1.00140.95    -0.377 N 
HETATM   22  C7  MIQ B 502      -0.533 -23.282   8.482  1.00142.12     0.149 C 
HETATM   23  C8  MIQ B 502      -1.082 -24.439   9.307  1.00144.10     0.187 C 
HETATM   24  O9  MIQ B 502      -0.425 -24.595  10.529  1.00148.65    -0.388 OA
HETATM   25  C10 MIQ B 502       0.465 -23.619  10.984  1.00147.44     0.187 C 
HETATM   26  C11 MIQ B 502       0.222 -22.167  10.584  1.00144.08     0.149 C 
ENDBRANCH   5  21
TORSDOF 2
ENDMDL
MODEL 4
REMARK VINA RESULT:      -6.8      2.520      8.126
REMARK  2 active torsions:
REMARK  status: ('A' for Active; 'I' for Inactive)
REMARK    1  A    between atoms: C5_5  and  N6_21 
REMARK    2  A    between atoms: C18_14  and  N17_19 
ROOT
HETATM    1  O1  MIQ B 502      -4.057 -19.553   4.004  1.00142.91    -0.171 OA
HETATM    2  C2  MIQ B 502      -3.219 -20.001   5.028  1.00141.17     0.195 A 
HETATM    3  C3  MIQ B 502      -2.059 -19.192   5.691  1.00141.71     0.035 A 
HETATM    4  C4  MIQ B 502      -1.519 -17.827   5.481  1.00142.86     0.046 A 
HETATM    5  C5  MIQ B 502      -0.429 -17.361   6.259  1.00139.53     0.031 A 
HETATM    6  C12 MIQ B 502       0.161 -18.227   7.270  1.00139.38     0.030 A 
HETATM    7  C13 MIQ B 502      -0.357 -19.535   7.471  1.00141.18     0.019 A 
HETATM    8  C14 MIQ B 502      -1.503 -20.018   6.653  1.00138.77     0.033 A 
HETATM    9  C15 MIQ B 502      -2.323 -21.348   6.588  1.00142.10     0.195 A 
HETATM   10  N17 MIQ B 502      -3.231 -21.171   5.643  1.00139.42    -0.288 N 
HETATM   11  O16 MIQ B 502      -2.130 -22.488   7.370  1.00148.93    -0.171 OA
ENDROOT
BRANCH  10  12
HETATM   12  C18 MIQ B 502      -4.173 -22.218   5.292  1.00139.82     0.187 C 
HETATM   13  C19 MIQ B 502      -4.882 -22.660   6.578  1.00140.06     0.247 C 
HETATM   14  O25 MIQ B 502      -5.371 -21.844   7.275  1.00143.95    -0.271 OA
HETATM   15  N20 MIQ B 502      -4.974 -24.054   6.958  1.00140.02    -0.296 N 
HETATM   16  H13 MIQ B 502      -5.435 -24.329   7.804  1.00142.77     0.171 HD
HETATM   17  C21 MIQ B 502      -4.360 -25.031   6.096  1.00142.22     0.224 C 
HETATM   18  C22 MIQ B 502      -3.097 -24.604   5.374  1.00139.52     0.106 C 
HETATM   19  O24 MIQ B 502      -4.823 -26.109   5.956  1.00146.13    -0.273 OA
HETATM   20  C23 MIQ B 502      -3.454 -23.362   4.578  1.00139.15     0.045 C 
ENDBRANCH  10  12
BRANCH   5  21
HETATM   21  N6  MIQ B 502       0.099 -16.028   6.033  1.00140.95    -0.377 N 
HETATM   22  C7  MIQ B 502       0.590 -15.691   4.708  1.00142.12     0.149 C 
HETATM   23  C8  MIQ B 502       1.650 -14.597   4.755  1.00144.10     0.187 C 
HETATM   24  O9  MIQ B 502       1.274 -13.510   5.547  1.00148.65    -0.388 OA
HETATM   25  C10 MIQ B 502       0.144 -13.587   6.365  1.00147.44     0.187 C 
HETATM   26  C11 MIQ B 502      -0.252 -14.945   6.936  1.00144.08     0.149 C 
ENDBRANCH   5  21
TORSDOF 2
ENDMDL
MODEL 5
REMARK VINA RESULT:      -6.5      2.789      8.276
REMARK  2 active torsions:
REMARK  status: ('A' for Active; 'I' for Inactive)
REMARK    1  A    between atoms: C5_5  and  N6_21 
REMARK    2  A    between atoms: C18_14  and  N17_19 
ROOT
HETATM    1  O1  MIQ B 502      -2.319 -21.879   7.235  1.00142.91    -0.171 OA
HETATM    2  C2  MIQ B 502      -2.927 -21.196   6.179  1.00141.17     0.195 A 
HETATM    3  C3  MIQ B 502      -2.501 -19.802   5.617  1.00141.71     0.035 A 
HETATM    4  C4  MIQ B 502      -1.428 -18.844   5.972  1.00142.86     0.046 A 
HETATM    5  C5  MIQ B 502      -1.288 -17.627   5.259  1.00139.53     0.031 A 
HETATM    6  C12 MIQ B 502      -2.204 -17.318   4.170  1.00139.38     0.030 A 
HETATM    7  C13 MIQ B 502      -3.233 -18.237   3.828  1.00141.18     0.019 A 
HETATM    8  C14 MIQ B 502      -3.373 -19.514   4.579  1.00138.77     0.033 A 
HETATM    9  C15 MIQ B 502      -4.345 -20.736   4.497  1.00142.10     0.195 A 
HETATM   10  N17 MIQ B 502      -3.960 -21.574   5.446  1.00139.42    -0.288 N 
HETATM   11  O16 MIQ B 502      -5.404 -20.903   3.603  1.00148.93    -0.171 OA
ENDROOT
BRANCH  10  12
HETATM   12  C18 MIQ B 502      -4.653 -22.828   5.676  1.00139.82     0.187 C 
HETATM   13  C19 MIQ B 502      -5.071 -22.867   7.151  1.00140.06     0.247 C 
HETATM   14  O25 MIQ B 502      -5.655 -21.950   7.609  1.00143.95    -0.271 OA
HETATM   15  N20 MIQ B 502      -4.773 -24.002   8.000  1.00140.02    -0.296 N 
HETATM   16  H13 MIQ B 502      -5.045 -24.012   8.963  1.00142.77     0.171 HD
HETATM   17  C21 MIQ B 502      -4.049 -25.105   7.422  1.00142.22     0.224 C 
HETATM   18  C22 MIQ B 502      -3.025 -24.764   6.356  1.00139.52     0.106 C 
HETATM   19  O24 MIQ B 502      -4.248 -26.220   7.759  1.00146.13    -0.273 OA
HETATM   20  C23 MIQ B 502      -3.769 -24.006   5.271  1.00139.15     0.045 C 
ENDBRANCH  10  12
BRANCH   5  21
HETATM   21  N6  MIQ B 502      -0.241 -16.692   5.628  1.00140.95    -0.377 N 
HETATM   22  C7  MIQ B 502       0.510 -16.935   6.847  1.00142.12     0.149 C 
HETATM   23  C8  MIQ B 502       1.067 -15.646   7.439  1.00144.10     0.187 C 
HETATM   24  O9  MIQ B 502       1.709 -14.847   6.492  1.00148.65    -0.388 OA
HETATM   25  C10 MIQ B 502       1.609 -15.143   5.130  1.00147.44     0.187 C 
HETATM   26  C11 MIQ B 502       0.339 -15.818   4.623  1.00144.08     0.149 C 
ENDBRANCH   5  21
TORSDOF 2
ENDMDL
MODEL 6
REMARK VINA RESULT:      -6.5      2.042      3.052
REMARK  2 active torsions:
REMARK  status: ('A' for Active; 'I' for Inactive)
REMARK    1  A    between atoms: C5_5  and  N6_21 
REMARK    2  A    between atoms: C18_14  and  N17_19 
ROOT
HETATM    1  O1  MIQ B 502      -0.178 -18.682   7.771  1.00142.91    -0.171 OA
HETATM    2  C2  MIQ B 502      -1.494 -18.224   7.690  1.00141.17     0.195 A 
HETATM    3  C3  MIQ B 502      -2.583 -18.719   6.686  1.00141.71     0.035 A 
HETATM    4  C4  MIQ B 502      -2.586 -19.732   5.604  1.00142.86     0.046 A 
HETATM    5  C5  MIQ B 502      -3.760 -19.966   4.844  1.00139.53     0.031 A 
HETATM    6  C12 MIQ B 502      -4.969 -19.206   5.130  1.00139.38     0.030 A 
HETATM    7  C13 MIQ B 502      -4.967 -18.236   6.168  1.00141.18     0.019 A 
HETATM    8  C14 MIQ B 502      -3.732 -17.996   6.964  1.00138.77     0.033 A 
HETATM    9  C15 MIQ B 502      -3.354 -17.048   8.148  1.00142.10     0.195 A 
HETATM   10  N17 MIQ B 502      -2.087 -17.301   8.429  1.00139.42    -0.288 N 
HETATM   11  O16 MIQ B 502      -4.189 -16.121   8.775  1.00148.93    -0.171 OA
ENDROOT
BRANCH  10  12
HETATM   12  C18 MIQ B 502      -1.386 -16.586   9.479  1.00139.82     0.187 C 
HETATM   13  C19 MIQ B 502      -0.111 -15.991   8.869  1.00140.06     0.247 C 
HETATM   14  O25 MIQ B 502      -0.188 -15.355   7.879  1.00143.95    -0.271 OA
HETATM   15  N20 MIQ B 502       1.189 -16.184   9.479  1.00140.02    -0.296 N 
HETATM   16  H13 MIQ B 502       2.015 -15.797   9.068  1.00142.77     0.171 HD
HETATM   17  C21 MIQ B 502       1.259 -16.974  10.682  1.00142.22     0.224 C 
HETATM   18  C22 MIQ B 502       0.273 -18.119  10.804  1.00139.52     0.106 C 
HETATM   19  O24 MIQ B 502       2.044 -16.735  11.533  1.00146.13    -0.273 OA
HETATM   20  C23 MIQ B 502      -1.112 -17.513  10.662  1.00139.15     0.045 C 
ENDBRANCH  10  12
BRANCH   5  21
HETATM   21  N6  MIQ B 502      -3.744 -20.950   3.778  1.00140.95    -0.377 N 
HETATM   22  C7  MIQ B 502      -4.261 -22.280   4.052  1.00142.12     0.149 C 
HETATM   23  C8  MIQ B 502      -3.628 -23.333   3.152  1.00144.10     0.187 C 
HETATM   24  O9  MIQ B 502      -3.618 -22.963   1.806  1.00148.65    -0.388 OA
HETATM   25  C10 MIQ B 502      -3.950 -21.660   1.428  1.00147.44     0.187 C 
HETATM   26  C11 MIQ B 502      -3.646 -20.520   2.394  1.00144.08     0.149 C 
ENDBRANCH   5  21
TORSDOF 2
ENDMDL
MODEL 7
REMARK VINA RESULT:      -6.3     12.602     14.467
REMARK  2 active torsions:
REMARK  status: ('A' for Active; 'I' for Inactive)
REMARK    1  A    between atoms: C5_5  and  N6_21 
REMARK    2  A    between atoms: C18_14  and  N17_19 
ROOT
HETATM    1  O1  MIQ B 502      -0.049 -25.335  -3.177  1.00142.91    -0.171 OA
HETATM    2  C2  MIQ B 502       0.069 -26.649  -3.635  1.00141.17     0.195 A 
HETATM    3  C3  MIQ B 502       0.013 -27.940  -2.757  1.00141.71     0.035 A 
HETATM    4  C4  MIQ B 502      -0.168 -28.178  -1.305  1.00142.86     0.046 A 
HETATM    5  C5  MIQ B 502      -0.176 -29.499  -0.791  1.00139.53     0.031 A 
HETATM    6  C12 MIQ B 502      -0.008 -30.628  -1.695  1.00139.38     0.030 A 
HETATM    7  C13 MIQ B 502       0.164 -30.400  -3.087  1.00141.18     0.019 A 
HETATM    8  C14 MIQ B 502       0.170 -29.011  -3.622  1.00138.77     0.033 A 
HETATM    9  C15 MIQ B 502       0.324 -28.381  -5.045  1.00142.10     0.195 A 
HETATM   10  N17 MIQ B 502       0.243 -27.071  -4.875  1.00139.42    -0.288 N 
HETATM   11  O16 MIQ B 502       0.512 -29.066  -6.246  1.00148.93    -0.171 OA
ENDROOT
BRANCH  10  12
HETATM   12  C18 MIQ B 502       0.361 -26.154  -5.993  1.00139.82     0.187 C 
HETATM   13  C19 MIQ B 502       1.453 -25.134  -5.649  1.00140.06     0.247 C 
HETATM   14  O25 MIQ B 502       2.506 -25.520  -5.282  1.00143.95    -0.271 OA
HETATM   15  N20 MIQ B 502       1.230 -23.708  -5.766  1.00140.02    -0.296 N 
HETATM   16  H13 MIQ B 502       1.949 -23.052  -5.531  1.00142.77     0.171 HD
HETATM   17  C21 MIQ B 502      -0.067 -23.262  -6.205  1.00142.22     0.224 C 
HETATM   18  C22 MIQ B 502      -1.256 -24.105  -5.785  1.00139.52     0.106 C 
HETATM   19  O24 MIQ B 502      -0.195 -22.289  -6.865  1.00146.13    -0.273 OA
HETATM   20  C23 MIQ B 502      -0.990 -25.509  -6.297  1.00139.15     0.045 C 
ENDBRANCH  10  12
BRANCH   5  21
HETATM   21  N6  MIQ B 502      -0.339 -29.717   0.635  1.00140.95    -0.377 N 
HETATM   22  C7  MIQ B 502      -1.678 -29.667   1.197  1.00142.12     0.149 C 
HETATM   23  C8  MIQ B 502      -1.663 -29.268   2.667  1.00144.10     0.187 C 
HETATM   24  O9  MIQ B 502      -0.728 -29.985   3.416  1.00148.65    -0.388 OA
HETATM   25  C10 MIQ B 502       0.219 -30.792   2.780  1.00147.44     0.187 C 
HETATM   26  C11 MIQ B 502       0.702 -30.393   1.389  1.00144.08     0.149 C 
ENDBRANCH   5  21
TORSDOF 2
ENDMDL
MODEL 8
REMARK VINA RESULT:      -6.3      3.536      5.481
REMARK  2 active torsions:
REMARK  status: ('A' for Active; 'I' for Inactive)
REMARK    1  A    between atoms: C5_5  and  N6_21 
REMARK    2  A    between atoms: C18_14  and  N17_19 
ROOT
HETATM    1  O1  MIQ B 502      -3.877 -21.011   7.188  1.00142.91    -0.171 OA
HETATM    2  C2  MIQ B 502      -3.783 -20.521   5.883  1.00141.17     0.195 A 
HETATM    3  C3  MIQ B 502      -3.800 -21.374   4.575  1.00141.71     0.035 A 
HETATM    4  C4  MIQ B 502      -3.913 -22.827   4.307  1.00142.86     0.046 A 
HETATM    5  C5  MIQ B 502      -3.899 -23.314   2.975  1.00139.53     0.031 A 
HETATM    6  C12 MIQ B 502      -3.776 -22.380   1.866  1.00139.38     0.030 A 
HETATM    7  C13 MIQ B 502      -3.669 -20.986   2.122  1.00141.18     0.019 A 
HETATM    8  C14 MIQ B 502      -3.686 -20.481   3.522  1.00138.77     0.033 A 
HETATM    9  C15 MIQ B 502      -3.598 -19.065   4.180  1.00142.10     0.195 A 
HETATM   10  N17 MIQ B 502      -3.669 -19.265   5.486  1.00139.42    -0.288 N 
HETATM   11  O16 MIQ B 502      -3.468 -17.843   3.520  1.00148.93    -0.171 OA
ENDROOT
BRANCH  10  12
HETATM   12  C18 MIQ B 502      -3.602 -18.162   6.426  1.00139.82     0.187 C 
HETATM   13  C19 MIQ B 502      -2.538 -18.505   7.476  1.00140.06     0.247 C 
HETATM   14  O25 MIQ B 502      -1.466 -18.845   7.120  1.00143.95    -0.271 OA
HETATM   15  N20 MIQ B 502      -2.810 -18.418   8.896  1.00140.02    -0.296 N 
HETATM   16  H13 MIQ B 502      -2.109 -18.651   9.571  1.00142.77     0.171 HD
HETATM   17  C21 MIQ B 502      -4.129 -18.010   9.306  1.00142.22     0.224 C 
HETATM   18  C22 MIQ B 502      -5.281 -18.435   8.417  1.00139.52     0.106 C 
HETATM   19  O24 MIQ B 502      -4.301 -17.370  10.285  1.00146.13    -0.273 OA
HETATM   20  C23 MIQ B 502      -4.979 -17.894   7.031  1.00139.15     0.045 C 
ENDBRANCH  10  12
BRANCH   5  21
HETATM   21  N6  MIQ B 502      -3.995 -24.741   2.729  1.00140.95    -0.377 N 
HETATM   22  C7  MIQ B 502      -3.493 -25.264   1.470  1.00142.12     0.149 C 
HETATM   23  C8  MIQ B 502      -4.197 -26.553   1.067  1.00144.10     0.187 C 
HETATM   24  O9  MIQ B 502      -4.274 -27.479   2.109  1.00148.65    -0.388 OA
HETATM   25  C10 MIQ B 502      -3.934 -27.107   3.413  1.00147.44     0.187 C 
HETATM   26  C11 MIQ B 502      -4.161 -25.660   3.841  1.00144.08     0.149 C 
ENDBRANCH   5  21
TORSDOF 2
ENDMDL
MODEL 9
REMARK VINA RESULT:      -6.2      1.598      2.715
REMARK  2 active torsions:
REMARK  status: ('A' for Active; 'I' for Inactive)
REMARK    1  A    between atoms: C5_5  and  N6_21 
REMARK    2  A    between atoms: C18_14  and  N17_19 
ROOT
HETATM    1  O1  MIQ B 502      -1.071 -18.424   9.699  1.00142.91    -0.171 OA
HETATM    2  C2  MIQ B 502      -1.284 -18.198   8.337  1.00141.17     0.195 A 
HETATM    3  C3  MIQ B 502      -2.014 -19.159   7.345  1.00141.71     0.035 A 
HETATM    4  C4  MIQ B 502      -2.658 -20.485   7.499  1.00142.86     0.046 A 
HETATM    5  C5  MIQ B 502      -3.256 -21.125   6.385  1.00139.53     0.031 A 
HETATM    6  C12 MIQ B 502      -3.236 -20.476   5.082  1.00139.38     0.030 A 
HETATM    7  C13 MIQ B 502      -2.619 -19.204   4.934  1.00141.18     0.019 A 
HETATM    8  C14 MIQ B 502      -1.996 -18.535   6.108  1.00138.77     0.033 A 
HETATM    9  C15 MIQ B 502      -1.250 -17.179   6.333  1.00142.10     0.195 A 
HETATM   10  N17 MIQ B 502      -0.927 -17.149   7.616  1.00139.42    -0.288 N 
HETATM   11  O16 MIQ B 502      -0.981 -16.204   5.372  1.00148.93    -0.171 OA
ENDROOT
BRANCH  10  12
HETATM   12  C18 MIQ B 502      -0.201 -16.030   8.188  1.00139.82     0.187 C 
HETATM   13  C19 MIQ B 502      -1.053 -14.770   7.991  1.00140.06     0.247 C 
HETATM   14  O25 MIQ B 502      -2.183 -14.781   8.330  1.00143.95    -0.271 OA
HETATM   15  N20 MIQ B 502      -0.508 -13.562   7.406  1.00140.02    -0.296 N 
HETATM   16  H13 MIQ B 502      -1.076 -12.749   7.278  1.00142.77     0.171 HD
HETATM   17  C21 MIQ B 502       0.872 -13.577   6.992  1.00142.22     0.224 C 
HETATM   18  C22 MIQ B 502       1.410 -14.893   6.464  1.00139.52     0.106 C 
HETATM   19  O24 MIQ B 502       1.549 -12.612   7.065  1.00146.13    -0.273 OA
HETATM   20  C23 MIQ B 502       1.187 -15.920   7.559  1.00139.15     0.045 C 
ENDBRANCH  10  12
BRANCH   5  21
HETATM   21  N6  MIQ B 502      -3.870 -22.430   6.547  1.00140.95    -0.377 N 
HETATM   22  C7  MIQ B 502      -5.296 -22.498   6.815  1.00142.12     0.149 C 
HETATM   23  C8  MIQ B 502      -5.673 -23.764   7.574  1.00144.10     0.187 C 
HETATM   24  O9  MIQ B 502      -5.115 -24.917   7.018  1.00148.65    -0.388 OA
HETATM   25  C10 MIQ B 502      -4.139 -24.822   6.023  1.00147.44     0.187 C 
HETATM   26  C11 MIQ B 502      -3.208 -23.614   6.026  1.00144.08     0.149 C 
ENDBRANCH   5  21
TORSDOF 2
ENDMDL
