MODEL 1
REMARK VINA RESULT:      -7.7      0.000      0.000
REMARK  2 active torsions:
REMARK  status: ('A' for Active; 'I' for Inactive)
REMARK    1  A    between atoms: C5_5  and  N6_21 
REMARK    2  A    between atoms: C18_14  and  N17_19 
ROOT
HETATM    1  O1  MIQ B 502       3.012 -18.728  -7.974  1.00142.91    -0.171 OA
HETATM    2  C2  MIQ B 502       2.161 -18.161  -7.023  1.00141.17     0.195 A 
HETATM    3  C3  MIQ B 502       2.530 -17.029  -6.013  1.00141.71     0.035 A 
HETATM    4  C4  MIQ B 502       3.769 -16.257  -5.755  1.00142.86     0.046 A 
HETATM    5  C5  MIQ B 502       3.797 -15.264  -4.744  1.00139.53     0.031 A 
HETATM    6  C12 MIQ B 502       2.602 -15.001  -3.955  1.00139.38     0.030 A 
HETATM    7  C13 MIQ B 502       1.413 -15.740  -4.203  1.00141.18     0.019 A 
HETATM    8  C14 MIQ B 502       1.389 -16.779  -5.268  1.00138.77     0.033 A 
HETATM    9  C15 MIQ B 502       0.305 -17.763  -5.819  1.00142.10     0.195 A 
HETATM   10  N17 MIQ B 502       0.893 -18.451  -6.784  1.00139.42    -0.288 N 
HETATM   11  O16 MIQ B 502      -1.013 -17.887  -5.377  1.00148.93    -0.171 OA
ENDROOT
BRANCH  10  12
HETATM   12  C18 MIQ B 502       0.184 -19.480  -7.521  1.00139.82     0.187 C 
HETATM   13  C19 MIQ B 502       0.997 -20.776  -7.414  1.00140.06     0.247 C 
HETATM   14  O25 MIQ B 502       1.343 -21.153  -6.351  1.00143.95    -0.271 OA
HETATM   15  N20 MIQ B 502       1.350 -21.554  -8.584  1.00140.02    -0.296 N 
HETATM   16  H13 MIQ B 502       1.887 -22.395  -8.502  1.00142.77     0.171 HD
HETATM   17  C21 MIQ B 502       0.926 -21.067  -9.871  1.00142.22     0.224 C 
HETATM   18  C22 MIQ B 502       0.872 -19.562 -10.046  1.00139.52     0.106 C 
HETATM   19  O24 MIQ B 502       0.631 -21.807 -10.745  1.00146.13    -0.273 OA
HETATM   20  C23 MIQ B 502      -0.052 -19.035  -8.963  1.00139.15     0.045 C 
ENDBRANCH  10  12
BRANCH   5  21
HETATM   21  N6  MIQ B 502       5.022 -14.527  -4.492  1.00140.95    -0.377 N 
HETATM   22  C7  MIQ B 502       6.187 -15.256  -4.021  1.00142.12     0.149 C 
HETATM   23  C8  MIQ B 502       7.125 -14.368  -3.213  1.00144.10     0.187 C 
HETATM   24  O9  MIQ B 502       7.396 -13.151  -3.840  1.00148.65    -0.388 OA
HETATM   25  C10 MIQ B 502       6.668 -12.757  -4.966  1.00147.44     0.187 C 
HETATM   26  C11 MIQ B 502       5.222 -13.223  -5.099  1.00144.08     0.149 C 
ENDBRANCH   5  21
TORSDOF 2
ENDMDL
MODEL 2
REMARK VINA RESULT:      -6.9      1.721      2.399
REMARK  2 active torsions:
REMARK  status: ('A' for Active; 'I' for Inactive)
REMARK    1  A    between atoms: C5_5  and  N6_21 
REMARK    2  A    between atoms: C18_14  and  N17_19 
ROOT
HETATM    1  O1  MIQ B 502       3.093 -18.306  -8.248  1.00142.91    -0.171 OA
HETATM    2  C2  MIQ B 502       2.321 -17.861  -7.173  1.00141.17     0.195 A 
HETATM    3  C3  MIQ B 502       2.746 -16.797  -6.110  1.00141.71     0.035 A 
HETATM    4  C4  MIQ B 502       3.973 -15.990  -5.911  1.00142.86     0.046 A 
HETATM    5  C5  MIQ B 502       4.065 -15.083  -4.826  1.00139.53     0.031 A 
HETATM    6  C12 MIQ B 502       2.948 -14.943  -3.903  1.00139.38     0.030 A 
HETATM    7  C13 MIQ B 502       1.771 -15.716  -4.095  1.00141.18     0.019 A 
HETATM    8  C14 MIQ B 502       1.679 -16.666  -5.237  1.00138.77     0.033 A 
HETATM    9  C15 MIQ B 502       0.584 -17.652  -5.761  1.00142.10     0.195 A 
HETATM   10  N17 MIQ B 502       1.097 -18.230  -6.835  1.00139.42    -0.288 N 
HETATM   11  O16 MIQ B 502      -0.675 -17.876  -5.202  1.00148.93    -0.171 OA
ENDROOT
BRANCH  10  12
HETATM   12  C18 MIQ B 502       0.358 -19.229  -7.583  1.00139.82     0.187 C 
HETATM   13  C19 MIQ B 502      -1.107 -18.781  -7.642  1.00140.06     0.247 C 
HETATM   14  O25 MIQ B 502      -1.360 -17.686  -8.001  1.00143.95    -0.271 OA
HETATM   15  N20 MIQ B 502      -2.193 -19.667  -7.274  1.00140.02    -0.296 N 
HETATM   16  H13 MIQ B 502      -3.145 -19.359  -7.311  1.00142.77     0.171 HD
HETATM   17  C21 MIQ B 502      -1.858 -20.995  -6.830  1.00142.22     0.224 C 
HETATM   18  C22 MIQ B 502      -0.562 -21.148  -6.057  1.00139.52     0.106 C 
HETATM   19  O24 MIQ B 502      -2.558 -21.919  -7.061  1.00146.13    -0.273 OA
HETATM   20  C23 MIQ B 502       0.539 -20.609  -6.951  1.00139.15     0.045 C 
ENDBRANCH  10  12
BRANCH   5  21
HETATM   21  N6  MIQ B 502       5.279 -14.310  -4.634  1.00140.95    -0.377 N 
HETATM   22  C7  MIQ B 502       5.251 -12.888  -4.930  1.00142.12     0.149 C 
HETATM   23  C8  MIQ B 502       6.627 -12.358  -5.310  1.00144.10     0.187 C 
HETATM   24  O9  MIQ B 502       7.629 -12.764  -4.427  1.00148.65    -0.388 OA
HETATM   25  C10 MIQ B 502       7.368 -13.739  -3.460  1.00147.44     0.187 C 
HETATM   26  C11 MIQ B 502       6.332 -14.814  -3.770  1.00144.08     0.149 C 
ENDBRANCH   5  21
TORSDOF 2
ENDMDL
MODEL 3
REMARK VINA RESULT:      -6.5      3.846      7.503
REMARK  2 active torsions:
REMARK  status: ('A' for Active; 'I' for Inactive)
REMARK    1  A    between atoms: C5_5  and  N6_21 
REMARK    2  A    between atoms: C18_14  and  N17_19 
ROOT
HETATM    1  O1  MIQ B 502      -0.174 -16.276  -8.202  1.00142.91    -0.171 OA
HETATM    2  C2  MIQ B 502       0.212 -17.418  -7.496  1.00141.17     0.195 A 
HETATM    3  C3  MIQ B 502       0.944 -18.664  -8.089  1.00141.71     0.035 A 
HETATM    4  C4  MIQ B 502       1.422 -19.014  -9.447  1.00142.86     0.046 A 
HETATM    5  C5  MIQ B 502       2.070 -20.254  -9.682  1.00139.53     0.031 A 
HETATM    6  C12 MIQ B 502       2.265 -21.187  -8.581  1.00139.38     0.030 A 
HETATM    7  C13 MIQ B 502       1.807 -20.851  -7.278  1.00141.18     0.019 A 
HETATM    8  C14 MIQ B 502       1.130 -19.547  -7.038  1.00138.77     0.033 A 
HETATM    9  C15 MIQ B 502       0.512 -18.844  -5.785  1.00142.10     0.195 A 
HETATM   10  N17 MIQ B 502       0.052 -17.679  -6.210  1.00139.42    -0.288 N 
HETATM   11  O16 MIQ B 502       0.457 -19.350  -4.485  1.00148.93    -0.171 OA
ENDROOT
BRANCH  10  12
HETATM   12  C18 MIQ B 502      -0.611 -16.753  -5.311  1.00139.82     0.187 C 
HETATM   13  C19 MIQ B 502       0.329 -16.498  -4.126  1.00140.06     0.247 C 
HETATM   14  O25 MIQ B 502       1.447 -16.185  -4.335  1.00143.95    -0.271 OA
HETATM   15  N20 MIQ B 502      -0.120 -16.625  -2.755  1.00140.02    -0.296 N 
HETATM   16  H13 MIQ B 502       0.505 -16.462  -1.990  1.00142.77     0.171 HD
HETATM   17  C21 MIQ B 502      -1.486 -17.018  -2.526  1.00142.22     0.224 C 
HETATM   18  C22 MIQ B 502      -2.099 -17.971  -3.534  1.00139.52     0.106 C 
HETATM   19  O24 MIQ B 502      -2.099 -16.612  -1.600  1.00146.13    -0.273 OA
HETATM   20  C23 MIQ B 502      -1.973 -17.302  -4.891  1.00139.15     0.045 C 
ENDBRANCH  10  12
BRANCH   5  21
HETATM   21  N6  MIQ B 502       2.520 -20.590 -11.020  1.00140.95    -0.377 N 
HETATM   22  C7  MIQ B 502       2.898 -19.512 -11.917  1.00142.12     0.149 C 
HETATM   23  C8  MIQ B 502       2.719 -19.900 -13.379  1.00144.10     0.187 C 
HETATM   24  O9  MIQ B 502       3.268 -21.147 -13.681  1.00148.65    -0.388 OA
HETATM   25  C10 MIQ B 502       3.706 -21.994 -12.660  1.00147.44     0.187 C 
HETATM   26  C11 MIQ B 502       3.004 -21.929 -11.308  1.00144.08     0.149 C 
ENDBRANCH   5  21
TORSDOF 2
ENDMDL
MODEL 4
REMARK VINA RESULT:      -6.2      2.582      4.265
REMARK  2 active torsions:
REMARK  status: ('A' for Active; 'I' for Inactive)
REMARK    1  A    between atoms: C5_5  and  N6_21 
REMARK    2  A    between atoms: C18_14  and  N17_19 
ROOT
HETATM    1  O1  MIQ B 502       3.632 -19.349 -10.733  1.00142.91    -0.171 OA
HETATM    2  C2  MIQ B 502       2.408 -19.572 -10.098  1.00141.17     0.195 A 
HETATM    3  C3  MIQ B 502       1.935 -18.932  -8.754  1.00141.71     0.035 A 
HETATM    4  C4  MIQ B 502       2.556 -17.976  -7.807  1.00142.86     0.046 A 
HETATM    5  C5  MIQ B 502       1.861 -17.568  -6.640  1.00139.53     0.031 A 
HETATM    6  C12 MIQ B 502       0.529 -18.093  -6.373  1.00139.38     0.030 A 
HETATM    7  C13 MIQ B 502      -0.067 -19.008  -7.281  1.00141.18     0.019 A 
HETATM    8  C14 MIQ B 502       0.667 -19.431  -8.506  1.00138.77     0.033 A 
HETATM    9  C15 MIQ B 502       0.350 -20.386  -9.702  1.00142.10     0.195 A 
HETATM   10  N17 MIQ B 502       1.412 -20.348 -10.491  1.00139.42    -0.288 N 
HETATM   11  O16 MIQ B 502      -0.817 -21.127  -9.893  1.00148.93    -0.171 OA
ENDROOT
BRANCH  10  12
HETATM   12  C18 MIQ B 502       1.480 -21.135 -11.708  1.00139.82     0.187 C 
HETATM   13  C19 MIQ B 502       2.771 -21.961 -11.659  1.00140.06     0.247 C 
HETATM   14  O25 MIQ B 502       3.004 -22.610 -10.702  1.00143.95    -0.271 OA
HETATM   15  N20 MIQ B 502       3.712 -21.972 -12.760  1.00140.02    -0.296 N 
HETATM   16  H13 MIQ B 502       4.555 -22.511 -12.713  1.00142.77     0.171 HD
HETATM   17  C21 MIQ B 502       3.411 -21.164 -13.914  1.00142.22     0.224 C 
HETATM   18  C22 MIQ B 502       2.675 -19.863 -13.660  1.00139.52     0.106 C 
HETATM   19  O24 MIQ B 502       3.719 -21.503 -15.003  1.00146.13    -0.273 OA
HETATM   20  C23 MIQ B 502       1.393 -20.227 -12.934  1.00139.15     0.045 C 
ENDBRANCH  10  12
BRANCH   5  21
HETATM   21  N6  MIQ B 502       2.487 -16.643  -5.714  1.00140.95    -0.377 N 
HETATM   22  C7  MIQ B 502       3.717 -15.982  -6.117  1.00142.12     0.149 C 
HETATM   23  C8  MIQ B 502       4.572 -15.593  -4.918  1.00144.10     0.187 C 
HETATM   24  O9  MIQ B 502       3.845 -14.942  -3.920  1.00148.65    -0.388 OA
HETATM   25  C10 MIQ B 502       2.450 -14.899  -3.975  1.00147.44     0.187 C 
HETATM   26  C11 MIQ B 502       1.709 -16.057  -4.637  1.00144.08     0.149 C 
ENDBRANCH   5  21
TORSDOF 2
ENDMDL
MODEL 5
REMARK VINA RESULT:      -6.2      3.652      7.520
REMARK  2 active torsions:
REMARK  status: ('A' for Active; 'I' for Inactive)
REMARK    1  A    between atoms: C5_5  and  N6_21 
REMARK    2  A    between atoms: C18_14  and  N17_19 
ROOT
HETATM    1  O1  MIQ B 502       1.217 -16.100  -8.931  1.00142.91    -0.171 OA
HETATM    2  C2  MIQ B 502       1.233 -17.384  -8.381  1.00141.17     0.195 A 
HETATM    3  C3  MIQ B 502       1.741 -18.683  -9.084  1.00141.71     0.035 A 
HETATM    4  C4  MIQ B 502       2.314 -18.959 -10.423  1.00142.86     0.046 A 
HETATM    5  C5  MIQ B 502       2.692 -20.278 -10.783  1.00139.53     0.031 A 
HETATM    6  C12 MIQ B 502       2.515 -21.365  -9.831  1.00139.38     0.030 A 
HETATM    7  C13 MIQ B 502       1.966 -21.100  -8.547  1.00141.18     0.019 A 
HETATM    8  C14 MIQ B 502       1.574 -19.714  -8.174  1.00138.77     0.033 A 
HETATM    9  C15 MIQ B 502       0.960 -19.051  -6.898  1.00142.10     0.195 A 
HETATM   10  N17 MIQ B 502       0.839 -17.764  -7.177  1.00139.42    -0.288 N 
HETATM   11  O16 MIQ B 502       0.611 -19.693  -5.709  1.00148.93    -0.171 OA
ENDROOT
BRANCH  10  12
HETATM   12  C18 MIQ B 502       0.282 -16.829  -6.217  1.00139.82     0.187 C 
HETATM   13  C19 MIQ B 502       1.128 -16.911  -4.940  1.00140.06     0.247 C 
HETATM   14  O25 MIQ B 502       2.301 -16.815  -5.019  1.00143.95    -0.271 OA
HETATM   15  N20 MIQ B 502       0.526 -17.098  -3.636  1.00140.02    -0.296 N 
HETATM   16  H13 MIQ B 502       1.090 -17.157  -2.811  1.00142.77     0.171 HD
HETATM   17  C21 MIQ B 502      -0.907 -17.224  -3.566  1.00142.22     0.224 C 
HETATM   18  C22 MIQ B 502      -1.588 -17.908  -4.736  1.00139.52     0.106 C 
HETATM   19  O24 MIQ B 502      -1.519 -16.809  -2.645  1.00146.13    -0.273 OA
HETATM   20  C23 MIQ B 502      -1.196 -17.130  -5.979  1.00139.15     0.045 C 
ENDBRANCH  10  12
BRANCH   5  21
HETATM   21  N6  MIQ B 502       3.239 -20.536 -12.102  1.00140.95    -0.377 N 
HETATM   22  C7  MIQ B 502       3.931 -21.792 -12.333  1.00142.12     0.149 C 
HETATM   23  C8  MIQ B 502       4.961 -21.677 -13.450  1.00144.10     0.187 C 
HETATM   24  O9  MIQ B 502       4.455 -21.055 -14.593  1.00148.65    -0.388 OA
HETATM   25  C10 MIQ B 502       3.210 -20.422 -14.562  1.00147.44     0.187 C 
HETATM   26  C11 MIQ B 502       2.739 -19.801 -13.251  1.00144.08     0.149 C 
ENDBRANCH   5  21
TORSDOF 2
ENDMDL
MODEL 6
REMARK VINA RESULT:      -6.1     26.164     27.273
REMARK  2 active torsions:
REMARK  status: ('A' for Active; 'I' for Inactive)
REMARK    1  A    between atoms: C5_5  and  N6_21 
REMARK    2  A    between atoms: C18_14  and  N17_19 
ROOT
HETATM    1  O1  MIQ B 502      27.271  -8.313 -10.490  1.00142.91    -0.171 OA
HETATM    2  C2  MIQ B 502      27.379  -7.653  -9.264  1.00141.17     0.195 A 
HETATM    3  C3  MIQ B 502      26.875  -6.209  -8.946  1.00141.71     0.035 A 
HETATM    4  C4  MIQ B 502      26.186  -5.171  -9.749  1.00142.86     0.046 A 
HETATM    5  C5  MIQ B 502      25.846  -3.923  -9.167  1.00139.53     0.031 A 
HETATM    6  C12 MIQ B 502      26.176  -3.662  -7.773  1.00139.38     0.030 A 
HETATM    7  C13 MIQ B 502      26.836  -4.658  -7.003  1.00141.18     0.019 A 
HETATM    8  C14 MIQ B 502      27.188  -5.967  -7.619  1.00138.77     0.033 A 
HETATM    9  C15 MIQ B 502      27.890  -7.268  -7.109  1.00142.10     0.195 A 
HETATM   10  N17 MIQ B 502      27.912  -8.098  -8.139  1.00139.42    -0.288 N 
HETATM   11  O16 MIQ B 502      28.391  -7.499  -5.827  1.00148.93    -0.171 OA
ENDROOT
BRANCH  10  12
HETATM   12  C18 MIQ B 502      28.511  -9.415  -8.037  1.00139.82     0.187 C 
HETATM   13  C19 MIQ B 502      29.487  -9.578  -9.208  1.00140.06     0.247 C 
HETATM   14  O25 MIQ B 502      30.295  -8.742  -9.406  1.00143.95    -0.271 OA
HETATM   15  N20 MIQ B 502      29.449 -10.735 -10.079  1.00140.02    -0.296 N 
HETATM   16  H13 MIQ B 502      30.087 -10.827 -10.845  1.00142.77     0.171 HD
HETATM   17  C21 MIQ B 502      28.447 -11.738  -9.824  1.00142.22     0.224 C 
HETATM   18  C22 MIQ B 502      27.118 -11.250  -9.281  1.00139.52     0.106 C 
HETATM   19  O24 MIQ B 502      28.654 -12.884 -10.025  1.00146.13    -0.273 OA
HETATM   20  C23 MIQ B 502      27.427 -10.491  -8.003  1.00139.15     0.045 C 
ENDBRANCH  10  12
BRANCH   5  21
HETATM   21  N6  MIQ B 502      25.185  -2.910  -9.968  1.00140.95    -0.377 N 
HETATM   22  C7  MIQ B 502      25.779  -2.532 -11.239  1.00142.12     0.149 C 
HETATM   23  C8  MIQ B 502      25.409  -1.110 -11.639  1.00144.10     0.187 C 
HETATM   24  O9  MIQ B 502      24.043  -0.849 -11.518  1.00148.65    -0.388 OA
HETATM   25  C10 MIQ B 502      23.203  -1.759 -10.872  1.00147.44     0.187 C 
HETATM   26  C11 MIQ B 502      23.780  -2.613  -9.747  1.00144.08     0.149 C 
ENDBRANCH   5  21
TORSDOF 2
ENDMDL
MODEL 7
REMARK VINA RESULT:      -6.0     25.935     27.878
REMARK  2 active torsions:
REMARK  status: ('A' for Active; 'I' for Inactive)
REMARK    1  A    between atoms: C5_5  and  N6_21 
REMARK    2  A    between atoms: C18_14  and  N17_19 
ROOT
HETATM    1  O1  MIQ B 502      30.875 -16.283  -7.433  1.00142.91    -0.171 OA
HETATM    2  C2  MIQ B 502      30.340 -16.607  -8.681  1.00141.17     0.195 A 
HETATM    3  C3  MIQ B 502      29.513 -15.657  -9.606  1.00141.71     0.035 A 
HETATM    4  C4  MIQ B 502      29.071 -14.247  -9.484  1.00142.86     0.046 A 
HETATM    5  C5  MIQ B 502      28.313 -13.642 -10.517  1.00139.53     0.031 A 
HETATM    6  C12 MIQ B 502      27.968 -14.410 -11.705  1.00139.38     0.030 A 
HETATM    7  C13 MIQ B 502      28.392 -15.761 -11.823  1.00141.18     0.019 A 
HETATM    8  C14 MIQ B 502      29.190 -16.391 -10.735  1.00138.77     0.033 A 
HETATM    9  C15 MIQ B 502      29.820 -17.804 -10.511  1.00142.10     0.195 A 
HETATM   10  N17 MIQ B 502      30.419 -17.754  -9.333  1.00139.42    -0.288 N 
HETATM   11  O16 MIQ B 502      29.757 -18.895 -11.381  1.00148.93    -0.171 OA
ENDROOT
BRANCH  10  12
HETATM   12  C18 MIQ B 502      31.107 -18.908  -8.784  1.00139.82     0.187 C 
HETATM   13  C19 MIQ B 502      30.501 -19.202  -7.406  1.00140.06     0.247 C 
HETATM   14  O25 MIQ B 502      29.330 -19.295  -7.300  1.00143.95    -0.271 OA
HETATM   15  N20 MIQ B 502      31.327 -19.373  -6.229  1.00140.02    -0.296 N 
HETATM   16  H13 MIQ B 502      30.919 -19.558  -5.334  1.00142.77     0.171 HD
HETATM   17  C21 MIQ B 502      32.754 -19.244  -6.382  1.00142.22     0.224 C 
HETATM   18  C22 MIQ B 502      33.241 -18.248  -7.417  1.00139.52     0.106 C 
HETATM   19  O24 MIQ B 502      33.505 -19.887  -5.735  1.00146.13    -0.273 OA
HETATM   20  C23 MIQ B 502      32.613 -18.657  -8.737  1.00139.15     0.045 C 
ENDBRANCH  10  12
BRANCH   5  21
HETATM   21  N6  MIQ B 502      27.875 -12.265 -10.378  1.00140.95    -0.377 N 
HETATM   22  C7  MIQ B 502      27.299 -11.600 -11.534  1.00142.12     0.149 C 
HETATM   23  C8  MIQ B 502      27.485 -10.089 -11.471  1.00144.10     0.187 C 
HETATM   24  O9  MIQ B 502      27.131  -9.549 -10.233  1.00148.65    -0.388 OA
HETATM   25  C10 MIQ B 502      26.870 -10.385  -9.145  1.00147.44     0.187 C 
HETATM   26  C11 MIQ B 502      27.600 -11.721  -9.060  1.00144.08     0.149 C 
ENDBRANCH   5  21
TORSDOF 2
ENDMDL
MODEL 8
REMARK VINA RESULT:      -6.0      3.861      8.136
REMARK  2 active torsions:
REMARK  status: ('A' for Active; 'I' for Inactive)
REMARK    1  A    between atoms: C5_5  and  N6_21 
REMARK    2  A    between atoms: C18_14  and  N17_19 
ROOT
HETATM    1  O1  MIQ B 502       0.074 -19.767  -4.822  1.00142.91    -0.171 OA
HETATM    2  C2  MIQ B 502       0.016 -19.224  -6.107  1.00141.17     0.195 A 
HETATM    3  C3  MIQ B 502       0.369 -19.963  -7.437  1.00141.71     0.035 A 
HETATM    4  C4  MIQ B 502       0.830 -21.337  -7.748  1.00142.86     0.046 A 
HETATM    5  C5  MIQ B 502       1.072 -21.726  -9.090  1.00139.53     0.031 A 
HETATM    6  C12 MIQ B 502       0.865 -20.769 -10.168  1.00139.38     0.030 A 
HETATM    7  C13 MIQ B 502       0.422 -19.452  -9.870  1.00141.18     0.019 A 
HETATM    8  C14 MIQ B 502       0.168 -19.050  -8.459  1.00138.77     0.033 A 
HETATM    9  C15 MIQ B 502      -0.313 -17.737  -7.760  1.00142.10     0.195 A 
HETATM   10  N17 MIQ B 502      -0.345 -18.004  -6.465  1.00139.42    -0.288 N 
HETATM   11  O16 MIQ B 502      -0.639 -16.530  -8.382  1.00148.93    -0.171 OA
ENDROOT
BRANCH  10  12
HETATM   12  C18 MIQ B 502      -0.736 -16.999  -5.494  1.00139.82     0.187 C 
HETATM   13  C19 MIQ B 502       0.385 -16.893  -4.453  1.00140.06     0.247 C 
HETATM   14  O25 MIQ B 502       1.497 -16.744  -4.817  1.00143.95    -0.271 OA
HETATM   15  N20 MIQ B 502       0.116 -16.965  -3.031  1.00140.02    -0.296 N 
HETATM   16  H13 MIQ B 502       0.857 -16.901  -2.362  1.00142.77     0.171 HD
HETATM   17  C21 MIQ B 502      -1.248 -17.157  -2.612  1.00142.22     0.224 C 
HETATM   18  C22 MIQ B 502      -2.126 -18.002  -3.515  1.00139.52     0.106 C 
HETATM   19  O24 MIQ B 502      -1.662 -16.674  -1.615  1.00146.13    -0.273 OA
HETATM   20  C23 MIQ B 502      -2.093 -17.348  -4.884  1.00139.15     0.045 C 
ENDBRANCH  10  12
BRANCH   5  21
HETATM   21  N6  MIQ B 502       1.537 -23.070  -9.379  1.00140.95    -0.377 N 
HETATM   22  C7  MIQ B 502       2.461 -23.263 -10.483  1.00142.12     0.149 C 
HETATM   23  C8  MIQ B 502       2.360 -24.664 -11.071  1.00144.10     0.187 C 
HETATM   24  O9  MIQ B 502       2.376 -25.665 -10.097  1.00148.65    -0.388 OA
HETATM   25  C10 MIQ B 502       2.260 -25.337  -8.744  1.00147.44     0.187 C 
HETATM   26  C11 MIQ B 502       1.454 -24.101  -8.359  1.00144.08     0.149 C 
ENDBRANCH   5  21
TORSDOF 2
ENDMDL
MODEL 9
REMARK VINA RESULT:      -6.0      3.370      8.006
REMARK  2 active torsions:
REMARK  status: ('A' for Active; 'I' for Inactive)
REMARK    1  A    between atoms: C5_5  and  N6_21 
REMARK    2  A    between atoms: C18_14  and  N17_19 
ROOT
HETATM    1  O1  MIQ B 502       1.956 -17.535  -8.969  1.00142.91    -0.171 OA
HETATM    2  C2  MIQ B 502       1.801 -18.915  -8.826  1.00141.17     0.195 A 
HETATM    3  C3  MIQ B 502       2.264 -20.006  -9.844  1.00141.71     0.035 A 
HETATM    4  C4  MIQ B 502       2.949 -19.949 -11.157  1.00142.86     0.046 A 
HETATM    5  C5  MIQ B 502       3.245 -21.142 -11.863  1.00139.53     0.031 A 
HETATM    6  C12 MIQ B 502       2.874 -22.430 -11.294  1.00139.38     0.030 A 
HETATM    7  C13 MIQ B 502       2.219 -22.485 -10.034  1.00141.18     0.019 A 
HETATM    8  C14 MIQ B 502       1.912 -21.229  -9.296  1.00138.77     0.033 A 
HETATM    9  C15 MIQ B 502       1.228 -20.896  -7.930  1.00142.10     0.195 A 
HETATM   10  N17 MIQ B 502       1.251 -19.578  -7.823  1.00139.42    -0.288 N 
HETATM   11  O16 MIQ B 502       0.700 -21.808  -7.016  1.00148.93    -0.171 OA
ENDROOT
BRANCH  10  12
HETATM   12  C18 MIQ B 502       0.680 -18.902  -6.673  1.00139.82     0.187 C 
HETATM   13  C19 MIQ B 502      -0.275 -17.820  -7.192  1.00140.06     0.247 C 
HETATM   14  O25 MIQ B 502      -1.099 -18.111  -7.985  1.00143.95    -0.271 OA
HETATM   15  N20 MIQ B 502      -0.199 -16.449  -6.731  1.00140.02    -0.296 N 
HETATM   16  H13 MIQ B 502      -0.824 -15.751  -7.083  1.00142.77     0.171 HD
HETATM   17  C21 MIQ B 502       0.822 -16.116  -5.771  1.00142.22     0.224 C 
HETATM   18  C22 MIQ B 502       2.132 -16.872  -5.879  1.00139.52     0.106 C 
HETATM   19  O24 MIQ B 502       0.642 -15.297  -4.938  1.00146.13    -0.273 OA
HETATM   20  C23 MIQ B 502       1.788 -18.347  -5.778  1.00139.15     0.045 C 
ENDBRANCH  10  12
BRANCH   5  21
HETATM   21  N6  MIQ B 502       3.903 -21.071 -13.155  1.00140.95    -0.377 N 
HETATM   22  C7  MIQ B 502       4.881 -22.091 -13.494  1.00142.12     0.149 C 
HETATM   23  C8  MIQ B 502       5.910 -21.582 -14.495  1.00144.10     0.187 C 
HETATM   24  O9  MIQ B 502       5.332 -20.925 -15.582  1.00148.65    -0.388 OA
HETATM   25  C10 MIQ B 502       3.973 -20.599 -15.571  1.00147.44     0.187 C 
HETATM   26  C11 MIQ B 502       3.305 -20.303 -14.233  1.00144.08     0.149 C 
ENDBRANCH   5  21
TORSDOF 2
ENDMDL
