MODEL 1
REMARK VINA RESULT:      -7.2      0.000      0.000
REMARK  2 active torsions:
REMARK  status: ('A' for Active; 'I' for Inactive)
REMARK    1  A    between atoms: C5_5  and  N6_21 
REMARK    2  A    between atoms: C18_14  and  N17_19 
ROOT
HETATM    1  O1  MIQ B 502      -6.246   2.915  14.618  1.00142.91    -0.171 OA
HETATM    2  C2  MIQ B 502      -6.823   3.288  15.834  1.00141.17     0.195 A 
HETATM    3  C3  MIQ B 502      -8.153   4.086  16.017  1.00141.71     0.035 A 
HETATM    4  C4  MIQ B 502      -9.143   4.649  15.067  1.00142.86     0.046 A 
HETATM    5  C5  MIQ B 502     -10.284   5.340  15.547  1.00139.53     0.031 A 
HETATM    6  C12 MIQ B 502     -10.484   5.496  16.981  1.00139.38     0.030 A 
HETATM    7  C13 MIQ B 502      -9.536   4.955  17.891  1.00141.18     0.019 A 
HETATM    8  C14 MIQ B 502      -8.341   4.229  17.382  1.00138.77     0.033 A 
HETATM    9  C15 MIQ B 502      -7.121   3.515  18.050  1.00142.10     0.195 A 
HETATM   10  N17 MIQ B 502      -6.382   3.049  17.057  1.00139.42    -0.288 N 
HETATM   11  O16 MIQ B 502      -6.867   3.400  19.418  1.00148.93    -0.171 OA
ENDROOT
BRANCH  10  12
HETATM   12  C18 MIQ B 502      -5.144   2.334  17.305  1.00139.82     0.187 C 
HETATM   13  C19 MIQ B 502      -4.057   2.958  16.422  1.00140.06     0.247 C 
HETATM   14  O25 MIQ B 502      -3.901   4.127  16.440  1.00143.95    -0.271 OA
HETATM   15  N20 MIQ B 502      -3.211   2.151  15.567  1.00140.02    -0.296 N 
HETATM   16  H13 MIQ B 502      -2.509   2.572  14.990  1.00142.77     0.171 HD
HETATM   17  C21 MIQ B 502      -3.427   0.728  15.553  1.00142.22     0.224 C 
HETATM   18  C22 MIQ B 502      -4.856   0.254  15.740  1.00139.52     0.106 C 
HETATM   19  O24 MIQ B 502      -2.533  -0.032  15.409  1.00146.13    -0.273 OA
HETATM   20  C23 MIQ B 502      -5.335   0.838  17.056  1.00139.15     0.045 C 
ENDBRANCH  10  12
BRANCH   5  21
HETATM   21  N6  MIQ B 502     -11.237   5.899  14.606  1.00140.95    -0.377 N 
HETATM   22  C7  MIQ B 502     -10.745   6.780  13.561  1.00142.12     0.149 C 
HETATM   23  C8  MIQ B 502     -11.814   7.759  13.093  1.00144.10     0.187 C 
HETATM   24  O9  MIQ B 502     -13.038   7.141  12.826  1.00148.65    -0.388 OA
HETATM   25  C10 MIQ B 502     -13.255   5.811  13.196  1.00147.44     0.187 C 
HETATM   26  C11 MIQ B 502     -12.533   5.269  14.426  1.00144.08     0.149 C 
ENDBRANCH   5  21
TORSDOF 2
ENDMDL
MODEL 2
REMARK VINA RESULT:      -7.0      3.660      9.370
REMARK  2 active torsions:
REMARK  status: ('A' for Active; 'I' for Inactive)
REMARK    1  A    between atoms: C5_5  and  N6_21 
REMARK    2  A    between atoms: C18_14  and  N17_19 
ROOT
HETATM    1  O1  MIQ B 502      -3.183   1.583  15.194  1.00142.91    -0.171 OA
HETATM    2  C2  MIQ B 502      -4.224   0.848  15.766  1.00141.17     0.195 A 
HETATM    3  C3  MIQ B 502      -4.253  -0.700  15.974  1.00141.71     0.035 A 
HETATM    4  C4  MIQ B 502      -3.292  -1.787  15.672  1.00142.86     0.046 A 
HETATM    5  C5  MIQ B 502      -3.610  -3.132  15.989  1.00139.53     0.031 A 
HETATM    6  C12 MIQ B 502      -4.886  -3.446  16.614  1.00139.38     0.030 A 
HETATM    7  C13 MIQ B 502      -5.807  -2.403  16.905  1.00141.18     0.019 A 
HETATM    8  C14 MIQ B 502      -5.468  -0.993  16.573  1.00138.77     0.033 A 
HETATM    9  C15 MIQ B 502      -6.196   0.381  16.737  1.00142.10     0.195 A 
HETATM   10  N17 MIQ B 502      -5.373   1.292  16.244  1.00139.42    -0.288 N 
HETATM   11  O16 MIQ B 502      -7.460   0.596  17.289  1.00148.93    -0.171 OA
ENDROOT
BRANCH  10  12
HETATM   12  C18 MIQ B 502      -5.730   2.698  16.216  1.00139.82     0.187 C 
HETATM   13  C19 MIQ B 502      -6.170   3.098  17.629  1.00140.06     0.247 C 
HETATM   14  O25 MIQ B 502      -5.472   2.839  18.545  1.00143.95    -0.271 OA
HETATM   15  N20 MIQ B 502      -7.418   3.791  17.873  1.00140.02    -0.296 N 
HETATM   16  H13 MIQ B 502      -7.698   4.041  18.801  1.00142.77     0.171 HD
HETATM   17  C21 MIQ B 502      -8.258   4.087  16.740  1.00142.22     0.224 C 
HETATM   18  C22 MIQ B 502      -8.246   3.083  15.604  1.00139.52     0.106 C 
HETATM   19  O24 MIQ B 502      -8.918   5.067  16.700  1.00146.13    -0.273 OA
HETATM   20  C23 MIQ B 502      -6.801   2.954  15.157  1.00139.15     0.045 C 
ENDBRANCH  10  12
BRANCH   5  21
HETATM   21  N6  MIQ B 502      -2.665  -4.189  15.674  1.00140.95    -0.377 N 
HETATM   22  C7  MIQ B 502      -3.164  -5.404  15.053  1.00142.12     0.149 C 
HETATM   23  C8  MIQ B 502      -2.280  -6.605  15.362  1.00144.10     0.187 C 
HETATM   24  O9  MIQ B 502      -0.922  -6.347  15.162  1.00148.65    -0.388 OA
HETATM   25  C10 MIQ B 502      -0.477  -5.042  14.933  1.00147.44     0.187 C 
HETATM   26  C11 MIQ B 502      -1.249  -3.887  15.561  1.00144.08     0.149 C 
ENDBRANCH   5  21
TORSDOF 2
ENDMDL
MODEL 3
REMARK VINA RESULT:      -6.9      4.923      8.953
REMARK  2 active torsions:
REMARK  status: ('A' for Active; 'I' for Inactive)
REMARK    1  A    between atoms: C5_5  and  N6_21 
REMARK    2  A    between atoms: C18_14  and  N17_19 
ROOT
HETATM    1  O1  MIQ B 502      -4.446   1.479  18.583  1.00142.91    -0.171 OA
HETATM    2  C2  MIQ B 502      -5.730   1.512  19.133  1.00141.17     0.195 A 
HETATM    3  C3  MIQ B 502      -6.176   0.848  20.475  1.00141.71     0.035 A 
HETATM    4  C4  MIQ B 502      -5.465   0.051  21.503  1.00142.86     0.046 A 
HETATM    5  C5  MIQ B 502      -6.157  -0.426  22.644  1.00139.53     0.031 A 
HETATM    6  C12 MIQ B 502      -7.573  -0.130  22.807  1.00139.38     0.030 A 
HETATM    7  C13 MIQ B 502      -8.255   0.635  21.822  1.00141.18     0.019 A 
HETATM    8  C14 MIQ B 502      -7.522   1.135  20.627  1.00138.77     0.033 A 
HETATM    9  C15 MIQ B 502      -7.914   1.983  19.373  1.00142.10     0.195 A 
HETATM   10  N17 MIQ B 502      -6.811   2.101  18.652  1.00139.42    -0.288 N 
HETATM   11  O16 MIQ B 502      -9.175   2.504  19.077  1.00148.93    -0.171 OA
ENDROOT
BRANCH  10  12
HETATM   12  C18 MIQ B 502      -6.803   2.822  17.393  1.00139.82     0.187 C 
HETATM   13  C19 MIQ B 502      -6.163   1.911  16.338  1.00140.06     0.247 C 
HETATM   14  O25 MIQ B 502      -6.561   0.808  16.211  1.00143.95    -0.271 OA
HETATM   15  N20 MIQ B 502      -5.085   2.370  15.485  1.00140.02    -0.296 N 
HETATM   16  H13 MIQ B 502      -4.671   1.764  14.805  1.00142.77     0.171 HD
HETATM   17  C21 MIQ B 502      -4.609   3.717  15.666  1.00142.22     0.224 C 
HETATM   18  C22 MIQ B 502      -4.642   4.268  17.079  1.00139.52     0.106 C 
HETATM   19  O24 MIQ B 502      -4.218   4.362  14.756  1.00146.13    -0.273 OA
HETATM   20  C23 MIQ B 502      -6.081   4.159  17.550  1.00139.15     0.045 C 
ENDBRANCH  10  12
BRANCH   5  21
HETATM   21  N6  MIQ B 502      -5.453  -1.218  23.636  1.00140.95    -0.377 N 
HETATM   22  C7  MIQ B 502      -6.229  -2.039  24.549  1.00142.12     0.149 C 
HETATM   23  C8  MIQ B 502      -5.497  -2.275  25.864  1.00144.10     0.187 C 
HETATM   24  O9  MIQ B 502      -4.171  -2.675  25.683  1.00148.65    -0.388 OA
HETATM   25  C10 MIQ B 502      -3.580  -2.613  24.419  1.00147.44     0.187 C 
HETATM   26  C11 MIQ B 502      -4.048  -1.537  23.446  1.00144.08     0.149 C 
ENDBRANCH   5  21
TORSDOF 2
ENDMDL
MODEL 4
REMARK VINA RESULT:      -6.8      4.980      8.513
REMARK  2 active torsions:
REMARK  status: ('A' for Active; 'I' for Inactive)
REMARK    1  A    between atoms: C5_5  and  N6_21 
REMARK    2  A    between atoms: C18_14  and  N17_19 
ROOT
HETATM    1  O1  MIQ B 502      -0.143  -1.345  15.057  1.00142.91    -0.171 OA
HETATM    2  C2  MIQ B 502      -1.244  -2.137  15.392  1.00141.17     0.195 A 
HETATM    3  C3  MIQ B 502      -2.694  -1.628  15.673  1.00141.71     0.035 A 
HETATM    4  C4  MIQ B 502      -3.320  -0.285  15.676  1.00142.86     0.046 A 
HETATM    5  C5  MIQ B 502      -4.698  -0.137  15.977  1.00139.53     0.031 A 
HETATM    6  C12 MIQ B 502      -5.501  -1.312  16.284  1.00139.38     0.030 A 
HETATM    7  C13 MIQ B 502      -4.901  -2.600  16.280  1.00141.18     0.019 A 
HETATM    8  C14 MIQ B 502      -3.455  -2.750  15.961  1.00138.77     0.033 A 
HETATM    9  C15 MIQ B 502      -2.472  -3.961  15.857  1.00142.10     0.195 A 
HETATM   10  N17 MIQ B 502      -1.296  -3.450  15.532  1.00139.42    -0.288 N 
HETATM   11  O16 MIQ B 502      -2.778  -5.307  16.067  1.00148.93    -0.171 OA
ENDROOT
BRANCH  10  12
HETATM   12  C18 MIQ B 502      -0.125  -4.291  15.364  1.00139.82     0.187 C 
HETATM   13  C19 MIQ B 502      -0.511  -5.450  14.437  1.00140.06     0.247 C 
HETATM   14  O25 MIQ B 502      -1.036  -5.214  13.407  1.00143.95    -0.271 OA
HETATM   15  N20 MIQ B 502      -0.245  -6.830  14.788  1.00140.02    -0.296 N 
HETATM   16  H13 MIQ B 502      -0.508  -7.578  14.177  1.00142.77     0.171 HD
HETATM   17  C21 MIQ B 502       0.387  -7.094  16.055  1.00142.22     0.224 C 
HETATM   18  C22 MIQ B 502       0.044  -6.155  17.195  1.00139.52     0.106 C 
HETATM   19  O24 MIQ B 502       1.138  -7.995  16.195  1.00146.13    -0.273 OA
HETATM   20  C23 MIQ B 502       0.396  -4.756  16.723  1.00139.15     0.045 C 
ENDBRANCH  10  12
BRANCH   5  21
HETATM   21  N6  MIQ B 502      -5.295   1.186  15.991  1.00140.95    -0.377 N 
HETATM   22  C7  MIQ B 502      -6.442   1.421  16.851  1.00142.12     0.149 C 
HETATM   23  C8  MIQ B 502      -7.326   2.545  16.325  1.00144.10     0.187 C 
HETATM   24  O9  MIQ B 502      -6.602   3.685  15.970  1.00148.65    -0.388 OA
HETATM   25  C10 MIQ B 502      -5.207   3.646  15.907  1.00147.44     0.187 C 
HETATM   26  C11 MIQ B 502      -4.530   2.332  15.531  1.00144.08     0.149 C 
ENDBRANCH   5  21
TORSDOF 2
ENDMDL
MODEL 5
REMARK VINA RESULT:      -6.8     12.552     18.112
REMARK  2 active torsions:
REMARK  status: ('A' for Active; 'I' for Inactive)
REMARK    1  A    between atoms: C5_5  and  N6_21 
REMARK    2  A    between atoms: C18_14  and  N17_19 
ROOT
HETATM    1  O1  MIQ B 502       0.585  -7.565  20.035  1.00142.91    -0.171 OA
HETATM    2  C2  MIQ B 502       1.497  -7.655  18.982  1.00141.17     0.195 A 
HETATM    3  C3  MIQ B 502       2.978  -8.141  19.083  1.00141.71     0.035 A 
HETATM    4  C4  MIQ B 502       3.819  -8.619  20.206  1.00142.86     0.046 A 
HETATM    5  C5  MIQ B 502       5.165  -9.003  19.980  1.00139.53     0.031 A 
HETATM    6  C12 MIQ B 502       5.723  -8.925  18.638  1.00139.38     0.030 A 
HETATM    7  C13 MIQ B 502       4.917  -8.467  17.561  1.00141.18     0.019 A 
HETATM    8  C14 MIQ B 502       3.503  -8.069  17.803  1.00138.77     0.033 A 
HETATM    9  C15 MIQ B 502       2.342  -7.536  16.902  1.00142.10     0.195 A 
HETATM   10  N17 MIQ B 502       1.306  -7.362  17.707  1.00139.42    -0.288 N 
HETATM   11  O16 MIQ B 502       2.394  -7.293  15.529  1.00148.93    -0.171 OA
ENDROOT
BRANCH  10  12
HETATM   12  C18 MIQ B 502       0.040  -6.855  17.212  1.00139.82     0.187 C 
HETATM   13  C19 MIQ B 502      -0.333  -7.665  15.964  1.00140.06     0.247 C 
HETATM   14  O25 MIQ B 502      -0.321  -8.843  16.018  1.00143.95    -0.271 OA
HETATM   15  N20 MIQ B 502      -0.706  -7.023  14.720  1.00140.02    -0.296 N 
HETATM   16  H13 MIQ B 502      -0.940  -7.564  13.911  1.00142.77     0.171 HD
HETATM   17  C21 MIQ B 502      -0.703  -5.584  14.676  1.00142.22     0.224 C 
HETATM   18  C22 MIQ B 502       0.342  -4.879  15.520  1.00139.52     0.106 C 
HETATM   19  O24 MIQ B 502      -1.480  -4.984  14.019  1.00146.13    -0.273 OA
HETATM   20  C23 MIQ B 502       0.135  -5.353  16.947  1.00139.15     0.045 C 
ENDBRANCH  10  12
BRANCH   5  21
HETATM   21  N6  MIQ B 502       5.981  -9.455  21.092  1.00140.95    -0.377 N 
HETATM   22  C7  MIQ B 502       5.686 -10.746  21.690  1.00142.12     0.149 C 
HETATM   23  C8  MIQ B 502       6.124 -10.811  23.147  1.00144.10     0.187 C 
HETATM   24  O9  MIQ B 502       7.425 -10.345  23.346  1.00148.65    -0.388 OA
HETATM   25  C10 MIQ B 502       8.105  -9.687  22.318  1.00147.44     0.187 C 
HETATM   26  C11 MIQ B 502       7.297  -8.878  21.309  1.00144.08     0.149 C 
ENDBRANCH   5  21
TORSDOF 2
ENDMDL
MODEL 6
REMARK VINA RESULT:      -6.7      4.795      8.909
REMARK  2 active torsions:
REMARK  status: ('A' for Active; 'I' for Inactive)
REMARK    1  A    between atoms: C5_5  and  N6_21 
REMARK    2  A    between atoms: C18_14  and  N17_19 
ROOT
HETATM    1  O1  MIQ B 502      -4.730   1.757  18.757  1.00142.91    -0.171 OA
HETATM    2  C2  MIQ B 502      -5.487   0.612  18.499  1.00141.17     0.195 A 
HETATM    3  C3  MIQ B 502      -5.972  -0.430  19.556  1.00141.71     0.035 A 
HETATM    4  C4  MIQ B 502      -5.813  -0.541  21.026  1.00142.86     0.046 A 
HETATM    5  C5  MIQ B 502      -6.385  -1.632  21.728  1.00139.53     0.031 A 
HETATM    6  C12 MIQ B 502      -7.133  -2.647  21.002  1.00139.38     0.030 A 
HETATM    7  C13 MIQ B 502      -7.287  -2.541  19.593  1.00141.18     0.019 A 
HETATM    8  C14 MIQ B 502      -6.686  -1.392  18.861  1.00138.77     0.033 A 
HETATM    9  C15 MIQ B 502      -6.645  -0.944  17.363  1.00142.10     0.195 A 
HETATM   10  N17 MIQ B 502      -5.948   0.180  17.338  1.00139.42    -0.288 N 
HETATM   11  O16 MIQ B 502      -7.225  -1.602  16.278  1.00148.93    -0.171 OA
ENDROOT
BRANCH  10  12
HETATM   12  C18 MIQ B 502      -5.688   0.882  16.095  1.00139.82     0.187 C 
HETATM   13  C19 MIQ B 502      -4.169   1.030  15.949  1.00140.06     0.247 C 
HETATM   14  O25 MIQ B 502      -3.483   0.077  16.068  1.00143.95    -0.271 OA
HETATM   15  N20 MIQ B 502      -3.550   2.308  15.664  1.00140.02    -0.296 N 
HETATM   16  H13 MIQ B 502      -2.556   2.393  15.578  1.00142.77     0.171 HD
HETATM   17  C21 MIQ B 502      -4.407   3.458  15.533  1.00142.22     0.224 C 
HETATM   18  C22 MIQ B 502      -5.651   3.482  16.400  1.00139.52     0.106 C 
HETATM   19  O24 MIQ B 502      -4.153   4.336  14.784  1.00146.13    -0.273 OA
HETATM   20  C23 MIQ B 502      -6.427   2.219  16.075  1.00139.15     0.045 C 
ENDBRANCH  10  12
BRANCH   5  21
HETATM   21  N6  MIQ B 502      -6.208  -1.735  23.165  1.00140.95    -0.377 N 
HETATM   22  C7  MIQ B 502      -6.559  -2.984  23.820  1.00142.12     0.149 C 
HETATM   23  C8  MIQ B 502      -6.943  -2.773  25.279  1.00144.10     0.187 C 
HETATM   24  O9  MIQ B 502      -6.032  -1.972  25.970  1.00148.65    -0.388 OA
HETATM   25  C10 MIQ B 502      -5.032  -1.281  25.282  1.00147.44     0.187 C 
HETATM   26  C11 MIQ B 502      -5.313  -0.822  23.854  1.00144.08     0.149 C 
ENDBRANCH   5  21
TORSDOF 2
ENDMDL
MODEL 7
REMARK VINA RESULT:      -6.7      3.132      8.708
REMARK  2 active torsions:
REMARK  status: ('A' for Active; 'I' for Inactive)
REMARK    1  A    between atoms: C5_5  and  N6_21 
REMARK    2  A    between atoms: C18_14  and  N17_19 
ROOT
HETATM    1  O1  MIQ B 502      -8.273   1.010  16.700  1.00142.91    -0.171 OA
HETATM    2  C2  MIQ B 502      -6.994   1.350  16.255  1.00141.17     0.195 A 
HETATM    3  C3  MIQ B 502      -5.770   0.387  16.141  1.00141.71     0.035 A 
HETATM    4  C4  MIQ B 502      -5.577  -1.054  16.432  1.00142.86     0.046 A 
HETATM    5  C5  MIQ B 502      -4.315  -1.665  16.222  1.00139.53     0.031 A 
HETATM    6  C12 MIQ B 502      -3.204  -0.871  15.716  1.00139.38     0.030 A 
HETATM    7  C13 MIQ B 502      -3.389   0.509  15.436  1.00141.18     0.019 A 
HETATM    8  C14 MIQ B 502      -4.716   1.145  15.657  1.00138.77     0.033 A 
HETATM    9  C15 MIQ B 502      -5.290   2.587  15.468  1.00142.10     0.195 A 
HETATM   10  N17 MIQ B 502      -6.558   2.528  15.841  1.00139.42    -0.288 N 
HETATM   11  O16 MIQ B 502      -4.598   3.707  15.003  1.00148.93    -0.171 OA
ENDROOT
BRANCH  10  12
HETATM   12  C18 MIQ B 502      -7.411   3.701  15.813  1.00139.82     0.187 C 
HETATM   13  C19 MIQ B 502      -8.104   3.807  17.177  1.00140.06     0.247 C 
HETATM   14  O25 MIQ B 502      -7.453   3.760  18.160  1.00143.95    -0.271 OA
HETATM   15  N20 MIQ B 502      -9.539   3.971  17.294  1.00140.02    -0.296 N 
HETATM   16  H13 MIQ B 502      -9.980   4.033  18.191  1.00142.77     0.171 HD
HETATM   17  C21 MIQ B 502     -10.313   4.016  16.081  1.00142.22     0.224 C 
HETATM   18  C22 MIQ B 502      -9.816   3.172  14.923  1.00139.52     0.106 C 
HETATM   19  O24 MIQ B 502     -11.285   4.683  15.993  1.00146.13    -0.273 OA
HETATM   20  C23 MIQ B 502      -8.392   3.618  14.645  1.00139.15     0.045 C 
ENDBRANCH  10  12
BRANCH   5  21
HETATM   21  N6  MIQ B 502      -4.136  -3.073  16.525  1.00140.95    -0.377 N 
HETATM   22  C7  MIQ B 502      -5.233  -3.794  17.146  1.00142.12     0.149 C 
HETATM   23  C8  MIQ B 502      -4.742  -4.981  17.966  1.00144.10     0.187 C 
HETATM   24  O9  MIQ B 502      -3.820  -5.772  17.278  1.00148.65    -0.388 OA
HETATM   25  C10 MIQ B 502      -3.276  -5.335  16.068  1.00147.44     0.187 C 
HETATM   26  C11 MIQ B 502      -3.105  -3.836  15.844  1.00144.08     0.149 C 
ENDBRANCH   5  21
TORSDOF 2
ENDMDL
MODEL 8
REMARK VINA RESULT:      -6.6     17.515     21.894
REMARK  2 active torsions:
REMARK  status: ('A' for Active; 'I' for Inactive)
REMARK    1  A    between atoms: C5_5  and  N6_21 
REMARK    2  A    between atoms: C18_14  and  N17_19 
ROOT
HETATM    1  O1  MIQ B 502       6.741  -8.808  18.760  1.00142.91    -0.171 OA
HETATM    2  C2  MIQ B 502       6.327  -9.450  19.929  1.00141.17     0.195 A 
HETATM    3  C3  MIQ B 502       7.153  -9.586  21.248  1.00141.71     0.035 A 
HETATM    4  C4  MIQ B 502       8.501  -9.126  21.658  1.00142.86     0.046 A 
HETATM    5  C5  MIQ B 502       8.988  -9.407  22.959  1.00139.53     0.031 A 
HETATM    6  C12 MIQ B 502       8.160 -10.152  23.897  1.00139.38     0.030 A 
HETATM    7  C13 MIQ B 502       6.867 -10.592  23.504  1.00141.18     0.019 A 
HETATM    8  C14 MIQ B 502       6.359 -10.291  22.137  1.00138.77     0.033 A 
HETATM    9  C15 MIQ B 502       5.033 -10.595  21.366  1.00142.10     0.195 A 
HETATM   10  N17 MIQ B 502       5.179 -10.061  20.165  1.00139.42    -0.288 N 
HETATM   11  O16 MIQ B 502       3.925 -11.292  21.851  1.00148.93    -0.171 OA
ENDROOT
BRANCH  10  12
HETATM   12  C18 MIQ B 502       4.137 -10.162  19.159  1.00139.82     0.187 C 
HETATM   13  C19 MIQ B 502       4.762 -10.773  17.899  1.00140.06     0.247 C 
HETATM   14  O25 MIQ B 502       5.385 -11.770  17.990  1.00143.95    -0.271 OA
HETATM   15  N20 MIQ B 502       4.604 -10.161  16.595  1.00140.02    -0.296 N 
HETATM   16  H13 MIQ B 502       5.023 -10.566  15.781  1.00142.77     0.171 HD
HETATM   17  C21 MIQ B 502       3.849  -8.938  16.511  1.00142.22     0.224 C 
HETATM   18  C22 MIQ B 502       3.939  -7.998  17.698  1.00139.52     0.106 C 
HETATM   19  O24 MIQ B 502       3.188  -8.684  15.565  1.00146.13    -0.273 OA
HETATM   20  C23 MIQ B 502       3.501  -8.795  18.913  1.00139.15     0.045 C 
ENDBRANCH  10  12
BRANCH   5  21
HETATM   21  N6  MIQ B 502      10.316  -8.964  23.343  1.00140.95    -0.377 N 
HETATM   22  C7  MIQ B 502      10.573  -8.669  24.742  1.00142.12     0.149 C 
HETATM   23  C8  MIQ B 502      11.696  -7.654  24.913  1.00144.10     0.187 C 
HETATM   24  O9  MIQ B 502      12.825  -7.959  24.150  1.00148.65    -0.388 OA
HETATM   25  C10 MIQ B 502      12.774  -8.965  23.182  1.00147.44     0.187 C 
HETATM   26  C11 MIQ B 502      11.449  -9.230  22.474  1.00144.08     0.149 C 
ENDBRANCH   5  21
TORSDOF 2
ENDMDL
MODEL 9
REMARK VINA RESULT:      -6.6     12.016     17.822
REMARK  2 active torsions:
REMARK  status: ('A' for Active; 'I' for Inactive)
REMARK    1  A    between atoms: C5_5  and  N6_21 
REMARK    2  A    between atoms: C18_14  and  N17_19 
ROOT
HETATM    1  O1  MIQ B 502       1.189  -6.338  18.909  1.00142.91    -0.171 OA
HETATM    2  C2  MIQ B 502       2.038  -7.314  18.383  1.00141.17     0.195 A 
HETATM    3  C3  MIQ B 502       2.816  -8.396  19.197  1.00141.71     0.035 A 
HETATM    4  C4  MIQ B 502       2.903  -8.718  20.642  1.00142.86     0.046 A 
HETATM    5  C5  MIQ B 502       3.715  -9.790  21.090  1.00139.53     0.031 A 
HETATM    6  C12 MIQ B 502       4.467 -10.579  20.125  1.00139.38     0.030 A 
HETATM    7  C13 MIQ B 502       4.384 -10.271  18.740  1.00141.18     0.019 A 
HETATM    8  C14 MIQ B 502       3.528  -9.146  18.275  1.00138.77     0.033 A 
HETATM    9  C15 MIQ B 502       3.189  -8.527  16.880  1.00142.10     0.195 A 
HETATM   10  N17 MIQ B 502       2.354  -7.529  17.117  1.00139.42    -0.288 N 
HETATM   11  O16 MIQ B 502       3.675  -8.944  15.640  1.00148.93    -0.171 OA
ENDROOT
BRANCH  10  12
HETATM   12  C18 MIQ B 502       1.833  -6.705  16.041  1.00139.82     0.187 C 
HETATM   13  C19 MIQ B 502       2.070  -5.238  16.419  1.00140.06     0.247 C 
HETATM   14  O25 MIQ B 502       3.148  -4.896  16.753  1.00143.95    -0.271 OA
HETATM   15  N20 MIQ B 502       1.006  -4.256  16.372  1.00140.02    -0.296 N 
HETATM   16  H13 MIQ B 502       1.172  -3.302  16.627  1.00142.77     0.171 HD
HETATM   17  C21 MIQ B 502      -0.305  -4.700  15.971  1.00142.22     0.224 C 
HETATM   18  C22 MIQ B 502      -0.696  -6.110  16.367  1.00139.52     0.106 C 
HETATM   19  O24 MIQ B 502      -1.034  -3.999  15.360  1.00146.13    -0.273 OA
HETATM   20  C23 MIQ B 502       0.362  -7.031  15.787  1.00139.15     0.045 C 
ENDBRANCH  10  12
BRANCH   5  21
HETATM   21  N6  MIQ B 502       3.801 -10.084  22.509  1.00140.95    -0.377 N 
HETATM   22  C7  MIQ B 502       2.584 -10.047  23.301  1.00142.12     0.149 C 
HETATM   23  C8  MIQ B 502       2.868  -9.730  24.764  1.00144.10     0.187 C 
HETATM   24  O9  MIQ B 502       3.903 -10.501  25.296  1.00148.65    -0.388 OA
HETATM   25  C10 MIQ B 502       4.703 -11.285  24.461  1.00147.44     0.187 C 
HETATM   26  C11 MIQ B 502       4.943 -10.816  23.030  1.00144.08     0.149 C 
ENDBRANCH   5  21
TORSDOF 2
ENDMDL
