MODEL 1
REMARK VINA RESULT:      -6.8      0.000      0.000
REMARK  2 active torsions:
REMARK  status: ('A' for Active; 'I' for Inactive)
REMARK    1  A    between atoms: C5_5  and  N6_21 
REMARK    2  A    between atoms: C18_14  and  N17_19 
ROOT
HETATM    1  O1  MIQ B 502       5.734  -0.368 -13.873  1.00142.91    -0.171 OA
HETATM    2  C2  MIQ B 502       5.988   0.975 -14.162  1.00141.17     0.195 A 
HETATM    3  C3  MIQ B 502       5.049   1.941 -14.953  1.00141.71     0.035 A 
HETATM    4  C4  MIQ B 502       3.721   1.776 -15.590  1.00142.86     0.046 A 
HETATM    5  C5  MIQ B 502       3.104   2.867 -16.252  1.00139.53     0.031 A 
HETATM    6  C12 MIQ B 502       3.779   4.156 -16.306  1.00139.38     0.030 A 
HETATM    7  C13 MIQ B 502       5.053   4.314 -15.695  1.00141.18     0.019 A 
HETATM    8  C14 MIQ B 502       5.695   3.166 -14.999  1.00138.77     0.033 A 
HETATM    9  C15 MIQ B 502       7.041   2.959 -14.231  1.00142.10     0.195 A 
HETATM   10  N17 MIQ B 502       7.044   1.698 -13.833  1.00139.42    -0.288 N 
HETATM   11  O16 MIQ B 502       8.035   3.915 -14.016  1.00148.93    -0.171 OA
ENDROOT
BRANCH  10  12
HETATM   12  C18 MIQ B 502       8.161   1.140 -13.093  1.00139.82     0.187 C 
HETATM   13  C19 MIQ B 502       8.914   0.188 -14.030  1.00140.06     0.247 C 
HETATM   14  O25 MIQ B 502       9.240   0.569 -15.098  1.00143.95    -0.271 OA
HETATM   15  N20 MIQ B 502       9.244  -1.167 -13.638  1.00140.02    -0.296 N 
HETATM   16  H13 MIQ B 502       9.730  -1.781 -14.262  1.00142.77     0.171 HD
HETATM   17  C21 MIQ B 502       8.826  -1.612 -12.334  1.00142.22     0.224 C 
HETATM   18  C22 MIQ B 502       7.520  -1.049 -11.807  1.00139.52     0.106 C 
HETATM   19  O24 MIQ B 502       9.474  -2.375 -11.705  1.00146.13    -0.273 OA
HETATM   20  C23 MIQ B 502       7.667   0.461 -11.816  1.00139.15     0.045 C 
ENDBRANCH  10  12
BRANCH   5  21
HETATM   21  N6  MIQ B 502       1.809   2.688 -16.884  1.00140.95    -0.377 N 
HETATM   22  C7  MIQ B 502       1.517   3.438 -18.094  1.00142.12     0.149 C 
HETATM   23  C8  MIQ B 502       0.022   3.669 -18.272  1.00144.10     0.187 C 
HETATM   24  O9  MIQ B 502      -0.733   2.509 -18.092  1.00148.65    -0.388 OA
HETATM   25  C10 MIQ B 502      -0.142   1.353 -17.575  1.00147.44     0.187 C 
HETATM   26  C11 MIQ B 502       1.020   1.503 -16.599  1.00144.08     0.149 C 
ENDBRANCH   5  21
TORSDOF 2
ENDMDL
MODEL 2
REMARK VINA RESULT:      -6.6      1.727      2.267
REMARK  2 active torsions:
REMARK  status: ('A' for Active; 'I' for Inactive)
REMARK    1  A    between atoms: C5_5  and  N6_21 
REMARK    2  A    between atoms: C18_14  and  N17_19 
ROOT
HETATM    1  O1  MIQ B 502       5.855  -0.533 -14.495  1.00142.91    -0.171 OA
HETATM    2  C2  MIQ B 502       6.080   0.832 -14.687  1.00141.17     0.195 A 
HETATM    3  C3  MIQ B 502       5.040   1.874 -15.210  1.00141.71     0.035 A 
HETATM    4  C4  MIQ B 502       3.622   1.775 -15.629  1.00142.86     0.046 A 
HETATM    5  C5  MIQ B 502       2.922   2.928 -16.066  1.00139.53     0.031 A 
HETATM    6  C12 MIQ B 502       3.602   4.215 -16.103  1.00139.38     0.030 A 
HETATM    7  C13 MIQ B 502       4.961   4.310 -15.701  1.00141.18     0.019 A 
HETATM    8  C14 MIQ B 502       5.690   3.097 -15.240  1.00138.77     0.033 A 
HETATM    9  C15 MIQ B 502       7.141   2.813 -14.732  1.00142.10     0.195 A 
HETATM   10  N17 MIQ B 502       7.189   1.517 -14.468  1.00139.42    -0.288 N 
HETATM   11  O16 MIQ B 502       8.174   3.741 -14.592  1.00148.93    -0.171 OA
ENDROOT
BRANCH  10  12
HETATM   12  C18 MIQ B 502       8.403   0.887 -13.985  1.00139.82     0.187 C 
HETATM   13  C19 MIQ B 502       8.857   1.646 -12.732  1.00140.06     0.247 C 
HETATM   14  O25 MIQ B 502       8.084   1.837 -11.862  1.00143.95    -0.271 OA
HETATM   15  N20 MIQ B 502      10.214   2.132 -12.583  1.00140.02    -0.296 N 
HETATM   16  H13 MIQ B 502      10.496   2.632 -11.763  1.00142.77     0.171 HD
HETATM   17  C21 MIQ B 502      11.137   1.897 -13.663  1.00142.22     0.224 C 
HETATM   18  C22 MIQ B 502      10.561   1.904 -15.066  1.00139.52     0.106 C 
HETATM   19  O24 MIQ B 502      12.285   1.702 -13.463  1.00146.13    -0.273 OA
HETATM   20  C23 MIQ B 502       9.462   0.857 -15.086  1.00139.15     0.045 C 
ENDBRANCH  10  12
BRANCH   5  21
HETATM   21  N6  MIQ B 502       1.538   2.815 -16.488  1.00140.95    -0.377 N 
HETATM   22  C7  MIQ B 502       0.895   3.975 -17.081  1.00142.12     0.149 C 
HETATM   23  C8  MIQ B 502      -0.615   3.954 -16.878  1.00144.10     0.187 C 
HETATM   24  O9  MIQ B 502      -1.190   2.724 -17.200  1.00148.65    -0.388 OA
HETATM   25  C10 MIQ B 502      -0.384   1.609 -17.447  1.00147.44     0.187 C 
HETATM   26  C11 MIQ B 502       0.958   1.505 -16.729  1.00144.08     0.149 C 
ENDBRANCH   5  21
TORSDOF 2
ENDMDL
MODEL 3
REMARK VINA RESULT:      -6.6      2.103      2.895
REMARK  2 active torsions:
REMARK  status: ('A' for Active; 'I' for Inactive)
REMARK    1  A    between atoms: C5_5  and  N6_21 
REMARK    2  A    between atoms: C18_14  and  N17_19 
ROOT
HETATM    1  O1  MIQ B 502       7.089   4.314 -16.685  1.00142.91    -0.171 OA
HETATM    2  C2  MIQ B 502       6.866   3.116 -16.002  1.00141.17     0.195 A 
HETATM    3  C3  MIQ B 502       5.502   2.366 -15.876  1.00141.71     0.035 A 
HETATM    4  C4  MIQ B 502       4.137   2.641 -16.385  1.00142.86     0.046 A 
HETATM    5  C5  MIQ B 502       3.073   1.749 -16.098  1.00139.53     0.031 A 
HETATM    6  C12 MIQ B 502       3.323   0.558 -15.300  1.00139.38     0.030 A 
HETATM    7  C13 MIQ B 502       4.631   0.294 -14.813  1.00141.18     0.019 A 
HETATM    8  C14 MIQ B 502       5.746   1.232 -15.119  1.00138.77     0.033 A 
HETATM    9  C15 MIQ B 502       7.270   1.278 -14.774  1.00142.10     0.195 A 
HETATM   10  N17 MIQ B 502       7.739   2.378 -15.338  1.00139.42    -0.288 N 
HETATM   11  O16 MIQ B 502       7.985   0.345 -14.021  1.00148.93    -0.171 OA
ENDROOT
BRANCH  10  12
HETATM   12  C18 MIQ B 502       9.134   2.758 -15.212  1.00139.82     0.187 C 
HETATM   13  C19 MIQ B 502       9.986   1.518 -15.509  1.00140.06     0.247 C 
HETATM   14  O25 MIQ B 502       9.784   0.903 -16.496  1.00143.95    -0.271 OA
HETATM   15  N20 MIQ B 502      11.037   1.081 -14.613  1.00140.02    -0.296 N 
HETATM   16  H13 MIQ B 502      11.581   0.266 -14.815  1.00142.77     0.171 HD
HETATM   17  C21 MIQ B 502      11.257   1.841 -13.410  1.00142.22     0.224 C 
HETATM   18  C22 MIQ B 502      10.036   2.473 -12.770  1.00139.52     0.106 C 
HETATM   19  O24 MIQ B 502      12.338   1.970 -12.949  1.00146.13    -0.273 OA
HETATM   20  C23 MIQ B 502       9.400   3.354 -13.831  1.00139.15     0.045 C 
ENDBRANCH  10  12
BRANCH   5  21
HETATM   21  N6  MIQ B 502       1.738   2.038 -16.591  1.00140.95    -0.377 N 
HETATM   22  C7  MIQ B 502       1.511   3.294 -17.285  1.00142.12     0.149 C 
HETATM   23  C8  MIQ B 502       0.064   3.755 -17.167  1.00144.10     0.187 C 
HETATM   24  O9  MIQ B 502      -0.854   2.742 -17.451  1.00148.65    -0.388 OA
HETATM   25  C10 MIQ B 502      -0.427   1.418 -17.587  1.00147.44     0.187 C 
HETATM   26  C11 MIQ B 502       0.788   0.958 -16.789  1.00144.08     0.149 C 
ENDBRANCH   5  21
TORSDOF 2
ENDMDL
MODEL 4
REMARK VINA RESULT:      -6.5     21.117     23.534
REMARK  2 active torsions:
REMARK  status: ('A' for Active; 'I' for Inactive)
REMARK    1  A    between atoms: C5_5  and  N6_21 
REMARK    2  A    between atoms: C18_14  and  N17_19 
ROOT
HETATM    1  O1  MIQ B 502      -1.309 -17.464  -6.541  1.00142.91    -0.171 OA
HETATM    2  C2  MIQ B 502      -1.881 -18.371  -7.436  1.00141.17     0.195 A 
HETATM    3  C3  MIQ B 502      -1.467 -18.582  -8.927  1.00141.71     0.035 A 
HETATM    4  C4  MIQ B 502      -0.440 -17.961  -9.797  1.00142.86     0.046 A 
HETATM    5  C5  MIQ B 502      -0.299 -18.374 -11.146  1.00139.53     0.031 A 
HETATM    6  C12 MIQ B 502      -1.167 -19.414 -11.678  1.00139.38     0.030 A 
HETATM    7  C13 MIQ B 502      -2.151 -20.011 -10.844  1.00141.18     0.019 A 
HETATM    8  C14 MIQ B 502      -2.293 -19.575  -9.428  1.00138.77     0.033 A 
HETATM    9  C15 MIQ B 502      -3.224 -19.984  -8.240  1.00142.10     0.195 A 
HETATM   10  N17 MIQ B 502      -2.864 -19.227  -7.216  1.00139.42    -0.288 N 
HETATM   11  O16 MIQ B 502      -4.232 -20.949  -8.262  1.00148.93    -0.171 OA
ENDROOT
BRANCH  10  12
HETATM   12  C18 MIQ B 502      -3.532 -19.323  -5.932  1.00139.82     0.187 C 
HETATM   13  C19 MIQ B 502      -3.390 -20.768  -5.437  1.00140.06     0.247 C 
HETATM   14  O25 MIQ B 502      -2.321 -21.266  -5.416  1.00143.95    -0.271 OA
HETATM   15  N20 MIQ B 502      -4.532 -21.537  -4.989  1.00140.02    -0.296 N 
HETATM   16  H13 MIQ B 502      -4.426 -22.482  -4.674  1.00142.77     0.171 HD
HETATM   17  C21 MIQ B 502      -5.828 -20.911  -5.034  1.00142.22     0.224 C 
HETATM   18  C22 MIQ B 502      -6.070 -19.927  -6.163  1.00139.52     0.106 C 
HETATM   19  O24 MIQ B 502      -6.658 -21.148  -4.227  1.00146.13    -0.273 OA
HETATM   20  C23 MIQ B 502      -4.986 -18.870  -6.054  1.00139.15     0.045 C 
ENDBRANCH  10  12
BRANCH   5  21
HETATM   21  N6  MIQ B 502       0.701 -17.746 -11.991  1.00140.95    -0.377 N 
HETATM   22  C7  MIQ B 502       1.988 -17.408 -11.409  1.00142.12     0.149 C 
HETATM   23  C8  MIQ B 502       2.652 -16.245 -12.135  1.00144.10     0.187 C 
HETATM   24  O9  MIQ B 502       2.645 -16.395 -13.523  1.00148.65    -0.388 OA
HETATM   25  C10 MIQ B 502       1.888 -17.406 -14.122  1.00147.44     0.187 C 
HETATM   26  C11 MIQ B 502       0.604 -17.859 -13.436  1.00144.08     0.149 C 
ENDBRANCH   5  21
TORSDOF 2
ENDMDL
MODEL 5
REMARK VINA RESULT:      -6.4     11.939     15.448
REMARK  2 active torsions:
REMARK  status: ('A' for Active; 'I' for Inactive)
REMARK    1  A    between atoms: C5_5  and  N6_21 
REMARK    2  A    between atoms: C18_14  and  N17_19 
ROOT
HETATM    1  O1  MIQ B 502      19.501  -5.284 -11.156  1.00142.91    -0.171 OA
HETATM    2  C2  MIQ B 502      19.283  -5.143 -12.528  1.00141.17     0.195 A 
HETATM    3  C3  MIQ B 502      18.741  -3.869 -13.250  1.00141.71     0.035 A 
HETATM    4  C4  MIQ B 502      18.325  -2.528 -12.775  1.00142.86     0.046 A 
HETATM    5  C5  MIQ B 502      17.865  -1.552 -13.695  1.00139.53     0.031 A 
HETATM    6  C12 MIQ B 502      17.803  -1.870 -15.114  1.00139.38     0.030 A 
HETATM    7  C13 MIQ B 502      18.203  -3.155 -15.571  1.00141.18     0.019 A 
HETATM    8  C14 MIQ B 502      18.687  -4.174 -14.600  1.00138.77     0.033 A 
HETATM    9  C15 MIQ B 502      19.199  -5.647 -14.717  1.00142.10     0.195 A 
HETATM   10  N17 MIQ B 502      19.488  -6.032 -13.485  1.00139.42    -0.288 N 
HETATM   11  O16 MIQ B 502      19.322  -6.399 -15.887  1.00148.93    -0.171 OA
ENDROOT
BRANCH  10  12
HETATM   12  C18 MIQ B 502      19.983  -7.367 -13.206  1.00139.82     0.187 C 
HETATM   13  C19 MIQ B 502      19.248  -7.888 -11.965  1.00140.06     0.247 C 
HETATM   14  O25 MIQ B 502      18.070  -7.839 -11.930  1.00143.95    -0.271 OA
HETATM   15  N20 MIQ B 502      19.960  -8.445 -10.833  1.00140.02    -0.296 N 
HETATM   16  H13 MIQ B 502      19.469  -8.776 -10.026  1.00142.77     0.171 HD
HETATM   17  C21 MIQ B 502      21.399  -8.485 -10.894  1.00142.22     0.224 C 
HETATM   18  C22 MIQ B 502      22.080  -7.352 -11.637  1.00139.52     0.106 C 
HETATM   19  O24 MIQ B 502      22.015  -9.361 -10.394  1.00146.13    -0.273 OA
HETATM   20  C23 MIQ B 502      21.502  -7.347 -13.041  1.00139.15     0.045 C 
ENDBRANCH  10  12
BRANCH   5  21
HETATM   21  N6  MIQ B 502      17.447  -0.248 -13.214  1.00140.95    -0.377 N 
HETATM   22  C7  MIQ B 502      18.460   0.666 -12.714  1.00142.12     0.149 C 
HETATM   23  C8  MIQ B 502      17.889   1.647 -11.698  1.00144.10     0.187 C 
HETATM   24  O9  MIQ B 502      16.704   2.246 -12.127  1.00148.65    -0.388 OA
HETATM   25  C10 MIQ B 502      16.046   1.777 -13.267  1.00147.44     0.187 C 
HETATM   26  C11 MIQ B 502      16.164   0.298 -13.621  1.00144.08     0.149 C 
ENDBRANCH   5  21
TORSDOF 2
ENDMDL
MODEL 6
REMARK VINA RESULT:      -6.4     12.845     16.230
REMARK  2 active torsions:
REMARK  status: ('A' for Active; 'I' for Inactive)
REMARK    1  A    between atoms: C5_5  and  N6_21 
REMARK    2  A    between atoms: C18_14  and  N17_19 
ROOT
HETATM    1  O1  MIQ B 502      -7.377  -4.746 -23.761  1.00142.91    -0.171 OA
HETATM    2  C2  MIQ B 502      -6.027  -4.404 -23.876  1.00141.17     0.195 A 
HETATM    3  C3  MIQ B 502      -4.888  -4.799 -22.883  1.00141.71     0.035 A 
HETATM    4  C4  MIQ B 502      -4.858  -5.584 -21.627  1.00142.86     0.046 A 
HETATM    5  C5  MIQ B 502      -3.638  -5.778 -20.931  1.00139.53     0.031 A 
HETATM    6  C12 MIQ B 502      -2.408  -5.201 -21.456  1.00139.38     0.030 A 
HETATM    7  C13 MIQ B 502      -2.436  -4.449 -22.661  1.00141.18     0.019 A 
HETATM    8  C14 MIQ B 502      -3.720  -4.251 -23.388  1.00138.77     0.033 A 
HETATM    9  C15 MIQ B 502      -4.136  -3.513 -24.702  1.00142.10     0.195 A 
HETATM   10  N17 MIQ B 502      -5.440  -3.697 -24.827  1.00139.42    -0.288 N 
HETATM   11  O16 MIQ B 502      -3.298  -2.803 -25.563  1.00148.93    -0.171 OA
ENDROOT
BRANCH  10  12
HETATM   12  C18 MIQ B 502      -6.182  -3.132 -25.938  1.00139.82     0.187 C 
HETATM   13  C19 MIQ B 502      -5.459  -3.526 -27.232  1.00140.06     0.247 C 
HETATM   14  O25 MIQ B 502      -5.185  -4.659 -27.416  1.00143.95    -0.271 OA
HETATM   15  N20 MIQ B 502      -5.107  -2.547 -28.240  1.00140.02    -0.296 N 
HETATM   16  H13 MIQ B 502      -4.630  -2.816 -29.077  1.00142.77     0.171 HD
HETATM   17  C21 MIQ B 502      -5.443  -1.169 -27.987  1.00142.22     0.224 C 
HETATM   18  C22 MIQ B 502      -5.393  -0.709 -26.543  1.00139.52     0.106 C 
HETATM   19  O24 MIQ B 502      -5.748  -0.437 -28.863  1.00146.13    -0.273 OA
HETATM   20  C23 MIQ B 502      -6.327  -1.620 -25.767  1.00139.15     0.045 C 
ENDBRANCH  10  12
BRANCH   5  21
HETATM   21  N6  MIQ B 502      -3.626  -6.537 -19.694  1.00140.95    -0.377 N 
HETATM   22  C7  MIQ B 502      -4.410  -7.758 -19.621  1.00142.12     0.149 C 
HETATM   23  C8  MIQ B 502      -4.829  -8.079 -18.192  1.00144.10     0.187 C 
HETATM   24  O9  MIQ B 502      -3.773  -7.992 -17.283  1.00148.65    -0.388 OA
HETATM   25  C10 MIQ B 502      -2.550  -7.437 -17.669  1.00147.44     0.187 C 
HETATM   26  C11 MIQ B 502      -2.549  -6.348 -18.738  1.00144.08     0.149 C 
ENDBRANCH   5  21
TORSDOF 2
ENDMDL
MODEL 7
REMARK VINA RESULT:      -6.3     12.814     15.489
REMARK  2 active torsions:
REMARK  status: ('A' for Active; 'I' for Inactive)
REMARK    1  A    between atoms: C5_5  and  N6_21 
REMARK    2  A    between atoms: C18_14  and  N17_19 
ROOT
HETATM    1  O1  MIQ B 502      -2.729  -3.618 -22.641  1.00142.91    -0.171 OA
HETATM    2  C2  MIQ B 502      -3.947  -4.283 -22.793  1.00141.17     0.195 A 
HETATM    3  C3  MIQ B 502      -4.490  -5.431 -21.884  1.00141.71     0.035 A 
HETATM    4  C4  MIQ B 502      -3.956  -6.122 -20.686  1.00142.86     0.046 A 
HETATM    5  C5  MIQ B 502      -4.702  -7.153 -20.061  1.00139.53     0.031 A 
HETATM    6  C12 MIQ B 502      -5.999  -7.535 -20.600  1.00139.38     0.030 A 
HETATM    7  C13 MIQ B 502      -6.512  -6.873 -21.748  1.00141.18     0.019 A 
HETATM    8  C14 MIQ B 502      -5.726  -5.789 -22.398  1.00138.77     0.033 A 
HETATM    9  C15 MIQ B 502      -5.952  -4.857 -23.633  1.00142.10     0.195 A 
HETATM   10  N17 MIQ B 502      -4.879  -4.086 -23.710  1.00139.42    -0.288 N 
HETATM   11  O16 MIQ B 502      -7.060  -4.847 -24.481  1.00148.93    -0.171 OA
ENDROOT
BRANCH  10  12
HETATM   12  C18 MIQ B 502      -4.732  -3.095 -24.759  1.00139.82     0.187 C 
HETATM   13  C19 MIQ B 502      -3.402  -3.364 -25.473  1.00140.06     0.247 C 
HETATM   14  O25 MIQ B 502      -3.165  -4.453 -25.860  1.00143.95    -0.271 OA
HETATM   15  N20 MIQ B 502      -2.427  -2.315 -25.693  1.00140.02    -0.296 N 
HETATM   16  H13 MIQ B 502      -1.559  -2.505 -26.154  1.00142.77     0.171 HD
HETATM   17  C21 MIQ B 502      -2.734  -0.996 -25.202  1.00142.22     0.224 C 
HETATM   18  C22 MIQ B 502      -3.545  -0.916 -23.923  1.00139.52     0.106 C 
HETATM   19  O24 MIQ B 502      -2.375  -0.026 -25.774  1.00146.13    -0.273 OA
HETATM   20  C23 MIQ B 502      -4.828  -1.686 -24.177  1.00139.15     0.045 C 
ENDBRANCH  10  12
BRANCH   5  21
HETATM   21  N6  MIQ B 502      -4.160  -7.831 -18.897  1.00140.95    -0.377 N 
HETATM   22  C7  MIQ B 502      -4.462  -9.240 -18.711  1.00142.12     0.149 C 
HETATM   23  C8  MIQ B 502      -4.415  -9.642 -17.242  1.00144.10     0.187 C 
HETATM   24  O9  MIQ B 502      -3.268  -9.186 -16.590  1.00148.65    -0.388 OA
HETATM   25  C10 MIQ B 502      -2.417  -8.269 -17.213  1.00147.44     0.187 C 
HETATM   26  C11 MIQ B 502      -3.016  -7.271 -18.199  1.00144.08     0.149 C 
ENDBRANCH   5  21
TORSDOF 2
ENDMDL
MODEL 8
REMARK VINA RESULT:      -6.3     13.513     15.955
REMARK  2 active torsions:
REMARK  status: ('A' for Active; 'I' for Inactive)
REMARK    1  A    between atoms: C5_5  and  N6_21 
REMARK    2  A    between atoms: C18_14  and  N17_19 
ROOT
HETATM    1  O1  MIQ B 502      -6.654  -9.641 -22.243  1.00142.91    -0.171 OA
HETATM    2  C2  MIQ B 502      -5.860  -9.123 -21.217  1.00141.17     0.195 A 
HETATM    3  C3  MIQ B 502      -5.072  -7.775 -21.252  1.00141.71     0.035 A 
HETATM    4  C4  MIQ B 502      -4.922  -6.708 -22.270  1.00142.86     0.046 A 
HETATM    5  C5  MIQ B 502      -4.119  -5.571 -22.003  1.00139.53     0.031 A 
HETATM    6  C12 MIQ B 502      -3.438  -5.451 -20.722  1.00139.38     0.030 A 
HETATM    7  C13 MIQ B 502      -3.582  -6.473 -19.745  1.00141.18     0.019 A 
HETATM    8  C14 MIQ B 502      -4.429  -7.664 -20.030  1.00138.77     0.033 A 
HETATM    9  C15 MIQ B 502      -4.821  -8.950 -19.232  1.00142.10     0.195 A 
HETATM   10  N17 MIQ B 502      -5.615  -9.647 -20.028  1.00139.42    -0.288 N 
HETATM   11  O16 MIQ B 502      -4.410  -9.291 -17.942  1.00148.93    -0.171 OA
ENDROOT
BRANCH  10  12
HETATM   12  C18 MIQ B 502      -6.166 -10.925 -19.619  1.00139.82     0.187 C 
HETATM   13  C19 MIQ B 502      -6.730 -10.759 -18.202  1.00140.06     0.247 C 
HETATM   14  O25 MIQ B 502      -7.470  -9.869 -17.978  1.00143.95    -0.271 OA
HETATM   15  N20 MIQ B 502      -6.384 -11.671 -17.131  1.00140.02    -0.296 N 
HETATM   16  H13 MIQ B 502      -6.754 -11.548 -16.209  1.00142.77     0.171 HD
HETATM   17  C21 MIQ B 502      -5.470 -12.744 -17.427  1.00142.22     0.224 C 
HETATM   18  C22 MIQ B 502      -4.390 -12.456 -18.452  1.00139.52     0.106 C 
HETATM   19  O24 MIQ B 502      -5.563 -13.798 -16.900  1.00146.13    -0.273 OA
HETATM   20  C23 MIQ B 502      -5.103 -12.018 -19.719  1.00139.15     0.045 C 
ENDBRANCH  10  12
BRANCH   5  21
HETATM   21  N6  MIQ B 502      -3.969  -4.541 -23.015  1.00140.95    -0.377 N 
HETATM   22  C7  MIQ B 502      -5.156  -4.071 -23.709  1.00142.12     0.149 C 
HETATM   23  C8  MIQ B 502      -4.828  -3.533 -25.096  1.00144.10     0.187 C 
HETATM   24  O9  MIQ B 502      -3.748  -2.648 -25.094  1.00148.65    -0.388 OA
HETATM   25  C10 MIQ B 502      -2.954  -2.502 -23.953  1.00147.44     0.187 C 
HETATM   26  C11 MIQ B 502      -2.785  -3.700 -23.025  1.00144.08     0.149 C 
ENDBRANCH   5  21
TORSDOF 2
ENDMDL
MODEL 9
REMARK VINA RESULT:      -6.2     21.456     23.773
REMARK  2 active torsions:
REMARK  status: ('A' for Active; 'I' for Inactive)
REMARK    1  A    between atoms: C5_5  and  N6_21 
REMARK    2  A    between atoms: C18_14  and  N17_19 
ROOT
HETATM    1  O1  MIQ B 502      -3.452 -20.797  -8.432  1.00142.91    -0.171 OA
HETATM    2  C2  MIQ B 502      -2.473 -19.806  -8.325  1.00141.17     0.195 A 
HETATM    3  C3  MIQ B 502      -1.399 -19.451  -9.402  1.00141.71     0.035 A 
HETATM    4  C4  MIQ B 502      -1.094 -19.983 -10.751  1.00142.86     0.046 A 
HETATM    5  C5  MIQ B 502      -0.028 -19.440 -11.512  1.00139.53     0.031 A 
HETATM    6  C12 MIQ B 502       0.770 -18.352 -10.964  1.00139.38     0.030 A 
HETATM    7  C13 MIQ B 502       0.476 -17.840  -9.671  1.00141.18     0.019 A 
HETATM    8  C14 MIQ B 502      -0.646 -18.413  -8.878  1.00138.77     0.033 A 
HETATM    9  C15 MIQ B 502      -1.255 -18.123  -7.468  1.00142.10     0.195 A 
HETATM   10  N17 MIQ B 502      -2.255 -18.976  -7.320  1.00139.42    -0.288 N 
HETATM   11  O16 MIQ B 502      -0.826 -17.159  -6.554  1.00148.93    -0.171 OA
ENDROOT
BRANCH  10  12
HETATM   12  C18 MIQ B 502      -3.051 -19.007  -6.107  1.00139.82     0.187 C 
HETATM   13  C19 MIQ B 502      -3.045 -20.447  -5.580  1.00140.06     0.247 C 
HETATM   14  O25 MIQ B 502      -2.015 -21.006  -5.445  1.00143.95    -0.271 OA
HETATM   15  N20 MIQ B 502      -4.270 -21.139  -5.236  1.00140.02    -0.296 N 
HETATM   16  H13 MIQ B 502      -4.253 -22.082  -4.899  1.00142.77     0.171 HD
HETATM   17  C21 MIQ B 502      -5.515 -20.439  -5.419  1.00142.22     0.224 C 
HETATM   18  C22 MIQ B 502      -5.585 -19.467  -6.581  1.00139.52     0.106 C 
HETATM   19  O24 MIQ B 502      -6.433 -20.612  -4.696  1.00146.13    -0.273 OA
HETATM   20  C23 MIQ B 502      -4.457 -18.472  -6.380  1.00139.15     0.045 C 
ENDBRANCH  10  12
BRANCH   5  21
HETATM   21  N6  MIQ B 502       0.270 -19.982 -12.825  1.00140.95    -0.377 N 
HETATM   22  C7  MIQ B 502       1.605 -19.796 -13.367  1.00142.12     0.149 C 
HETATM   23  C8  MIQ B 502       1.608 -19.806 -14.890  1.00144.10     0.187 C 
HETATM   24  O9  MIQ B 502       0.889 -20.875 -15.428  1.00148.65    -0.388 OA
HETATM   25  C10 MIQ B 502       0.086 -21.671 -14.608  1.00147.44     0.187 C 
HETATM   26  C11 MIQ B 502      -0.560 -21.036 -13.380  1.00144.08     0.149 C 
ENDBRANCH   5  21
TORSDOF 2
ENDMDL
