MODEL 1
REMARK VINA RESULT:      -6.2      0.000      0.000
REMARK  2 active torsions:
REMARK  status: ('A' for Active; 'I' for Inactive)
REMARK    1  A    between atoms: C5_5  and  N6_21 
REMARK    2  A    between atoms: C18_14  and  N17_19 
ROOT
HETATM    1  O1  MIQ B 502       8.052  10.965  19.133  1.00142.91    -0.171 OA
HETATM    2  C2  MIQ B 502       7.906  11.937  20.125  1.00141.17     0.195 A 
HETATM    3  C3  MIQ B 502       7.814  13.480  19.898  1.00141.71     0.035 A 
HETATM    4  C4  MIQ B 502       7.843  14.335  18.688  1.00142.86     0.046 A 
HETATM    5  C5  MIQ B 502       7.732  15.744  18.803  1.00139.53     0.031 A 
HETATM    6  C12 MIQ B 502       7.589  16.352  20.118  1.00139.38     0.030 A 
HETATM    7  C13 MIQ B 502       7.560  15.532  21.278  1.00141.18     0.019 A 
HETATM    8  C14 MIQ B 502       7.674  14.054  21.151  1.00138.77     0.033 A 
HETATM    9  C15 MIQ B 502       7.679  12.861  22.161  1.00142.10     0.195 A 
HETATM   10  N17 MIQ B 502       7.812  11.765  21.432  1.00139.42    -0.288 N 
HETATM   11  O16 MIQ B 502       7.569  12.941  23.550  1.00148.93    -0.171 OA
ENDROOT
BRANCH  10  12
HETATM   12  C18 MIQ B 502       7.873  10.451  22.044  1.00139.82     0.187 C 
HETATM   13  C19 MIQ B 502       9.107   9.731  21.485  1.00140.06     0.247 C 
HETATM   14  O25 MIQ B 502      10.152  10.277  21.510  1.00143.95    -0.271 OA
HETATM   15  N20 MIQ B 502       9.026   8.395  20.932  1.00140.02    -0.296 N 
HETATM   16  H13 MIQ B 502       9.838   7.939  20.564  1.00142.77     0.171 HD
HETATM   17  C21 MIQ B 502       7.737   7.753  20.903  1.00142.22     0.224 C 
HETATM   18  C22 MIQ B 502       6.534   8.652  20.692  1.00139.52     0.106 C 
HETATM   19  O24 MIQ B 502       7.625   6.585  21.043  1.00146.13    -0.273 OA
HETATM   20  C23 MIQ B 502       6.571   9.690  21.799  1.00139.15     0.045 C 
ENDBRANCH  10  12
BRANCH   5  21
HETATM   21  N6  MIQ B 502       7.777  16.571  17.611  1.00140.95    -0.377 N 
HETATM   22  C7  MIQ B 502       7.850  18.013  17.768  1.00142.12     0.149 C 
HETATM   23  C8  MIQ B 502       7.259  18.747  16.571  1.00144.10     0.187 C 
HETATM   24  O9  MIQ B 502       7.722  18.255  15.349  1.00148.65    -0.388 OA
HETATM   25  C10 MIQ B 502       8.460  17.069  15.297  1.00147.44     0.187 C 
HETATM   26  C11 MIQ B 502       8.185  15.993  16.342  1.00144.08     0.149 C 
ENDBRANCH   5  21
TORSDOF 2
ENDMDL
MODEL 2
REMARK VINA RESULT:      -6.1      1.901      8.407
REMARK  2 active torsions:
REMARK  status: ('A' for Active; 'I' for Inactive)
REMARK    1  A    between atoms: C5_5  and  N6_21 
REMARK    2  A    between atoms: C18_14  and  N17_19 
ROOT
HETATM    1  O1  MIQ B 502       8.247  14.188  15.533  1.00142.91    -0.171 OA
HETATM    2  C2  MIQ B 502       8.228  14.892  16.739  1.00141.17     0.195 A 
HETATM    3  C3  MIQ B 502       8.094  14.271  18.166  1.00141.71     0.035 A 
HETATM    4  C4  MIQ B 502       7.961  12.882  18.665  1.00142.86     0.046 A 
HETATM    5  C5  MIQ B 502       7.857  12.627  20.056  1.00139.53     0.031 A 
HETATM    6  C12 MIQ B 502       7.883  13.736  20.998  1.00139.38     0.030 A 
HETATM    7  C13 MIQ B 502       8.012  15.068  20.520  1.00141.18     0.019 A 
HETATM    8  C14 MIQ B 502       8.122  15.330  19.059  1.00138.77     0.033 A 
HETATM    9  C15 MIQ B 502       8.275  16.615  18.181  1.00142.10     0.195 A 
HETATM   10  N17 MIQ B 502       8.321  16.197  16.927  1.00139.42    -0.288 N 
HETATM   11  O16 MIQ B 502       8.346  17.933  18.634  1.00148.93    -0.171 OA
ENDROOT
BRANCH  10  12
HETATM   12  C18 MIQ B 502       8.445  17.129  15.822  1.00139.82     0.187 C 
HETATM   13  C19 MIQ B 502       9.681  18.000  16.081  1.00140.06     0.247 C 
HETATM   14  O25 MIQ B 502      10.709  17.480  16.336  1.00143.95    -0.271 OA
HETATM   15  N20 MIQ B 502       9.624  19.446  16.016  1.00140.02    -0.296 N 
HETATM   16  H13 MIQ B 502      10.436  20.003  16.194  1.00142.77     0.171 HD
HETATM   17  C21 MIQ B 502       8.356  20.058  15.713  1.00142.22     0.224 C 
HETATM   18  C22 MIQ B 502       7.117  19.349  16.228  1.00139.52     0.106 C 
HETATM   19  O24 MIQ B 502       8.286  21.059  15.090  1.00146.13    -0.273 OA
HETATM   20  C23 MIQ B 502       7.160  17.941  15.664  1.00139.15     0.045 C 
ENDBRANCH  10  12
BRANCH   5  21
HETATM   21  N6  MIQ B 502       7.713  11.262  20.530  1.00140.95    -0.377 N 
HETATM   22  C7  MIQ B 502       7.492  10.208  19.554  1.00142.12     0.149 C 
HETATM   23  C8  MIQ B 502       6.743   9.025  20.155  1.00144.10     0.187 C 
HETATM   24  O9  MIQ B 502       7.277   8.607  21.375  1.00148.65    -0.388 OA
HETATM   25  C10 MIQ B 502       8.240   9.381  22.029  1.00147.44     0.187 C 
HETATM   26  C11 MIQ B 502       8.208  10.894  21.844  1.00144.08     0.149 C 
ENDBRANCH   5  21
TORSDOF 2
ENDMDL
MODEL 3
REMARK VINA RESULT:      -6.0     22.884     25.277
REMARK  2 active torsions:
REMARK  status: ('A' for Active; 'I' for Inactive)
REMARK    1  A    between atoms: C5_5  and  N6_21 
REMARK    2  A    between atoms: C18_14  and  N17_19 
ROOT
HETATM    1  O1  MIQ B 502     -11.243  -3.863  16.332  1.00142.91    -0.171 OA
HETATM    2  C2  MIQ B 502      -9.860  -3.760  16.495  1.00141.17     0.195 A 
HETATM    3  C3  MIQ B 502      -9.082  -3.847  17.846  1.00141.71     0.035 A 
HETATM    4  C4  MIQ B 502      -9.502  -4.049  19.253  1.00142.86     0.046 A 
HETATM    5  C5  MIQ B 502      -8.538  -4.085  20.292  1.00139.53     0.031 A 
HETATM    6  C12 MIQ B 502      -7.126  -3.922  19.973  1.00139.38     0.030 A 
HETATM    7  C13 MIQ B 502      -6.723  -3.729  18.624  1.00141.18     0.019 A 
HETATM    8  C14 MIQ B 502      -7.740  -3.695  17.538  1.00138.77     0.033 A 
HETATM    9  C15 MIQ B 502      -7.685  -3.513  15.986  1.00142.10     0.195 A 
HETATM   10  N17 MIQ B 502      -8.938  -3.577  15.566  1.00139.42    -0.288 N 
HETATM   11  O16 MIQ B 502      -6.543  -3.321  15.207  1.00148.93    -0.171 OA
ENDROOT
BRANCH  10  12
HETATM   12  C18 MIQ B 502      -9.274  -3.431  14.162  1.00139.82     0.187 C 
HETATM   13  C19 MIQ B 502     -10.266  -2.267  14.037  1.00140.06     0.247 C 
HETATM   14  O25 MIQ B 502     -10.004  -1.231  14.538  1.00143.95    -0.271 OA
HETATM   15  N20 MIQ B 502     -11.515  -2.402  13.316  1.00140.02    -0.296 N 
HETATM   16  H13 MIQ B 502     -12.157  -1.637  13.248  1.00142.77     0.171 HD
HETATM   17  C21 MIQ B 502     -11.817  -3.680  12.723  1.00142.22     0.224 C 
HETATM   18  C22 MIQ B 502     -11.320  -4.908  13.461  1.00139.52     0.106 C 
HETATM   19  O24 MIQ B 502     -12.417  -3.763  11.709  1.00146.13    -0.273 OA
HETATM   20  C23 MIQ B 502      -9.818  -4.746  13.606  1.00139.15     0.045 C 
ENDBRANCH  10  12
BRANCH   5  21
HETATM   21  N6  MIQ B 502      -8.965  -4.269  21.667  1.00140.95    -0.377 N 
HETATM   22  C7  MIQ B 502      -8.533  -3.304  22.663  1.00142.12     0.149 C 
HETATM   23  C8  MIQ B 502      -8.478  -3.913  24.058  1.00144.10     0.187 C 
HETATM   24  O9  MIQ B 502      -9.630  -4.632  24.383  1.00148.65    -0.388 OA
HETATM   25  C10 MIQ B 502     -10.585  -4.919  23.404  1.00147.44     0.187 C 
HETATM   26  C11 MIQ B 502     -10.120  -5.097  21.963  1.00144.08     0.149 C 
ENDBRANCH   5  21
TORSDOF 2
ENDMDL
MODEL 4
REMARK VINA RESULT:      -6.0      1.664      2.355
REMARK  2 active torsions:
REMARK  status: ('A' for Active; 'I' for Inactive)
REMARK    1  A    between atoms: C5_5  and  N6_21 
REMARK    2  A    between atoms: C18_14  and  N17_19 
ROOT
HETATM    1  O1  MIQ B 502       8.972  10.177  18.711  1.00142.91    -0.171 OA
HETATM    2  C2  MIQ B 502       8.401  10.845  19.797  1.00141.17     0.195 A 
HETATM    3  C3  MIQ B 502       8.080  12.371  19.876  1.00141.71     0.035 A 
HETATM    4  C4  MIQ B 502       8.252  13.499  18.930  1.00142.86     0.046 A 
HETATM    5  C5  MIQ B 502       7.853  14.809  19.297  1.00139.53     0.031 A 
HETATM    6  C12 MIQ B 502       7.271  15.047  20.610  1.00139.38     0.030 A 
HETATM    7  C13 MIQ B 502       7.105  13.965  21.517  1.00141.18     0.019 A 
HETATM    8  C14 MIQ B 502       7.524  12.591  21.126  1.00138.77     0.033 A 
HETATM    9  C15 MIQ B 502       7.498  11.194  21.826  1.00142.10     0.195 A 
HETATM   10  N17 MIQ B 502       8.015  10.340  20.956  1.00139.42    -0.288 N 
HETATM   11  O16 MIQ B 502       7.028  10.910  23.109  1.00148.93    -0.171 OA
ENDROOT
BRANCH  10  12
HETATM   12  C18 MIQ B 502       8.165   8.933  21.275  1.00139.82     0.187 C 
HETATM   13  C19 MIQ B 502       6.774   8.376  21.602  1.00140.06     0.247 C 
HETATM   14  O25 MIQ B 502       5.886   8.564  20.848  1.00143.95    -0.271 OA
HETATM   15  N20 MIQ B 502       6.520   7.618  22.810  1.00140.02    -0.296 N 
HETATM   16  H13 MIQ B 502       5.606   7.266  23.015  1.00142.77     0.171 HD
HETATM   17  C21 MIQ B 502       7.617   7.410  23.719  1.00142.22     0.224 C 
HETATM   18  C22 MIQ B 502       8.642   8.524  23.817  1.00139.52     0.106 C 
HETATM   19  O24 MIQ B 502       7.715   6.417  24.353  1.00146.13    -0.273 OA
HETATM   20  C23 MIQ B 502       9.169   8.749  22.412  1.00139.15     0.045 C 
ENDBRANCH  10  12
BRANCH   5  21
HETATM   21  N6  MIQ B 502       8.041  15.907  18.366  1.00140.95    -0.377 N 
HETATM   22  C7  MIQ B 502       8.072  15.614  16.943  1.00142.12     0.149 C 
HETATM   23  C8  MIQ B 502       8.881  16.646  16.168  1.00144.10     0.187 C 
HETATM   24  O9  MIQ B 502       8.545  17.960  16.499  1.00148.65    -0.388 OA
HETATM   25  C10 MIQ B 502       7.722  18.225  17.596  1.00147.44     0.187 C 
HETATM   26  C11 MIQ B 502       7.759  17.269  18.784  1.00144.08     0.149 C 
ENDBRANCH   5  21
TORSDOF 2
ENDMDL
MODEL 5
REMARK VINA RESULT:      -6.0      1.183      2.494
REMARK  2 active torsions:
REMARK  status: ('A' for Active; 'I' for Inactive)
REMARK    1  A    between atoms: C5_5  and  N6_21 
REMARK    2  A    between atoms: C18_14  and  N17_19 
ROOT
HETATM    1  O1  MIQ B 502       7.605  13.757  22.301  1.00142.91    -0.171 OA
HETATM    2  C2  MIQ B 502       7.807  13.334  20.985  1.00141.17     0.195 A 
HETATM    3  C3  MIQ B 502       7.848  14.247  19.718  1.00141.71     0.035 A 
HETATM    4  C4  MIQ B 502       7.705  15.708  19.510  1.00142.86     0.046 A 
HETATM    5  C5  MIQ B 502       7.793  16.258  18.206  1.00139.53     0.031 A 
HETATM    6  C12 MIQ B 502       8.026  15.382  17.067  1.00139.38     0.030 A 
HETATM    7  C13 MIQ B 502       8.165  13.982  17.266  1.00141.18     0.019 A 
HETATM    8  C14 MIQ B 502       8.074  13.410  18.638  1.00138.77     0.033 A 
HETATM    9  C15 MIQ B 502       8.174  11.970  19.237  1.00142.10     0.195 A 
HETATM   10  N17 MIQ B 502       8.008  12.105  20.542  1.00139.42    -0.288 N 
HETATM   11  O16 MIQ B 502       8.393  10.785  18.532  1.00148.93    -0.171 OA
ENDROOT
BRANCH  10  12
HETATM   12  C18 MIQ B 502       8.024  10.957  21.431  1.00139.82     0.187 C 
HETATM   13  C19 MIQ B 502       9.299  10.157  21.137  1.00140.06     0.247 C 
HETATM   14  O25 MIQ B 502      10.338  10.715  21.120  1.00143.95    -0.271 OA
HETATM   15  N20 MIQ B 502       9.265   8.731  20.886  1.00140.02    -0.296 N 
HETATM   16  H13 MIQ B 502      10.104   8.221  20.690  1.00142.77     0.171 HD
HETATM   17  C21 MIQ B 502       7.984   8.074  20.903  1.00142.22     0.224 C 
HETATM   18  C22 MIQ B 502       6.798   8.881  20.411  1.00139.52     0.106 C 
HETATM   19  O24 MIQ B 502       7.864   6.962  21.287  1.00146.13    -0.273 OA
HETATM   20  C23 MIQ B 502       6.747  10.136  21.262  1.00139.15     0.045 C 
ENDBRANCH  10  12
BRANCH   5  21
HETATM   21  N6  MIQ B 502       7.636  17.688  18.015  1.00140.95    -0.377 N 
HETATM   22  C7  MIQ B 502       7.646  18.213  16.661  1.00142.12     0.149 C 
HETATM   23  C8  MIQ B 502       8.115  19.661  16.615  1.00144.10     0.187 C 
HETATM   24  O9  MIQ B 502       7.482  20.468  17.563  1.00148.65    -0.388 OA
HETATM   25  C10 MIQ B 502       6.694  19.896  18.565  1.00147.44     0.187 C 
HETATM   26  C11 MIQ B 502       7.050  18.501  19.067  1.00144.08     0.149 C 
ENDBRANCH   5  21
TORSDOF 2
ENDMDL
MODEL 6
REMARK VINA RESULT:      -5.9     22.327     26.036
REMARK  2 active torsions:
REMARK  status: ('A' for Active; 'I' for Inactive)
REMARK    1  A    between atoms: C5_5  and  N6_21 
REMARK    2  A    between atoms: C18_14  and  N17_19 
ROOT
HETATM    1  O1  MIQ B 502      -9.652  -7.038  17.111  1.00142.91    -0.171 OA
HETATM    2  C2  MIQ B 502      -9.318  -5.917  16.348  1.00141.17     0.195 A 
HETATM    3  C3  MIQ B 502     -10.201  -5.258  15.241  1.00141.71     0.035 A 
HETATM    4  C4  MIQ B 502     -11.543  -5.565  14.692  1.00142.86     0.046 A 
HETATM    5  C5  MIQ B 502     -12.096  -4.762  13.662  1.00139.53     0.031 A 
HETATM    6  C12 MIQ B 502     -11.342  -3.630  13.144  1.00139.38     0.030 A 
HETATM    7  C13 MIQ B 502     -10.056  -3.335  13.672  1.00141.18     0.019 A 
HETATM    8  C14 MIQ B 502      -9.481  -4.180  14.754  1.00138.77     0.033 A 
HETATM    9  C15 MIQ B 502      -8.143  -4.169  15.563  1.00142.10     0.195 A 
HETATM   10  N17 MIQ B 502      -8.215  -5.190  16.402  1.00139.42    -0.288 N 
HETATM   11  O16 MIQ B 502      -7.089  -3.265  15.423  1.00148.93    -0.171 OA
ENDROOT
BRANCH  10  12
HETATM   12  C18 MIQ B 502      -7.129  -5.500  17.312  1.00139.82     0.187 C 
HETATM   13  C19 MIQ B 502      -6.789  -4.222  18.088  1.00140.06     0.247 C 
HETATM   14  O25 MIQ B 502      -7.654  -3.625  18.622  1.00143.95    -0.271 OA
HETATM   15  N20 MIQ B 502      -5.431  -3.728  18.188  1.00140.02    -0.296 N 
HETATM   16  H13 MIQ B 502      -5.223  -2.888  18.691  1.00142.77     0.171 HD
HETATM   17  C21 MIQ B 502      -4.392  -4.468  17.517  1.00142.22     0.224 C 
HETATM   18  C22 MIQ B 502      -4.774  -5.154  16.220  1.00139.52     0.106 C 
HETATM   19  O24 MIQ B 502      -3.300  -4.540  17.962  1.00146.13    -0.273 OA
HETATM   20  C23 MIQ B 502      -5.938  -6.072  16.544  1.00139.15     0.045 C 
ENDBRANCH  10  12
BRANCH   5  21
HETATM   21  N6  MIQ B 502     -13.405  -5.083  13.123  1.00140.95    -0.377 N 
HETATM   22  C7  MIQ B 502     -13.879  -4.346  11.964  1.00142.12     0.149 C 
HETATM   23  C8  MIQ B 502     -15.400  -4.295  11.905  1.00144.10     0.187 C 
HETATM   24  O9  MIQ B 502     -15.994  -5.544  12.102  1.00148.65    -0.388 OA
HETATM   25  C10 MIQ B 502     -15.229  -6.630  12.534  1.00147.44     0.187 C 
HETATM   26  C11 MIQ B 502     -14.021  -6.364  13.426  1.00144.08     0.149 C 
ENDBRANCH   5  21
TORSDOF 2
ENDMDL
MODEL 7
REMARK VINA RESULT:      -5.9     18.767     22.990
REMARK  2 active torsions:
REMARK  status: ('A' for Active; 'I' for Inactive)
REMARK    1  A    between atoms: C5_5  and  N6_21 
REMARK    2  A    between atoms: C18_14  and  N17_19 
ROOT
HETATM    1  O1  MIQ B 502      -6.622  -2.664  14.632  1.00142.91    -0.171 OA
HETATM    2  C2  MIQ B 502      -6.569  -3.705  15.561  1.00141.17     0.195 A 
HETATM    3  C3  MIQ B 502      -5.278  -4.297  16.210  1.00141.71     0.035 A 
HETATM    4  C4  MIQ B 502      -3.835  -3.984  16.077  1.00142.86     0.046 A 
HETATM    5  C5  MIQ B 502      -2.872  -4.714  16.818  1.00139.53     0.031 A 
HETATM    6  C12 MIQ B 502      -3.304  -5.776  17.715  1.00139.38     0.030 A 
HETATM    7  C13 MIQ B 502      -4.687  -6.076  17.845  1.00141.18     0.019 A 
HETATM    8  C14 MIQ B 502      -5.694  -5.304  17.066  1.00138.77     0.033 A 
HETATM    9  C15 MIQ B 502      -7.252  -5.338  16.947  1.00142.10     0.195 A 
HETATM   10  N17 MIQ B 502      -7.573  -4.392  16.080  1.00139.42    -0.288 N 
HETATM   11  O16 MIQ B 502      -8.123  -6.196  17.621  1.00148.93    -0.171 OA
ENDROOT
BRANCH  10  12
HETATM   12  C18 MIQ B 502      -8.953  -4.143  15.707  1.00139.82     0.187 C 
HETATM   13  C19 MIQ B 502      -9.044  -4.210  14.177  1.00140.06     0.247 C 
HETATM   14  O25 MIQ B 502      -8.598  -5.146  13.615  1.00143.95    -0.271 OA
HETATM   15  N20 MIQ B 502      -9.668  -3.158  13.402  1.00140.02    -0.296 N 
HETATM   16  H13 MIQ B 502      -9.715  -3.210  12.404  1.00142.77     0.171 HD
HETATM   17  C21 MIQ B 502     -10.195  -2.020  14.111  1.00142.22     0.224 C 
HETATM   18  C22 MIQ B 502      -9.456  -1.596  15.365  1.00139.52     0.106 C 
HETATM   19  O24 MIQ B 502     -11.161  -1.451  13.735  1.00146.13    -0.273 OA
HETATM   20  C23 MIQ B 502      -9.425  -2.807  16.279  1.00139.15     0.045 C 
ENDBRANCH  10  12
BRANCH   5  21
HETATM   21  N6  MIQ B 502      -1.461  -4.408  16.666  1.00140.95    -0.377 N 
HETATM   22  C7  MIQ B 502      -1.000  -3.072  17.005  1.00142.12     0.149 C 
HETATM   23  C8  MIQ B 502       0.256  -2.691  16.233  1.00144.10     0.187 C 
HETATM   24  O9  MIQ B 502       1.235  -3.686  16.263  1.00148.65    -0.388 OA
HETATM   25  C10 MIQ B 502       0.938  -4.956  16.762  1.00147.44     0.187 C 
HETATM   26  C11 MIQ B 502      -0.486  -5.483  16.616  1.00144.08     0.149 C 
ENDBRANCH   5  21
TORSDOF 2
ENDMDL
MODEL 8
REMARK VINA RESULT:      -5.9      2.686      8.250
REMARK  2 active torsions:
REMARK  status: ('A' for Active; 'I' for Inactive)
REMARK    1  A    between atoms: C5_5  and  N6_21 
REMARK    2  A    between atoms: C18_14  and  N17_19 
ROOT
HETATM    1  O1  MIQ B 502       7.603  13.879  22.593  1.00142.91    -0.171 OA
HETATM    2  C2  MIQ B 502       7.729  13.318  21.320  1.00141.17     0.195 A 
HETATM    3  C3  MIQ B 502       7.634  11.799  20.968  1.00141.71     0.035 A 
HETATM    4  C4  MIQ B 502       7.400  10.579  21.776  1.00142.86     0.046 A 
HETATM    5  C5  MIQ B 502       7.366   9.304  21.155  1.00139.53     0.031 A 
HETATM    6  C12 MIQ B 502       7.560   9.196  19.716  1.00139.38     0.030 A 
HETATM    7  C13 MIQ B 502       7.783  10.366  18.941  1.00141.18     0.019 A 
HETATM    8  C14 MIQ B 502       7.815  11.701  19.598  1.00138.77     0.033 A 
HETATM    9  C15 MIQ B 502       8.024  13.168  19.097  1.00142.10     0.195 A 
HETATM   10  N17 MIQ B 502       7.944  13.936  20.171  1.00139.42    -0.288 N 
HETATM   11  O16 MIQ B 502       8.251  13.577  17.782  1.00148.93    -0.171 OA
ENDROOT
BRANCH  10  12
HETATM   12  C18 MIQ B 502       8.107  15.375  20.087  1.00139.82     0.187 C 
HETATM   13  C19 MIQ B 502       9.191  15.782  21.092  1.00140.06     0.247 C 
HETATM   14  O25 MIQ B 502      10.228  15.220  21.080  1.00143.95    -0.271 OA
HETATM   15  N20 MIQ B 502       8.980  16.844  22.055  1.00140.02    -0.296 N 
HETATM   16  H13 MIQ B 502       9.694  17.096  22.710  1.00142.77     0.171 HD
HETATM   17  C21 MIQ B 502       7.702  17.508  22.057  1.00142.22     0.224 C 
HETATM   18  C22 MIQ B 502       6.495  16.663  21.699  1.00139.52     0.106 C 
HETATM   19  O24 MIQ B 502       7.603  18.656  22.320  1.00146.13    -0.273 OA
HETATM   20  C23 MIQ B 502       6.771  16.076  20.326  1.00139.15     0.045 C 
ENDBRANCH  10  12
BRANCH   5  21
HETATM   21  N6  MIQ B 502       7.151   8.116  21.960  1.00140.95    -0.377 N 
HETATM   22  C7  MIQ B 502       8.084   7.010  21.828  1.00142.12     0.149 C 
HETATM   23  C8  MIQ B 502       7.437   5.676  22.179  1.00144.10     0.187 C 
HETATM   24  O9  MIQ B 502       6.725   5.716  23.380  1.00148.65    -0.388 OA
HETATM   25  C10 MIQ B 502       6.476   6.936  24.014  1.00147.44     0.187 C 
HETATM   26  C11 MIQ B 502       6.330   8.188  23.156  1.00144.08     0.149 C 
ENDBRANCH   5  21
TORSDOF 2
ENDMDL
MODEL 9
REMARK VINA RESULT:      -5.8     21.115     24.553
REMARK  2 active torsions:
REMARK  status: ('A' for Active; 'I' for Inactive)
REMARK    1  A    between atoms: C5_5  and  N6_21 
REMARK    2  A    between atoms: C18_14  and  N17_19 
ROOT
HETATM    1  O1  MIQ B 502      -6.552  -3.355  15.399  1.00142.91    -0.171 OA
HETATM    2  C2  MIQ B 502      -7.734  -3.547  16.118  1.00141.17     0.195 A 
HETATM    3  C3  MIQ B 502      -7.862  -3.659  17.671  1.00141.71     0.035 A 
HETATM    4  C4  MIQ B 502      -6.880  -3.604  18.780  1.00142.86     0.046 A 
HETATM    5  C5  MIQ B 502      -7.310  -3.740  20.124  1.00139.53     0.031 A 
HETATM    6  C12 MIQ B 502      -8.723  -3.935  20.415  1.00139.38     0.030 A 
HETATM    7  C13 MIQ B 502      -9.664  -3.988  19.352  1.00141.18     0.019 A 
HETATM    8  C14 MIQ B 502      -9.208  -3.841  17.942  1.00138.77     0.033 A 
HETATM    9  C15 MIQ B 502      -9.920  -3.841  16.551  1.00142.10     0.195 A 
HETATM   10  N17 MIQ B 502      -8.966  -3.665  15.652  1.00139.42    -0.288 N 
HETATM   11  O16 MIQ B 502     -11.286  -3.998  16.311  1.00148.93    -0.171 OA
ENDROOT
BRANCH  10  12
HETATM   12  C18 MIQ B 502      -9.261  -3.628  14.232  1.00139.82     0.187 C 
HETATM   13  C19 MIQ B 502     -10.272  -2.500  13.994  1.00140.06     0.247 C 
HETATM   14  O25 MIQ B 502     -10.049  -1.425  14.426  1.00143.95    -0.271 OA
HETATM   15  N20 MIQ B 502     -11.495  -2.716  13.247  1.00140.02    -0.296 N 
HETATM   16  H13 MIQ B 502     -12.150  -1.973  13.104  1.00142.77     0.171 HD
HETATM   17  C21 MIQ B 502     -11.750  -4.039  12.738  1.00142.22     0.224 C 
HETATM   18  C22 MIQ B 502     -11.251  -5.199  13.577  1.00139.52     0.106 C 
HETATM   19  O24 MIQ B 502     -12.316  -4.209  11.715  1.00146.13    -0.273 OA
HETATM   20  C23 MIQ B 502      -9.758  -4.992  13.755  1.00139.15     0.045 C 
ENDBRANCH  10  12
BRANCH   5  21
HETATM   21  N6  MIQ B 502      -6.337  -3.698  21.200  1.00140.95    -0.377 N 
HETATM   22  C7  MIQ B 502      -6.384  -4.732  22.220  1.00142.12     0.149 C 
HETATM   23  C8  MIQ B 502      -5.808  -4.249  23.546  1.00144.10     0.187 C 
HETATM   24  O9  MIQ B 502      -4.575  -3.609  23.401  1.00148.65    -0.388 OA
HETATM   25  C10 MIQ B 502      -4.097  -3.273  22.132  1.00147.44     0.187 C 
HETATM   26  C11 MIQ B 502      -5.105  -2.947  21.035  1.00144.08     0.149 C 
ENDBRANCH   5  21
TORSDOF 2
ENDMDL
