MODEL 1
REMARK VINA RESULT:      -6.2      0.000      0.000
REMARK  2 active torsions:
REMARK  status: ('A' for Active; 'I' for Inactive)
REMARK    1  A    between atoms: C5_5  and  N6_21 
REMARK    2  A    between atoms: C18_14  and  N17_19 
ROOT
HETATM    1  O1  MIQ B 502     -18.587   3.959  -1.227  1.00142.91    -0.171 OA
HETATM    2  C2  MIQ B 502     -19.653   3.569  -0.414  1.00141.17     0.195 A 
HETATM    3  C3  MIQ B 502     -19.585   2.553   0.771  1.00141.71     0.035 A 
HETATM    4  C4  MIQ B 502     -18.489   1.753   1.366  1.00142.86     0.046 A 
HETATM    5  C5  MIQ B 502     -18.743   0.897   2.467  1.00139.53     0.031 A 
HETATM    6  C12 MIQ B 502     -20.088   0.805   3.016  1.00139.38     0.030 A 
HETATM    7  C13 MIQ B 502     -21.139   1.573   2.447  1.00141.18     0.019 A 
HETATM    8  C14 MIQ B 502     -20.866   2.472   1.292  1.00138.77     0.033 A 
HETATM    9  C15 MIQ B 502     -21.734   3.443   0.427  1.00142.10     0.195 A 
HETATM   10  N17 MIQ B 502     -20.912   3.969  -0.466  1.00139.42    -0.288 N 
HETATM   11  O16 MIQ B 502     -23.099   3.698   0.570  1.00148.93    -0.171 OA
ENDROOT
BRANCH  10  12
HETATM   12  C18 MIQ B 502     -21.379   4.917  -1.460  1.00139.82     0.187 C 
HETATM   13  C19 MIQ B 502     -21.141   4.300  -2.844  1.00140.06     0.247 C 
HETATM   14  O25 MIQ B 502     -21.527   3.207  -3.061  1.00143.95    -0.271 OA
HETATM   15  N20 MIQ B 502     -20.457   5.025  -3.896  1.00140.02    -0.296 N 
HETATM   16  H13 MIQ B 502     -20.302   4.608  -4.793  1.00142.77     0.171 HD
HETATM   17  C21 MIQ B 502     -19.985   6.353  -3.603  1.00142.22     0.224 C 
HETATM   18  C22 MIQ B 502     -19.520   6.613  -2.183  1.00139.52     0.106 C 
HETATM   19  O24 MIQ B 502     -19.968   7.199  -4.428  1.00146.13    -0.273 OA
HETATM   20  C23 MIQ B 502     -20.686   6.266  -1.276  1.00139.15     0.045 C 
ENDBRANCH  10  12
BRANCH   5  21
HETATM   21  N6  MIQ B 502     -17.662   0.108   3.031  1.00140.95    -0.377 N 
HETATM   22  C7  MIQ B 502     -17.994  -1.114   3.744  1.00142.12     0.149 C 
HETATM   23  C8  MIQ B 502     -16.938  -1.470   4.783  1.00144.10     0.187 C 
HETATM   24  O9  MIQ B 502     -15.637  -1.407   4.279  1.00148.65    -0.388 OA
HETATM   25  C10 MIQ B 502     -15.390  -0.844   3.024  1.00147.44     0.187 C 
HETATM   26  C11 MIQ B 502     -16.308   0.271   2.532  1.00144.08     0.149 C 
ENDBRANCH   5  21
TORSDOF 2
ENDMDL
MODEL 2
REMARK VINA RESULT:      -6.2     10.516     12.524
REMARK  2 active torsions:
REMARK  status: ('A' for Active; 'I' for Inactive)
REMARK    1  A    between atoms: C5_5  and  N6_21 
REMARK    2  A    between atoms: C18_14  and  N17_19 
ROOT
HETATM    1  O1  MIQ B 502     -16.078  -0.202   9.489  1.00142.91    -0.171 OA
HETATM    2  C2  MIQ B 502     -15.238   0.913   9.456  1.00141.17     0.195 A 
HETATM    3  C3  MIQ B 502     -15.556   2.325  10.044  1.00141.71     0.035 A 
HETATM    4  C4  MIQ B 502     -16.725   2.891  10.758  1.00142.86     0.046 A 
HETATM    5  C5  MIQ B 502     -16.719   4.244  11.181  1.00139.53     0.031 A 
HETATM    6  C12 MIQ B 502     -15.558   5.081  10.913  1.00139.38     0.030 A 
HETATM    7  C13 MIQ B 502     -14.437   4.538  10.229  1.00141.18     0.019 A 
HETATM    8  C14 MIQ B 502     -14.448   3.116   9.789  1.00138.77     0.033 A 
HETATM    9  C15 MIQ B 502     -13.435   2.190   9.039  1.00142.10     0.195 A 
HETATM   10  N17 MIQ B 502     -14.025   1.010   8.939  1.00139.42    -0.288 N 
HETATM   11  O16 MIQ B 502     -12.169   2.543   8.570  1.00148.93    -0.171 OA
ENDROOT
BRANCH  10  12
HETATM   12  C18 MIQ B 502     -13.377  -0.107   8.277  1.00139.82     0.187 C 
HETATM   13  C19 MIQ B 502     -12.007  -0.311   8.937  1.00140.06     0.247 C 
HETATM   14  O25 MIQ B 502     -11.941  -0.396  10.111  1.00143.95    -0.271 OA
HETATM   15  N20 MIQ B 502     -10.791  -0.407   8.156  1.00140.02    -0.296 N 
HETATM   16  H13 MIQ B 502      -9.902  -0.533   8.599  1.00142.77     0.171 HD
HETATM   17  C21 MIQ B 502     -10.896  -0.289   6.725  1.00142.22     0.224 C 
HETATM   18  C22 MIQ B 502     -11.974   0.638   6.195  1.00139.52     0.106 C 
HETATM   19  O24 MIQ B 502     -10.181  -0.890   6.001  1.00146.13    -0.273 OA
HETATM   20  C23 MIQ B 502     -13.288   0.145   6.773  1.00139.15     0.045 C 
ENDBRANCH  10  12
BRANCH   5  21
HETATM   21  N6  MIQ B 502     -17.877   4.790  11.867  1.00140.95    -0.377 N 
HETATM   22  C7  MIQ B 502     -17.694   5.368  13.187  1.00142.12     0.149 C 
HETATM   23  C8  MIQ B 502     -18.967   5.298  14.020  1.00144.10     0.187 C 
HETATM   24  O9  MIQ B 502     -20.095   5.741  13.326  1.00148.65    -0.388 OA
HETATM   25  C10 MIQ B 502     -20.031   5.981  11.951  1.00147.44     0.187 C 
HETATM   26  C11 MIQ B 502     -19.062   5.157  11.111  1.00144.08     0.149 C 
ENDBRANCH   5  21
TORSDOF 2
ENDMDL
MODEL 3
REMARK VINA RESULT:      -6.1      9.720     11.922
REMARK  2 active torsions:
REMARK  status: ('A' for Active; 'I' for Inactive)
REMARK    1  A    between atoms: C5_5  and  N6_21 
REMARK    2  A    between atoms: C18_14  and  N17_19 
ROOT
HETATM    1  O1  MIQ B 502     -13.017   2.203   9.255  1.00142.91    -0.171 OA
HETATM    2  C2  MIQ B 502     -14.235   1.586   8.959  1.00141.17     0.195 A 
HETATM    3  C3  MIQ B 502     -15.630   1.969   9.548  1.00141.71     0.035 A 
HETATM    4  C4  MIQ B 502     -16.081   3.003  10.508  1.00142.86     0.046 A 
HETATM    5  C5  MIQ B 502     -17.452   3.109  10.856  1.00139.53     0.031 A 
HETATM    6  C12 MIQ B 502     -18.420   2.197  10.264  1.00139.38     0.030 A 
HETATM    7  C13 MIQ B 502     -17.987   1.206   9.342  1.00141.18     0.019 A 
HETATM    8  C14 MIQ B 502     -16.548   1.101   8.980  1.00138.77     0.033 A 
HETATM    9  C15 MIQ B 502     -15.718   0.174   8.032  1.00142.10     0.195 A 
HETATM   10  N17 MIQ B 502     -14.462   0.576   8.136  1.00139.42    -0.288 N 
HETATM   11  O16 MIQ B 502     -16.208  -0.867   7.242  1.00148.93    -0.171 OA
ENDROOT
BRANCH  10  12
HETATM   12  C18 MIQ B 502     -13.395  -0.075   7.400  1.00139.82     0.187 C 
HETATM   13  C19 MIQ B 502     -12.313  -0.483   8.407  1.00140.06     0.247 C 
HETATM   14  O25 MIQ B 502     -12.621  -1.094   9.368  1.00143.95    -0.271 OA
HETATM   15  N20 MIQ B 502     -10.918  -0.144   8.210  1.00140.02    -0.296 N 
HETATM   16  H13 MIQ B 502     -10.222  -0.410   8.878  1.00142.77     0.171 HD
HETATM   17  C21 MIQ B 502     -10.568   0.612   7.035  1.00142.22     0.224 C 
HETATM   18  C22 MIQ B 502     -11.590   1.618   6.542  1.00139.52     0.106 C 
HETATM   19  O24 MIQ B 502      -9.536   0.450   6.481  1.00146.13    -0.273 OA
HETATM   20  C23 MIQ B 502     -12.873   0.844   6.296  1.00139.15     0.045 C 
ENDBRANCH  10  12
BRANCH   5  21
HETATM   21  N6  MIQ B 502     -17.878   4.117  11.809  1.00140.95    -0.377 N 
HETATM   22  C7  MIQ B 502     -16.863   4.900  12.492  1.00142.12     0.149 C 
HETATM   23  C8  MIQ B 502     -17.349   5.407  13.844  1.00144.10     0.187 C 
HETATM   24  O9  MIQ B 502     -18.614   5.994  13.782  1.00148.65    -0.388 OA
HETATM   25  C10 MIQ B 502     -19.389   5.883  12.625  1.00147.44     0.187 C 
HETATM   26  C11 MIQ B 502     -19.233   4.637  11.759  1.00144.08     0.149 C 
ENDBRANCH   5  21
TORSDOF 2
ENDMDL
MODEL 4
REMARK VINA RESULT:      -6.0      2.042      7.838
REMARK  2 active torsions:
REMARK  status: ('A' for Active; 'I' for Inactive)
REMARK    1  A    between atoms: C5_5  and  N6_21 
REMARK    2  A    between atoms: C18_14  and  N17_19 
ROOT
HETATM    1  O1  MIQ B 502     -17.880   1.478   1.498  1.00142.91    -0.171 OA
HETATM    2  C2  MIQ B 502     -19.270   1.615   1.513  1.00141.17     0.195 A 
HETATM    3  C3  MIQ B 502     -20.094   2.733   0.799  1.00141.71     0.035 A 
HETATM    4  C4  MIQ B 502     -19.720   3.895  -0.042  1.00142.86     0.046 A 
HETATM    5  C5  MIQ B 502     -20.721   4.755  -0.562  1.00139.53     0.031 A 
HETATM    6  C12 MIQ B 502     -22.122   4.494  -0.268  1.00139.38     0.030 A 
HETATM    7  C13 MIQ B 502     -22.481   3.380   0.538  1.00141.18     0.019 A 
HETATM    8  C14 MIQ B 502     -21.427   2.479   1.079  1.00138.77     0.033 A 
HETATM    9  C15 MIQ B 502     -21.430   1.195   1.971  1.00142.10     0.195 A 
HETATM   10  N17 MIQ B 502     -20.162   0.845   2.112  1.00139.42    -0.288 N 
HETATM   11  O16 MIQ B 502     -22.548   0.553   2.508  1.00148.93    -0.171 OA
ENDROOT
BRANCH  10  12
HETATM   12  C18 MIQ B 502     -19.779  -0.310   2.903  1.00139.82     0.187 C 
HETATM   13  C19 MIQ B 502     -18.829   0.173   4.006  1.00140.06     0.247 C 
HETATM   14  O25 MIQ B 502     -19.149   1.083   4.683  1.00143.95    -0.271 OA
HETATM   15  N20 MIQ B 502     -17.549  -0.463   4.243  1.00140.02    -0.296 N 
HETATM   16  H13 MIQ B 502     -16.935  -0.134   4.962  1.00142.77     0.171 HD
HETATM   17  C21 MIQ B 502     -17.176  -1.566   3.396  1.00142.22     0.224 C 
HETATM   18  C22 MIQ B 502     -17.653  -1.512   1.957  1.00139.52     0.106 C 
HETATM   19  O24 MIQ B 502     -16.535  -2.471   3.805  1.00146.13    -0.273 OA
HETATM   20  C23 MIQ B 502     -19.165  -1.386   2.008  1.00139.15     0.045 C 
ENDBRANCH  10  12
BRANCH   5  21
HETATM   21  N6  MIQ B 502     -20.339   5.897  -1.373  1.00140.95    -0.377 N 
HETATM   22  C7  MIQ B 502     -19.287   5.728  -2.360  1.00142.12     0.149 C 
HETATM   23  C8  MIQ B 502     -18.564   7.037  -2.650  1.00144.10     0.187 C 
HETATM   24  O9  MIQ B 502     -19.439   8.100  -2.887  1.00148.65    -0.388 OA
HETATM   25  C10 MIQ B 502     -20.806   7.961  -2.634  1.00147.44     0.187 C 
HETATM   26  C11 MIQ B 502     -21.250   7.019  -1.519  1.00144.08     0.149 C 
ENDBRANCH   5  21
TORSDOF 2
ENDMDL
MODEL 5
REMARK VINA RESULT:      -5.8     13.128     17.868
REMARK  2 active torsions:
REMARK  status: ('A' for Active; 'I' for Inactive)
REMARK    1  A    between atoms: C5_5  and  N6_21 
REMARK    2  A    between atoms: C18_14  and  N17_19 
ROOT
HETATM    1  O1  MIQ B 502     -13.503   4.678  17.362  1.00142.91    -0.171 OA
HETATM    2  C2  MIQ B 502     -13.237   3.819  16.294  1.00141.17     0.195 A 
HETATM    3  C3  MIQ B 502     -14.096   3.664  14.999  1.00141.71     0.035 A 
HETATM    4  C4  MIQ B 502     -15.342   4.307  14.520  1.00142.86     0.046 A 
HETATM    5  C5  MIQ B 502     -15.897   3.949  13.265  1.00139.53     0.031 A 
HETATM    6  C12 MIQ B 502     -15.237   2.945  12.443  1.00139.38     0.030 A 
HETATM    7  C13 MIQ B 502     -14.041   2.329  12.901  1.00141.18     0.019 A 
HETATM    8  C14 MIQ B 502     -13.462   2.710  14.218  1.00138.77     0.033 A 
HETATM    9  C15 MIQ B 502     -12.202   2.271  15.034  1.00142.10     0.195 A 
HETATM   10  N17 MIQ B 502     -12.225   2.980  16.151  1.00139.42    -0.288 N 
HETATM   11  O16 MIQ B 502     -11.251   1.322  14.656  1.00148.93    -0.171 OA
ENDROOT
BRANCH  10  12
HETATM   12  C18 MIQ B 502     -11.203   2.822  17.168  1.00139.82     0.187 C 
HETATM   13  C19 MIQ B 502     -11.910   2.589  18.509  1.00140.06     0.247 C 
HETATM   14  O25 MIQ B 502     -12.739   1.754  18.585  1.00143.95    -0.271 OA
HETATM   15  N20 MIQ B 502     -11.584   3.363  19.689  1.00140.02    -0.296 N 
HETATM   16  H13 MIQ B 502     -12.057   3.205  20.557  1.00142.77     0.171 HD
HETATM   17  C21 MIQ B 502     -10.575   4.384  19.569  1.00142.22     0.224 C 
HETATM   18  C22 MIQ B 502     -10.491   5.104  18.237  1.00139.52     0.106 C 
HETATM   19  O24 MIQ B 502      -9.847   4.641  20.463  1.00146.13    -0.273 OA
HETATM   20  C23 MIQ B 502     -10.274   4.035  17.182  1.00139.15     0.045 C 
ENDBRANCH  10  12
BRANCH   5  21
HETATM   21  N6  MIQ B 502     -17.126   4.577  12.815  1.00140.95    -0.377 N 
HETATM   22  C7  MIQ B 502     -17.643   5.709  13.564  1.00142.12     0.149 C 
HETATM   23  C8  MIQ B 502     -19.153   5.844  13.420  1.00144.10     0.187 C 
HETATM   24  O9  MIQ B 502     -19.582   5.760  12.094  1.00148.65    -0.388 OA
HETATM   25  C10 MIQ B 502     -18.699   5.359  11.088  1.00147.44     0.187 C 
HETATM   26  C11 MIQ B 502     -17.578   4.390  11.447  1.00144.08     0.149 C 
ENDBRANCH   5  21
TORSDOF 2
ENDMDL
MODEL 6
REMARK VINA RESULT:      -5.8     12.216     14.895
REMARK  2 active torsions:
REMARK  status: ('A' for Active; 'I' for Inactive)
REMARK    1  A    between atoms: C5_5  and  N6_21 
REMARK    2  A    between atoms: C18_14  and  N17_19 
ROOT
HETATM    1  O1  MIQ B 502     -19.011   4.169  14.882  1.00142.91    -0.171 OA
HETATM    2  C2  MIQ B 502     -17.995   4.022  13.936  1.00141.17     0.195 A 
HETATM    3  C3  MIQ B 502     -16.460   4.011  14.226  1.00141.71     0.035 A 
HETATM    4  C4  MIQ B 502     -15.656   4.135  15.465  1.00142.86     0.046 A 
HETATM    5  C5  MIQ B 502     -14.240   4.085  15.409  1.00139.53     0.031 A 
HETATM    6  C12 MIQ B 502     -13.574   3.908  14.127  1.00139.38     0.030 A 
HETATM    7  C13 MIQ B 502     -14.344   3.787  12.939  1.00141.18     0.019 A 
HETATM    8  C14 MIQ B 502     -15.830   3.839  13.004  1.00138.77     0.033 A 
HETATM    9  C15 MIQ B 502     -16.981   3.743  11.949  1.00142.10     0.195 A 
HETATM   10  N17 MIQ B 502     -18.110   3.860  12.629  1.00139.42    -0.288 N 
HETATM   11  O16 MIQ B 502     -16.839   3.571  10.571  1.00148.93    -0.171 OA
ENDROOT
BRANCH  10  12
HETATM   12  C18 MIQ B 502     -19.399   3.831  11.965  1.00139.82     0.187 C 
HETATM   13  C19 MIQ B 502     -20.182   5.072  12.411  1.00140.06     0.247 C 
HETATM   14  O25 MIQ B 502     -19.672   6.133  12.337  1.00143.95    -0.271 OA
HETATM   15  N20 MIQ B 502     -21.536   4.980  12.918  1.00140.02    -0.296 N 
HETATM   16  H13 MIQ B 502     -22.034   5.797  13.212  1.00142.77     0.171 HD
HETATM   17  C21 MIQ B 502     -22.134   3.673  13.009  1.00142.22     0.224 C 
HETATM   18  C22 MIQ B 502     -21.205   2.519  13.335  1.00139.52     0.106 C 
HETATM   19  O24 MIQ B 502     -23.292   3.509  12.834  1.00146.13    -0.273 OA
HETATM   20  C23 MIQ B 502     -20.125   2.521  12.268  1.00139.15     0.045 C 
ENDBRANCH  10  12
BRANCH   5  21
HETATM   21  N6  MIQ B 502     -13.465   4.223  16.628  1.00140.95    -0.377 N 
HETATM   22  C7  MIQ B 502     -14.165   4.208  17.902  1.00142.12     0.149 C 
HETATM   23  C8  MIQ B 502     -13.404   4.973  18.977  1.00144.10     0.187 C 
HETATM   24  O9  MIQ B 502     -12.052   4.631  19.035  1.00148.65    -0.388 OA
HETATM   25  C10 MIQ B 502     -11.478   3.843  18.034  1.00147.44     0.187 C 
HETATM   26  C11 MIQ B 502     -12.041   3.937  16.619  1.00144.08     0.149 C 
ENDBRANCH   5  21
TORSDOF 2
ENDMDL
MODEL 7
REMARK VINA RESULT:      -5.8     12.646     15.921
REMARK  2 active torsions:
REMARK  status: ('A' for Active; 'I' for Inactive)
REMARK    1  A    between atoms: C5_5  and  N6_21 
REMARK    2  A    between atoms: C18_14  and  N17_19 
ROOT
HETATM    1  O1  MIQ B 502     -16.076   5.153  14.396  1.00142.91    -0.171 OA
HETATM    2  C2  MIQ B 502     -15.087   4.214  14.091  1.00141.17     0.195 A 
HETATM    3  C3  MIQ B 502     -13.958   3.719  15.050  1.00141.71     0.035 A 
HETATM    4  C4  MIQ B 502     -13.598   4.040  16.451  1.00142.86     0.046 A 
HETATM    5  C5  MIQ B 502     -12.489   3.409  17.069  1.00139.53     0.031 A 
HETATM    6  C12 MIQ B 502     -11.700   2.440  16.321  1.00139.38     0.030 A 
HETATM    7  C13 MIQ B 502     -12.046   2.131  14.978  1.00141.18     0.019 A 
HETATM    8  C14 MIQ B 502     -13.213   2.795  14.336  1.00138.77     0.033 A 
HETATM    9  C15 MIQ B 502     -13.884   2.716  12.925  1.00142.10     0.195 A 
HETATM   10  N17 MIQ B 502     -14.903   3.558  12.958  1.00139.42    -0.288 N 
HETATM   11  O16 MIQ B 502     -13.482   1.918  11.852  1.00148.93    -0.171 OA
ENDROOT
BRANCH  10  12
HETATM   12  C18 MIQ B 502     -15.756   3.760  11.801  1.00139.82     0.187 C 
HETATM   13  C19 MIQ B 502     -15.778   5.262  11.493  1.00140.06     0.247 C 
HETATM   14  O25 MIQ B 502     -14.756   5.845  11.395  1.00143.95    -0.271 OA
HETATM   15  N20 MIQ B 502     -17.019   5.987  11.313  1.00140.02    -0.296 N 
HETATM   16  H13 MIQ B 502     -17.019   6.969  11.119  1.00142.77     0.171 HD
HETATM   17  C21 MIQ B 502     -18.252   5.257  11.449  1.00142.22     0.224 C 
HETATM   18  C22 MIQ B 502     -18.266   4.123  12.456  1.00139.52     0.106 C 
HETATM   19  O24 MIQ B 502     -19.204   5.526  10.802  1.00146.13    -0.273 OA
HETATM   20  C23 MIQ B 502     -17.146   3.179  12.057  1.00139.15     0.045 C 
ENDBRANCH  10  12
BRANCH   5  21
HETATM   21  N6  MIQ B 502     -12.139   3.744  18.437  1.00140.95    -0.377 N 
HETATM   22  C7  MIQ B 502     -10.978   4.586  18.671  1.00142.12     0.149 C 
HETATM   23  C8  MIQ B 502     -10.360   4.336  20.040  1.00144.10     0.187 C 
HETATM   24  O9  MIQ B 502     -11.305   4.323  21.068  1.00148.65    -0.388 OA
HETATM   25  C10 MIQ B 502     -12.671   4.310  20.774  1.00147.44     0.187 C 
HETATM   26  C11 MIQ B 502     -13.134   3.632  19.489  1.00144.08     0.149 C 
ENDBRANCH   5  21
TORSDOF 2
ENDMDL
MODEL 8
REMARK VINA RESULT:      -5.7     12.922     18.238
REMARK  2 active torsions:
REMARK  status: ('A' for Active; 'I' for Inactive)
REMARK    1  A    between atoms: C5_5  and  N6_21 
REMARK    2  A    between atoms: C18_14  and  N17_19 
ROOT
HETATM    1  O1  MIQ B 502     -12.056   3.747  17.595  1.00142.91    -0.171 OA
HETATM    2  C2  MIQ B 502     -11.999   2.903  16.484  1.00141.17     0.195 A 
HETATM    3  C3  MIQ B 502     -12.872   3.015  15.194  1.00141.71     0.035 A 
HETATM    4  C4  MIQ B 502     -13.935   3.954  14.762  1.00142.86     0.046 A 
HETATM    5  C5  MIQ B 502     -14.559   3.797  13.498  1.00139.53     0.031 A 
HETATM    6  C12 MIQ B 502     -14.153   2.708  12.622  1.00139.38     0.030 A 
HETATM    7  C13 MIQ B 502     -13.134   1.808  13.036  1.00141.18     0.019 A 
HETATM    8  C14 MIQ B 502     -12.480   1.979  14.362  1.00138.77     0.033 A 
HETATM    9  C15 MIQ B 502     -11.357   1.219  15.140  1.00142.10     0.195 A 
HETATM   10  N17 MIQ B 502     -11.212   1.858  16.289  1.00139.42    -0.288 N 
HETATM   11  O16 MIQ B 502     -10.655   0.094  14.706  1.00148.93    -0.171 OA
ENDROOT
BRANCH  10  12
HETATM   12  C18 MIQ B 502     -10.254   1.417  17.286  1.00139.82     0.187 C 
HETATM   13  C19 MIQ B 502      -8.910   1.201  16.579  1.00140.06     0.247 C 
HETATM   14  O25 MIQ B 502      -8.473   2.059  15.898  1.00143.95    -0.271 OA
HETATM   15  N20 MIQ B 502      -8.157  -0.027  16.729  1.00140.02    -0.296 N 
HETATM   16  H13 MIQ B 502      -7.284  -0.159  16.257  1.00142.77     0.171 HD
HETATM   17  C21 MIQ B 502      -8.716  -1.064  17.558  1.00142.22     0.224 C 
HETATM   18  C22 MIQ B 502     -10.228  -1.186  17.570  1.00139.52     0.106 C 
HETATM   19  O24 MIQ B 502      -8.029  -1.780  18.200  1.00146.13    -0.273 OA
HETATM   20  C23 MIQ B 502     -10.766   0.167  17.999  1.00139.15     0.045 C 
ENDBRANCH  10  12
BRANCH   5  21
HETATM   21  N6  MIQ B 502     -15.608   4.715  13.094  1.00140.95    -0.377 N 
HETATM   22  C7  MIQ B 502     -15.845   4.918  11.675  1.00142.12     0.149 C 
HETATM   23  C8  MIQ B 502     -16.450   6.286  11.389  1.00144.10     0.187 C 
HETATM   24  O9  MIQ B 502     -17.528   6.589  12.223  1.00148.65    -0.388 OA
HETATM   25  C10 MIQ B 502     -17.815   5.785  13.329  1.00147.44     0.187 C 
HETATM   26  C11 MIQ B 502     -16.664   5.068  14.027  1.00144.08     0.149 C 
ENDBRANCH   5  21
TORSDOF 2
ENDMDL
MODEL 9
REMARK VINA RESULT:      -5.7     26.699     28.419
REMARK  2 active torsions:
REMARK  status: ('A' for Active; 'I' for Inactive)
REMARK    1  A    between atoms: C5_5  and  N6_21 
REMARK    2  A    between atoms: C18_14  and  N17_19 
ROOT
HETATM    1  O1  MIQ B 502      -5.287  14.287  20.004  1.00142.91    -0.171 OA
HETATM    2  C2  MIQ B 502      -3.917  14.419  19.763  1.00141.17     0.195 A 
HETATM    3  C3  MIQ B 502      -2.780  13.572  20.417  1.00141.71     0.035 A 
HETATM    4  C4  MIQ B 502      -2.772  12.464  21.402  1.00142.86     0.046 A 
HETATM    5  C5  MIQ B 502      -1.548  11.879  21.813  1.00139.53     0.031 A 
HETATM    6  C12 MIQ B 502      -0.292  12.370  21.264  1.00139.38     0.030 A 
HETATM    7  C13 MIQ B 502      -0.299  13.431  20.320  1.00141.18     0.019 A 
HETATM    8  C14 MIQ B 502      -1.588  14.040  19.890  1.00138.77     0.033 A 
HETATM    9  C15 MIQ B 502      -1.987  15.184  18.902  1.00142.10     0.195 A 
HETATM   10  N17 MIQ B 502      -3.307  15.262  18.948  1.00139.42    -0.288 N 
HETATM   11  O16 MIQ B 502      -1.122  15.963  18.131  1.00148.93    -0.171 OA
ENDROOT
BRANCH  10  12
HETATM   12  C18 MIQ B 502      -4.036  16.239  18.160  1.00139.82     0.187 C 
HETATM   13  C19 MIQ B 502      -3.548  16.128  16.711  1.00140.06     0.247 C 
HETATM   14  O25 MIQ B 502      -3.526  15.070  16.189  1.00143.95    -0.271 OA
HETATM   15  N20 MIQ B 502      -3.118  17.289  15.959  1.00140.02    -0.296 N 
HETATM   16  H13 MIQ B 502      -2.796  17.203  15.015  1.00142.77     0.171 HD
HETATM   17  C21 MIQ B 502      -3.144  18.569  16.620  1.00142.22     0.224 C 
HETATM   18  C22 MIQ B 502      -2.850  18.573  18.107  1.00139.52     0.106 C 
HETATM   19  O24 MIQ B 502      -3.389  19.564  16.031  1.00146.13    -0.273 OA
HETATM   20  C23 MIQ B 502      -3.858  17.637  18.749  1.00139.15     0.045 C 
ENDBRANCH  10  12
BRANCH   5  21
HETATM   21  N6  MIQ B 502      -1.555  10.804  22.789  1.00140.95    -0.377 N 
HETATM   22  C7  MIQ B 502      -2.657   9.858  22.773  1.00142.12     0.149 C 
HETATM   23  C8  MIQ B 502      -2.893   9.237  24.144  1.00144.10     0.187 C 
HETATM   24  O9  MIQ B 502      -1.719   8.775  24.741  1.00148.65    -0.388 OA
HETATM   25  C10 MIQ B 502      -0.473   9.094  24.193  1.00147.44     0.187 C 
HETATM   26  C11 MIQ B 502      -0.320  10.416  23.449  1.00144.08     0.149 C 
ENDBRANCH   5  21
TORSDOF 2
ENDMDL
