MODEL 1
REMARK VINA RESULT:      -6.8      0.000      0.000
REMARK  2 active torsions:
REMARK  status: ('A' for Active; 'I' for Inactive)
REMARK    1  A    between atoms: C5_5  and  N6_21 
REMARK    2  A    between atoms: C18_14  and  N17_19 
ROOT
HETATM    1  O1  MIQ B 502      -9.396   1.749  11.763  1.00142.91    -0.171 OA
HETATM    2  C2  MIQ B 502      -9.867   2.268  12.971  1.00141.17     0.195 A 
HETATM    3  C3  MIQ B 502     -10.717   3.567  13.147  1.00141.71     0.035 A 
HETATM    4  C4  MIQ B 502     -11.252   4.572  12.198  1.00142.86     0.046 A 
HETATM    5  C5  MIQ B 502     -12.010   5.672  12.671  1.00139.53     0.031 A 
HETATM    6  C12 MIQ B 502     -12.265   5.815  14.097  1.00139.38     0.030 A 
HETATM    7  C13 MIQ B 502     -11.753   4.851  15.008  1.00141.18     0.019 A 
HETATM    8  C14 MIQ B 502     -10.959   3.697  14.505  1.00138.77     0.033 A 
HETATM    9  C15 MIQ B 502     -10.257   2.471  15.175  1.00142.10     0.195 A 
HETATM   10  N17 MIQ B 502      -9.705   1.783  14.190  1.00139.42    -0.288 N 
HETATM   11  O16 MIQ B 502     -10.220   2.171  16.538  1.00148.93    -0.171 OA
ENDROOT
BRANCH  10  12
HETATM   12  C18 MIQ B 502      -8.945   0.573  14.444  1.00139.82     0.187 C 
HETATM   13  C19 MIQ B 502      -7.588   0.718  13.745  1.00140.06     0.247 C 
HETATM   14  O25 MIQ B 502      -6.944   1.689  13.932  1.00143.95    -0.271 OA
HETATM   15  N20 MIQ B 502      -7.068  -0.309  12.865  1.00140.02    -0.296 N 
HETATM   16  H13 MIQ B 502      -6.184  -0.199  12.410  1.00142.77     0.171 HD
HETATM   17  C21 MIQ B 502      -7.877  -1.480  12.644  1.00142.22     0.224 C 
HETATM   18  C22 MIQ B 502      -9.380  -1.281  12.646  1.00139.52     0.106 C 
HETATM   19  O24 MIQ B 502      -7.390  -2.544  12.476  1.00146.13    -0.273 OA
HETATM   20  C23 MIQ B 502      -9.730  -0.654  13.984  1.00139.15     0.045 C 
ENDBRANCH  10  12
BRANCH   5  21
HETATM   21  N6  MIQ B 502     -12.516   6.656  11.731  1.00140.95    -0.377 N 
HETATM   22  C7  MIQ B 502     -13.953   6.776  11.556  1.00142.12     0.149 C 
HETATM   23  C8  MIQ B 502     -14.315   7.312  10.177  1.00144.10     0.187 C 
HETATM   24  O9  MIQ B 502     -13.575   8.441   9.821  1.00148.65    -0.388 OA
HETATM   25  C10 MIQ B 502     -12.477   8.838  10.589  1.00147.44     0.187 C 
HETATM   26  C11 MIQ B 502     -11.676   7.769  11.324  1.00144.08     0.149 C 
ENDBRANCH   5  21
TORSDOF 2
ENDMDL
MODEL 2
REMARK VINA RESULT:      -6.8      2.104      3.254
REMARK  2 active torsions:
REMARK  status: ('A' for Active; 'I' for Inactive)
REMARK    1  A    between atoms: C5_5  and  N6_21 
REMARK    2  A    between atoms: C18_14  and  N17_19 
ROOT
HETATM    1  O1  MIQ B 502     -11.552   2.510  14.259  1.00142.91    -0.171 OA
HETATM    2  C2  MIQ B 502     -10.797   3.109  13.249  1.00141.17     0.195 A 
HETATM    3  C3  MIQ B 502     -11.069   4.503  12.597  1.00141.71     0.035 A 
HETATM    4  C4  MIQ B 502     -12.102   5.543  12.811  1.00142.86     0.046 A 
HETATM    5  C5  MIQ B 502     -12.086   6.737  12.046  1.00139.53     0.031 A 
HETATM    6  C12 MIQ B 502     -11.048   6.940  11.046  1.00139.38     0.030 A 
HETATM    7  C13 MIQ B 502     -10.056   5.943  10.841  1.00141.18     0.019 A 
HETATM    8  C14 MIQ B 502     -10.077   4.693  11.649  1.00138.77     0.033 A 
HETATM    9  C15 MIQ B 502      -9.184   3.411  11.713  1.00142.10     0.195 A 
HETATM   10  N17 MIQ B 502      -9.717   2.641  12.647  1.00139.42    -0.288 N 
HETATM   11  O16 MIQ B 502      -8.056   3.139  10.937  1.00148.93    -0.171 OA
ENDROOT
BRANCH  10  12
HETATM   12  C18 MIQ B 502      -9.153   1.345  12.973  1.00139.82     0.187 C 
HETATM   13  C19 MIQ B 502     -10.286   0.313  12.915  1.00140.06     0.247 C 
HETATM   14  O25 MIQ B 502     -10.975   0.267  11.958  1.00143.95    -0.271 OA
HETATM   15  N20 MIQ B 502     -10.534  -0.611  14.003  1.00140.02    -0.296 N 
HETATM   16  H13 MIQ B 502     -11.281  -1.275  13.956  1.00142.77     0.171 HD
HETATM   17  C21 MIQ B 502      -9.687  -0.527  15.165  1.00142.22     0.224 C 
HETATM   18  C22 MIQ B 502      -9.185   0.853  15.544  1.00139.52     0.106 C 
HETATM   19  O24 MIQ B 502      -9.395  -1.489  15.787  1.00146.13    -0.273 OA
HETATM   20  C23 MIQ B 502      -8.453   1.394  14.330  1.00139.15     0.045 C 
ENDBRANCH  10  12
BRANCH   5  21
HETATM   21  N6  MIQ B 502     -13.113   7.741  12.255  1.00140.95    -0.377 N 
HETATM   22  C7  MIQ B 502     -12.712   9.133  12.363  1.00142.12     0.149 C 
HETATM   23  C8  MIQ B 502     -13.701   9.948  13.186  1.00144.10     0.187 C 
HETATM   24  O9  MIQ B 502     -15.028   9.737  12.806  1.00148.65    -0.388 OA
HETATM   25  C10 MIQ B 502     -15.356   8.704  11.924  1.00147.44     0.187 C 
HETATM   26  C11 MIQ B 502     -14.496   7.445  11.924  1.00144.08     0.149 C 
ENDBRANCH   5  21
TORSDOF 2
ENDMDL
MODEL 3
REMARK VINA RESULT:      -6.7      1.617      2.670
REMARK  2 active torsions:
REMARK  status: ('A' for Active; 'I' for Inactive)
REMARK    1  A    between atoms: C5_5  and  N6_21 
REMARK    2  A    between atoms: C18_14  and  N17_19 
ROOT
HETATM    1  O1  MIQ B 502     -12.599   3.448  14.762  1.00142.91    -0.171 OA
HETATM    2  C2  MIQ B 502     -11.642   3.573  13.752  1.00141.17     0.195 A 
HETATM    3  C3  MIQ B 502     -11.491   4.777  12.769  1.00141.71     0.035 A 
HETATM    4  C4  MIQ B 502     -12.227   6.052  12.598  1.00142.86     0.046 A 
HETATM    5  C5  MIQ B 502     -11.843   6.972  11.589  1.00139.53     0.031 A 
HETATM    6  C12 MIQ B 502     -10.718   6.661  10.718  1.00139.38     0.030 A 
HETATM    7  C13 MIQ B 502     -10.011   5.440  10.883  1.00141.18     0.019 A 
HETATM    8  C14 MIQ B 502     -10.418   4.479  11.945  1.00138.77     0.033 A 
HETATM    9  C15 MIQ B 502      -9.900   3.082  12.420  1.00142.10     0.195 A 
HETATM   10  N17 MIQ B 502     -10.682   2.725  13.425  1.00139.42    -0.288 N 
HETATM   11  O16 MIQ B 502      -8.830   2.362  11.886  1.00148.93    -0.171 OA
ENDROOT
BRANCH  10  12
HETATM   12  C18 MIQ B 502     -10.504   1.459  14.111  1.00139.82     0.187 C 
HETATM   13  C19 MIQ B 502      -9.015   1.318  14.453  1.00140.06     0.247 C 
HETATM   14  O25 MIQ B 502      -8.466   2.202  15.009  1.00143.95    -0.271 OA
HETATM   15  N20 MIQ B 502      -8.264   0.127  14.117  1.00140.02    -0.296 N 
HETATM   16  H13 MIQ B 502      -7.291   0.050  14.340  1.00142.77     0.171 HD
HETATM   17  C21 MIQ B 502      -8.954  -0.934  13.429  1.00142.22     0.224 C 
HETATM   18  C22 MIQ B 502     -10.044  -0.521  12.460  1.00139.52     0.106 C 
HETATM   19  O24 MIQ B 502      -8.684  -2.070  13.616  1.00146.13    -0.273 OA
HETATM   20  C23 MIQ B 502     -11.035   0.311  13.255  1.00139.15     0.045 C 
ENDBRANCH  10  12
BRANCH   5  21
HETATM   21  N6  MIQ B 502     -12.583   8.210  11.423  1.00140.95    -0.377 N 
HETATM   22  C7  MIQ B 502     -12.145   9.384  12.158  1.00142.12     0.149 C 
HETATM   23  C8  MIQ B 502     -13.291  10.355  12.413  1.00144.10     0.187 C 
HETATM   24  O9  MIQ B 502     -14.049  10.614  11.269  1.00148.65    -0.388 OA
HETATM   25  C10 MIQ B 502     -13.866   9.853  10.112  1.00147.44     0.187 C 
HETATM   26  C11 MIQ B 502     -13.427   8.400  10.256  1.00144.08     0.149 C 
ENDBRANCH   5  21
TORSDOF 2
ENDMDL
MODEL 4
REMARK VINA RESULT:      -6.7      2.044      8.603
REMARK  2 active torsions:
REMARK  status: ('A' for Active; 'I' for Inactive)
REMARK    1  A    between atoms: C5_5  and  N6_21 
REMARK    2  A    between atoms: C18_14  and  N17_19 
ROOT
HETATM    1  O1  MIQ B 502     -10.093   7.068   9.903  1.00142.91    -0.171 OA
HETATM    2  C2  MIQ B 502     -10.930   6.798  10.988  1.00141.17     0.195 A 
HETATM    3  C3  MIQ B 502     -10.792   5.602  11.983  1.00141.71     0.035 A 
HETATM    4  C4  MIQ B 502      -9.832   4.478  12.099  1.00142.86     0.046 A 
HETATM    5  C5  MIQ B 502      -9.968   3.524  13.139  1.00139.53     0.031 A 
HETATM    6  C12 MIQ B 502     -11.057   3.649  14.097  1.00139.38     0.030 A 
HETATM    7  C13 MIQ B 502     -11.977   4.726  13.986  1.00141.18     0.019 A 
HETATM    8  C14 MIQ B 502     -11.828   5.727  12.894  1.00138.77     0.033 A 
HETATM    9  C15 MIQ B 502     -12.613   7.008  12.462  1.00142.10     0.195 A 
HETATM   10  N17 MIQ B 502     -11.986   7.480  11.397  1.00139.42    -0.288 N 
HETATM   11  O16 MIQ B 502     -13.747   7.541  13.078  1.00148.93    -0.171 OA
ENDROOT
BRANCH  10  12
HETATM   12  C18 MIQ B 502     -12.451   8.669  10.709  1.00139.82     0.187 C 
HETATM   13  C19 MIQ B 502     -12.610   9.781  11.753  1.00140.06     0.247 C 
HETATM   14  O25 MIQ B 502     -11.715  10.018  12.484  1.00143.95    -0.271 OA
HETATM   15  N20 MIQ B 502     -13.829  10.556  11.864  1.00140.02    -0.296 N 
HETATM   16  H13 MIQ B 502     -13.922  11.276  12.554  1.00142.77     0.171 HD
HETATM   17  C21 MIQ B 502     -14.912  10.243  10.967  1.00142.22     0.224 C 
HETATM   18  C22 MIQ B 502     -15.063   8.788  10.565  1.00139.52     0.106 C 
HETATM   19  O24 MIQ B 502     -15.641  11.080  10.562  1.00146.13    -0.273 OA
HETATM   20  C23 MIQ B 502     -13.741   8.372   9.946  1.00139.15     0.045 C 
ENDBRANCH  10  12
BRANCH   5  21
HETATM   21  N6  MIQ B 502      -9.029   2.421  13.232  1.00140.95    -0.377 N 
HETATM   22  C7  MIQ B 502      -7.790   2.623  13.962  1.00142.12     0.149 C 
HETATM   23  C8  MIQ B 502      -6.680   1.707  13.464  1.00144.10     0.187 C 
HETATM   24  O9  MIQ B 502      -7.088   0.378  13.338  1.00148.65    -0.388 OA
HETATM   25  C10 MIQ B 502      -8.439   0.039  13.446  1.00147.44     0.187 C 
HETATM   26  C11 MIQ B 502      -9.484   1.060  13.008  1.00144.08     0.149 C 
ENDBRANCH   5  21
TORSDOF 2
ENDMDL
MODEL 5
REMARK VINA RESULT:      -6.5     17.612     19.998
REMARK  2 active torsions:
REMARK  status: ('A' for Active; 'I' for Inactive)
REMARK    1  A    between atoms: C5_5  and  N6_21 
REMARK    2  A    between atoms: C18_14  and  N17_19 
ROOT
HETATM    1  O1  MIQ B 502      -1.056 -11.757   9.773  1.00142.91    -0.171 OA
HETATM    2  C2  MIQ B 502      -1.075 -12.677  10.824  1.00141.17     0.195 A 
HETATM    3  C3  MIQ B 502      -0.067 -12.738  12.016  1.00141.71     0.035 A 
HETATM    4  C4  MIQ B 502       1.115 -11.927  12.393  1.00142.86     0.046 A 
HETATM    5  C5  MIQ B 502       1.849 -12.233  13.567  1.00139.53     0.031 A 
HETATM    6  C12 MIQ B 502       1.437 -13.349  14.406  1.00139.38     0.030 A 
HETATM    7  C13 MIQ B 502       0.303 -14.125  14.046  1.00141.18     0.019 A 
HETATM    8  C14 MIQ B 502      -0.465 -13.799  12.813  1.00138.77     0.033 A 
HETATM    9  C15 MIQ B 502      -1.728 -14.399  12.113  1.00142.10     0.195 A 
HETATM   10  N17 MIQ B 502      -1.930 -13.664  11.032  1.00139.42    -0.288 N 
HETATM   11  O16 MIQ B 502      -2.482 -15.492  12.544  1.00148.93    -0.171 OA
ENDROOT
BRANCH  10  12
HETATM   12  C18 MIQ B 502      -3.022 -13.945  10.119  1.00139.82     0.187 C 
HETATM   13  C19 MIQ B 502      -2.436 -14.043   8.705  1.00140.06     0.247 C 
HETATM   14  O25 MIQ B 502      -1.509 -14.748   8.514  1.00143.95    -0.271 OA
HETATM   15  N20 MIQ B 502      -2.992 -13.299   7.594  1.00140.02    -0.296 N 
HETATM   16  H13 MIQ B 502      -2.596 -13.367   6.677  1.00142.77     0.171 HD
HETATM   17  C21 MIQ B 502      -4.116 -12.437   7.855  1.00142.22     0.224 C 
HETATM   18  C22 MIQ B 502      -4.160 -11.767   9.214  1.00139.52     0.106 C 
HETATM   19  O24 MIQ B 502      -4.965 -12.268   7.050  1.00146.13    -0.273 OA
HETATM   20  C23 MIQ B 502      -4.109 -12.879  10.246  1.00139.15     0.045 C 
ENDBRANCH  10  12
BRANCH   5  21
HETATM   21  N6  MIQ B 502       3.013 -11.440  13.916  1.00140.95    -0.377 N 
HETATM   22  C7  MIQ B 502       2.820 -10.051  14.292  1.00142.12     0.149 C 
HETATM   23  C8  MIQ B 502       4.055  -9.206  14.004  1.00144.10     0.187 C 
HETATM   24  O9  MIQ B 502       5.234  -9.792  14.468  1.00148.65    -0.388 OA
HETATM   25  C10 MIQ B 502       5.237 -11.113  14.923  1.00147.44     0.187 C 
HETATM   26  C11 MIQ B 502       4.247 -12.098  14.310  1.00144.08     0.149 C 
ENDBRANCH   5  21
TORSDOF 2
ENDMDL
MODEL 6
REMARK VINA RESULT:      -6.4      2.274      8.398
REMARK  2 active torsions:
REMARK  status: ('A' for Active; 'I' for Inactive)
REMARK    1  A    between atoms: C5_5  and  N6_21 
REMARK    2  A    between atoms: C18_14  and  N17_19 
ROOT
HETATM    1  O1  MIQ B 502     -13.841   4.194  13.593  1.00142.91    -0.171 OA
HETATM    2  C2  MIQ B 502     -12.685   4.425  12.845  1.00141.17     0.195 A 
HETATM    3  C3  MIQ B 502     -11.459   3.464  12.724  1.00141.71     0.035 A 
HETATM    4  C4  MIQ B 502     -11.147   2.132  13.295  1.00142.86     0.046 A 
HETATM    5  C5  MIQ B 502      -9.918   1.493  12.992  1.00139.53     0.031 A 
HETATM    6  C12 MIQ B 502      -8.959   2.149  12.115  1.00139.38     0.030 A 
HETATM    7  C13 MIQ B 502      -9.258   3.425  11.567  1.00141.18     0.019 A 
HETATM    8  C14 MIQ B 502     -10.550   4.091  11.886  1.00138.77     0.033 A 
HETATM    9  C15 MIQ B 502     -11.216   5.447  11.485  1.00142.10     0.195 A 
HETATM   10  N17 MIQ B 502     -12.389   5.473  12.097  1.00139.42    -0.288 N 
HETATM   11  O16 MIQ B 502     -10.677   6.429  10.652  1.00148.93    -0.171 OA
ENDROOT
BRANCH  10  12
HETATM   12  C18 MIQ B 502     -13.287   6.605  11.965  1.00139.82     0.187 C 
HETATM   13  C19 MIQ B 502     -13.527   6.840  10.468  1.00140.06     0.247 C 
HETATM   14  O25 MIQ B 502     -13.858   5.934   9.789  1.00143.95    -0.271 OA
HETATM   15  N20 MIQ B 502     -13.364   8.147   9.865  1.00140.02    -0.296 N 
HETATM   16  H13 MIQ B 502     -13.517   8.286   8.885  1.00142.77     0.171 HD
HETATM   17  C21 MIQ B 502     -12.950   9.235  10.713  1.00142.22     0.224 C 
HETATM   18  C22 MIQ B 502     -12.012   8.890  11.854  1.00139.52     0.106 C 
HETATM   19  O24 MIQ B 502     -13.327  10.340  10.529  1.00146.13    -0.273 OA
HETATM   20  C23 MIQ B 502     -12.712   7.827  12.680  1.00139.15     0.045 C 
ENDBRANCH  10  12
BRANCH   5  21
HETATM   21  N6  MIQ B 502      -9.620   0.195  13.570  1.00140.95    -0.377 N 
HETATM   22  C7  MIQ B 502      -8.498  -0.560  13.039  1.00142.12     0.149 C 
HETATM   23  C8  MIQ B 502      -8.677  -2.060  13.237  1.00144.10     0.187 C 
HETATM   24  O9  MIQ B 502      -9.061  -2.395  14.537  1.00148.65    -0.388 OA
HETATM   25  C10 MIQ B 502      -9.449  -1.400  15.439  1.00147.44     0.187 C 
HETATM   26  C11 MIQ B 502     -10.114  -0.141  14.894  1.00144.08     0.149 C 
ENDBRANCH   5  21
TORSDOF 2
ENDMDL
MODEL 7
REMARK VINA RESULT:      -6.4      2.133      2.588
REMARK  2 active torsions:
REMARK  status: ('A' for Active; 'I' for Inactive)
REMARK    1  A    between atoms: C5_5  and  N6_21 
REMARK    2  A    between atoms: C18_14  and  N17_19 
ROOT
HETATM    1  O1  MIQ B 502      -9.058   3.756  11.304  1.00142.91    -0.171 OA
HETATM    2  C2  MIQ B 502     -10.261   3.528  11.974  1.00141.17     0.195 A 
HETATM    3  C3  MIQ B 502     -11.549   4.406  11.881  1.00141.71     0.035 A 
HETATM    4  C4  MIQ B 502     -11.891   5.638  11.132  1.00142.86     0.046 A 
HETATM    5  C5  MIQ B 502     -13.179   6.218  11.253  1.00139.53     0.031 A 
HETATM    6  C12 MIQ B 502     -14.171   5.598  12.120  1.00139.38     0.030 A 
HETATM    7  C13 MIQ B 502     -13.845   4.416  12.838  1.00141.18     0.019 A 
HETATM    8  C14 MIQ B 502     -12.491   3.811  12.704  1.00138.77     0.033 A 
HETATM    9  C15 MIQ B 502     -11.784   2.555  13.311  1.00142.10     0.195 A 
HETATM   10  N17 MIQ B 502     -10.563   2.543  12.804  1.00139.42    -0.288 N 
HETATM   11  O16 MIQ B 502     -12.335   1.637  14.207  1.00148.93    -0.171 OA
ENDROOT
BRANCH  10  12
HETATM   12  C18 MIQ B 502      -9.604   1.515  13.162  1.00139.82     0.187 C 
HETATM   13  C19 MIQ B 502     -10.287   0.154  12.976  1.00140.06     0.247 C 
HETATM   14  O25 MIQ B 502     -10.828  -0.084  11.956  1.00143.95    -0.271 OA
HETATM   15  N20 MIQ B 502     -10.281  -0.852  14.019  1.00140.02    -0.296 N 
HETATM   16  H13 MIQ B 502     -10.737  -1.733  13.888  1.00142.77     0.171 HD
HETATM   17  C21 MIQ B 502      -9.623  -0.533  15.260  1.00142.22     0.224 C 
HETATM   18  C22 MIQ B 502      -9.680   0.914  15.710  1.00139.52     0.106 C 
HETATM   19  O24 MIQ B 502      -9.062  -1.360  15.892  1.00146.13    -0.273 OA
HETATM   20  C23 MIQ B 502      -9.088   1.740  14.582  1.00139.15     0.045 C 
ENDBRANCH  10  12
BRANCH   5  21
HETATM   21  N6  MIQ B 502     -13.494   7.433  10.525  1.00140.95    -0.377 N 
HETATM   22  C7  MIQ B 502     -14.845   7.961  10.607  1.00142.12     0.149 C 
HETATM   23  C8  MIQ B 502     -15.212   8.779   9.375  1.00144.10     0.187 C 
HETATM   24  O9  MIQ B 502     -14.229   9.706   9.026  1.00148.65    -0.388 OA
HETATM   25  C10 MIQ B 502     -12.973   9.671   9.637  1.00147.44     0.187 C 
HETATM   26  C11 MIQ B 502     -12.428   8.326  10.106  1.00144.08     0.149 C 
ENDBRANCH   5  21
TORSDOF 2
ENDMDL
MODEL 8
REMARK VINA RESULT:      -6.3     19.268     20.533
REMARK  2 active torsions:
REMARK  status: ('A' for Active; 'I' for Inactive)
REMARK    1  A    between atoms: C5_5  and  N6_21 
REMARK    2  A    between atoms: C18_14  and  N17_19 
ROOT
HETATM    1  O1  MIQ B 502      -1.132 -14.689  15.511  1.00142.91    -0.171 OA
HETATM    2  C2  MIQ B 502      -1.089 -14.276  14.177  1.00141.17     0.195 A 
HETATM    3  C3  MIQ B 502      -0.014 -13.342  13.535  1.00141.71     0.035 A 
HETATM    4  C4  MIQ B 502       1.189 -12.658  14.066  1.00142.86     0.046 A 
HETATM    5  C5  MIQ B 502       1.991 -11.855  13.216  1.00139.53     0.031 A 
HETATM    6  C12 MIQ B 502       1.630 -11.704  11.813  1.00139.38     0.030 A 
HETATM    7  C13 MIQ B 502       0.477 -12.360  11.304  1.00141.18     0.019 A 
HETATM    8  C14 MIQ B 502      -0.360 -13.204  12.201  1.00138.77     0.033 A 
HETATM    9  C15 MIQ B 502      -1.656 -14.057  12.013  1.00142.10     0.195 A 
HETATM   10  N17 MIQ B 502      -1.921 -14.584  13.197  1.00139.42    -0.288 N 
HETATM   11  O16 MIQ B 502      -2.383 -14.225  10.833  1.00148.93    -0.171 OA
ENDROOT
BRANCH  10  12
HETATM   12  C18 MIQ B 502      -3.078 -15.434  13.406  1.00139.82     0.187 C 
HETATM   13  C19 MIQ B 502      -3.892 -14.841  14.563  1.00140.06     0.247 C 
HETATM   14  O25 MIQ B 502      -4.185 -13.699  14.535  1.00143.95    -0.271 OA
HETATM   15  N20 MIQ B 502      -4.318 -15.647  15.689  1.00140.02    -0.296 N 
HETATM   16  H13 MIQ B 502      -4.843 -15.246  16.441  1.00142.77     0.171 HD
HETATM   17  C21 MIQ B 502      -3.940 -17.036  15.705  1.00142.22     0.224 C 
HETATM   18  C22 MIQ B 502      -2.600 -17.385  15.086  1.00139.52     0.106 C 
HETATM   19  O24 MIQ B 502      -4.643 -17.862  16.174  1.00146.13    -0.273 OA
HETATM   20  C23 MIQ B 502      -2.640 -16.876  13.657  1.00139.15     0.045 C 
ENDBRANCH  10  12
BRANCH   5  21
HETATM   21  N6  MIQ B 502       3.158 -11.179  13.752  1.00140.95    -0.377 N 
HETATM   22  C7  MIQ B 502       3.007  -9.823  14.251  1.00142.12     0.149 C 
HETATM   23  C8  MIQ B 502       4.309  -9.038  14.168  1.00144.10     0.187 C 
HETATM   24  O9  MIQ B 502       5.402  -9.742  14.677  1.00148.65    -0.388 OA
HETATM   25  C10 MIQ B 502       5.285 -11.099  14.992  1.00147.44     0.187 C 
HETATM   26  C11 MIQ B 502       4.307 -11.952  14.190  1.00144.08     0.149 C 
ENDBRANCH   5  21
TORSDOF 2
ENDMDL
MODEL 9
REMARK VINA RESULT:      -6.3      1.887      8.208
REMARK  2 active torsions:
REMARK  status: ('A' for Active; 'I' for Inactive)
REMARK    1  A    between atoms: C5_5  and  N6_21 
REMARK    2  A    between atoms: C18_14  and  N17_19 
ROOT
HETATM    1  O1  MIQ B 502     -11.925   6.180  10.575  1.00142.91    -0.171 OA
HETATM    2  C2  MIQ B 502     -12.092   6.064  11.957  1.00141.17     0.195 A 
HETATM    3  C3  MIQ B 502     -11.352   5.057  12.894  1.00141.71     0.035 A 
HETATM    4  C4  MIQ B 502     -10.335   4.005  12.659  1.00142.86     0.046 A 
HETATM    5  C5  MIQ B 502      -9.839   3.233  13.739  1.00139.53     0.031 A 
HETATM    6  C12 MIQ B 502     -10.332   3.477  15.088  1.00139.38     0.030 A 
HETATM    7  C13 MIQ B 502     -11.306   4.486  15.314  1.00141.18     0.019 A 
HETATM    8  C14 MIQ B 502     -11.822   5.295  14.175  1.00138.77     0.033 A 
HETATM    9  C15 MIQ B 502     -12.859   6.457  14.033  1.00142.10     0.195 A 
HETATM   10  N17 MIQ B 502     -12.886   6.766  12.747  1.00139.42    -0.288 N 
HETATM   11  O16 MIQ B 502     -13.603   7.043  15.058  1.00148.93    -0.171 OA
ENDROOT
BRANCH  10  12
HETATM   12  C18 MIQ B 502     -13.760   7.806  12.237  1.00139.82     0.187 C 
HETATM   13  C19 MIQ B 502     -14.588   7.203  11.096  1.00140.06     0.247 C 
HETATM   14  O25 MIQ B 502     -15.167   6.191  11.276  1.00143.95    -0.271 OA
HETATM   15  N20 MIQ B 502     -14.685   7.845   9.801  1.00140.02    -0.296 N 
HETATM   16  H13 MIQ B 502     -15.223   7.438   9.062  1.00142.77     0.171 HD
HETATM   17  C21 MIQ B 502     -13.961   9.075   9.602  1.00142.22     0.224 C 
HETATM   18  C22 MIQ B 502     -12.640   9.214  10.334  1.00139.52     0.106 C 
HETATM   19  O24 MIQ B 502     -14.380   9.933   8.906  1.00146.13    -0.273 OA
HETATM   20  C23 MIQ B 502     -12.944   9.024  11.810  1.00139.15     0.045 C 
ENDBRANCH  10  12
BRANCH   5  21
HETATM   21  N6  MIQ B 502      -8.853   2.197  13.492  1.00140.95    -0.377 N 
HETATM   22  C7  MIQ B 502      -7.515   2.368  14.031  1.00142.12     0.149 C 
HETATM   23  C8  MIQ B 502      -6.472   1.619  13.211  1.00144.10     0.187 C 
HETATM   24  O9  MIQ B 502      -6.841   0.300  12.936  1.00148.65    -0.388 OA
HETATM   25  C10 MIQ B 502      -8.138  -0.143  13.209  1.00147.44     0.187 C 
HETATM   26  C11 MIQ B 502      -9.284   0.859  13.125  1.00144.08     0.149 C 
ENDBRANCH   5  21
TORSDOF 2
ENDMDL
