MODEL 1
REMARK VINA RESULT:      -6.5      0.000      0.000
REMARK  2 active torsions:
REMARK  status: ('A' for Active; 'I' for Inactive)
REMARK    1  A    between atoms: C5_5  and  N6_21 
REMARK    2  A    between atoms: C18_14  and  N17_19 
ROOT
HETATM    1  O1  MIQ B 502     -12.401 -14.391  -8.536  1.00142.91    -0.171 OA
HETATM    2  C2  MIQ B 502     -11.282 -14.215  -7.719  1.00141.17     0.195 A 
HETATM    3  C3  MIQ B 502     -10.959 -15.009  -6.413  1.00141.71     0.035 A 
HETATM    4  C4  MIQ B 502     -11.652 -16.097  -5.684  1.00142.86     0.046 A 
HETATM    5  C5  MIQ B 502     -11.097 -16.630  -4.494  1.00139.53     0.031 A 
HETATM    6  C12 MIQ B 502      -9.837 -16.105  -3.986  1.00139.38     0.030 A 
HETATM    7  C13 MIQ B 502      -9.171 -15.063  -4.686  1.00141.18     0.019 A 
HETATM    8  C14 MIQ B 502      -9.758 -14.509  -5.936  1.00138.77     0.033 A 
HETATM    9  C15 MIQ B 502      -9.333 -13.399  -6.952  1.00142.10     0.195 A 
HETATM   10  N17 MIQ B 502     -10.281 -13.366  -7.875  1.00139.42    -0.288 N 
HETATM   11  O16 MIQ B 502      -8.187 -12.604  -6.891  1.00148.93    -0.171 OA
ENDROOT
BRANCH  10  12
HETATM   12  C18 MIQ B 502     -10.226 -12.431  -8.983  1.00139.82     0.187 C 
HETATM   13  C19 MIQ B 502     -11.530 -11.624  -8.979  1.00140.06     0.247 C 
HETATM   14  O25 MIQ B 502     -11.882 -11.104  -7.980  1.00143.95    -0.271 OA
HETATM   15  N20 MIQ B 502     -12.342 -11.478 -10.169  1.00140.02    -0.296 N 
HETATM   16  H13 MIQ B 502     -13.195 -10.954 -10.152  1.00142.77     0.171 HD
HETATM   17  C21 MIQ B 502     -11.898 -12.131 -11.373  1.00142.22     0.224 C 
HETATM   18  C22 MIQ B 502     -11.170 -13.451 -11.203  1.00139.52     0.106 C 
HETATM   19  O24 MIQ B 502     -12.087 -11.658 -12.440  1.00146.13    -0.273 OA
HETATM   20  C23 MIQ B 502      -9.985 -13.176 -10.296  1.00139.15     0.045 C 
ENDBRANCH  10  12
BRANCH   5  21
HETATM   21  N6  MIQ B 502     -11.794 -17.686  -3.782  1.00140.95    -0.377 N 
HETATM   22  C7  MIQ B 502     -11.059 -18.464  -2.800  1.00142.12     0.149 C 
HETATM   23  C8  MIQ B 502     -11.648 -19.858  -2.624  1.00144.10     0.187 C 
HETATM   24  O9  MIQ B 502     -13.034 -19.847  -2.460  1.00148.65    -0.388 OA
HETATM   25  C10 MIQ B 502     -13.763 -18.675  -2.681  1.00147.44     0.187 C 
HETATM   26  C11 MIQ B 502     -13.245 -17.677  -3.712  1.00144.08     0.149 C 
ENDBRANCH   5  21
TORSDOF 2
ENDMDL
MODEL 2
REMARK VINA RESULT:      -5.9      1.550      2.050
REMARK  2 active torsions:
REMARK  status: ('A' for Active; 'I' for Inactive)
REMARK    1  A    between atoms: C5_5  and  N6_21 
REMARK    2  A    between atoms: C18_14  and  N17_19 
ROOT
HETATM    1  O1  MIQ B 502     -13.432 -16.149  -9.038  1.00142.91    -0.171 OA
HETATM    2  C2  MIQ B 502     -12.541 -15.524  -8.163  1.00141.17     0.195 A 
HETATM    3  C3  MIQ B 502     -12.121 -16.041  -6.750  1.00141.71     0.035 A 
HETATM    4  C4  MIQ B 502     -12.484 -17.236  -5.953  1.00142.86     0.046 A 
HETATM    5  C5  MIQ B 502     -11.922 -17.438  -4.667  1.00139.53     0.031 A 
HETATM    6  C12 MIQ B 502     -10.982 -16.465  -4.129  1.00139.38     0.030 A 
HETATM    7  C13 MIQ B 502     -10.633 -15.320  -4.893  1.00141.18     0.019 A 
HETATM    8  C14 MIQ B 502     -11.224 -15.114  -6.244  1.00138.77     0.033 A 
HETATM    9  C15 MIQ B 502     -11.087 -14.016  -7.348  1.00142.10     0.195 A 
HETATM   10  N17 MIQ B 502     -11.875 -14.396  -8.340  1.00139.42    -0.288 N 
HETATM   11  O16 MIQ B 502     -10.293 -12.870  -7.293  1.00148.93    -0.171 OA
ENDROOT
BRANCH  10  12
HETATM   12  C18 MIQ B 502     -12.014 -13.599  -9.545  1.00139.82     0.187 C 
HETATM   13  C19 MIQ B 502     -10.617 -13.424 -10.153  1.00140.06     0.247 C 
HETATM   14  O25 MIQ B 502      -9.942 -14.375 -10.329  1.00143.95    -0.271 OA
HETATM   15  N20 MIQ B 502     -10.102 -12.121 -10.523  1.00140.02    -0.296 N 
HETATM   16  H13 MIQ B 502      -9.186 -12.020 -10.913  1.00142.77     0.171 HD
HETATM   17  C21 MIQ B 502     -10.940 -10.974 -10.288  1.00142.22     0.224 C 
HETATM   18  C22 MIQ B 502     -11.846 -11.028  -9.073  1.00139.52     0.106 C 
HETATM   19  O24 MIQ B 502     -10.925 -10.039 -11.012  1.00146.13    -0.273 OA
HETATM   20  C23 MIQ B 502     -12.702 -12.272  -9.229  1.00139.15     0.045 C 
ENDBRANCH  10  12
BRANCH   5  21
HETATM   21  N6  MIQ B 502     -12.298 -18.606  -3.891  1.00140.95    -0.377 N 
HETATM   22  C7  MIQ B 502     -11.389 -19.077  -2.861  1.00142.12     0.149 C 
HETATM   23  C8  MIQ B 502     -11.551 -20.569  -2.598  1.00144.10     0.187 C 
HETATM   24  O9  MIQ B 502     -12.885 -20.950  -2.437  1.00148.65    -0.388 OA
HETATM   25  C10 MIQ B 502     -13.917 -20.056  -2.733  1.00147.44     0.187 C 
HETATM   26  C11 MIQ B 502     -13.690 -19.014  -3.823  1.00144.08     0.149 C 
ENDBRANCH   5  21
TORSDOF 2
ENDMDL
MODEL 3
REMARK VINA RESULT:      -5.9      9.036     12.662
REMARK  2 active torsions:
REMARK  status: ('A' for Active; 'I' for Inactive)
REMARK    1  A    between atoms: C5_5  and  N6_21 
REMARK    2  A    between atoms: C18_14  and  N17_19 
ROOT
HETATM    1  O1  MIQ B 502     -17.478 -10.081  -5.140  1.00142.91    -0.171 OA
HETATM    2  C2  MIQ B 502     -18.758 -10.080  -5.700  1.00141.17     0.195 A 
HETATM    3  C3  MIQ B 502     -19.410  -8.914  -6.509  1.00141.71     0.035 A 
HETATM    4  C4  MIQ B 502     -18.941  -7.567  -6.912  1.00142.86     0.046 A 
HETATM    5  C5  MIQ B 502     -19.783  -6.711  -7.666  1.00139.53     0.031 A 
HETATM    6  C12 MIQ B 502     -21.115  -7.159  -8.045  1.00139.38     0.030 A 
HETATM    7  C13 MIQ B 502     -21.565  -8.450  -7.659  1.00141.18     0.019 A 
HETATM    8  C14 MIQ B 502     -20.675  -9.346  -6.870  1.00138.77     0.033 A 
HETATM    9  C15 MIQ B 502     -20.810 -10.789  -6.283  1.00142.10     0.195 A 
HETATM   10  N17 MIQ B 502     -19.665 -11.042  -5.670  1.00139.42    -0.288 N 
HETATM   11  O16 MIQ B 502     -21.917 -11.633  -6.385  1.00148.93    -0.171 OA
ENDROOT
BRANCH  10  12
HETATM   12  C18 MIQ B 502     -19.433 -12.301  -4.987  1.00139.82     0.187 C 
HETATM   13  C19 MIQ B 502     -19.029 -11.981  -3.543  1.00140.06     0.247 C 
HETATM   14  O25 MIQ B 502     -19.701 -11.251  -2.904  1.00143.95    -0.271 OA
HETATM   15  N20 MIQ B 502     -17.846 -12.557  -2.936  1.00140.02    -0.296 N 
HETATM   16  H13 MIQ B 502     -17.590 -12.335  -1.994  1.00142.77     0.171 HD
HETATM   17  C21 MIQ B 502     -17.037 -13.437  -3.738  1.00142.22     0.224 C 
HETATM   18  C22 MIQ B 502     -16.961 -13.130  -5.221  1.00139.52     0.106 C 
HETATM   19  O24 MIQ B 502     -16.466 -14.356  -3.263  1.00146.13    -0.273 OA
HETATM   20  C23 MIQ B 502     -18.389 -13.127  -5.735  1.00139.15     0.045 C 
ENDBRANCH  10  12
BRANCH   5  21
HETATM   21  N6  MIQ B 502     -19.316  -5.389  -8.042  1.00140.95    -0.377 N 
HETATM   22  C7  MIQ B 502     -18.643  -5.227  -9.319  1.00142.12     0.149 C 
HETATM   23  C8  MIQ B 502     -17.681  -4.046  -9.310  1.00144.10     0.187 C 
HETATM   24  O9  MIQ B 502     -18.251  -2.885  -8.784  1.00148.65    -0.388 OA
HETATM   25  C10 MIQ B 502     -19.490  -2.934  -8.140  1.00147.44     0.187 C 
HETATM   26  C11 MIQ B 502     -19.880  -4.212  -7.404  1.00144.08     0.149 C 
ENDBRANCH   5  21
TORSDOF 2
ENDMDL
MODEL 4
REMARK VINA RESULT:      -5.9     12.930     15.071
REMARK  2 active torsions:
REMARK  status: ('A' for Active; 'I' for Inactive)
REMARK    1  A    between atoms: C5_5  and  N6_21 
REMARK    2  A    between atoms: C18_14  and  N17_19 
ROOT
HETATM    1  O1  MIQ B 502      -0.853 -18.101 -11.177  1.00142.91    -0.171 OA
HETATM    2  C2  MIQ B 502      -0.692 -18.788 -12.382  1.00141.17     0.195 A 
HETATM    3  C3  MIQ B 502       0.665 -19.196 -13.037  1.00141.71     0.035 A 
HETATM    4  C4  MIQ B 502       2.083 -19.015 -12.643  1.00142.86     0.046 A 
HETATM    5  C5  MIQ B 502       3.125 -19.511 -13.466  1.00139.53     0.031 A 
HETATM    6  C12 MIQ B 502       2.800 -20.202 -14.705  1.00139.38     0.030 A 
HETATM    7  C13 MIQ B 502       1.441 -20.377 -15.083  1.00141.18     0.019 A 
HETATM    8  C14 MIQ B 502       0.351 -19.857 -14.214  1.00138.77     0.033 A 
HETATM    9  C15 MIQ B 502      -1.211 -19.859 -14.289  1.00142.10     0.195 A 
HETATM   10  N17 MIQ B 502      -1.629 -19.233 -13.201  1.00139.42    -0.288 N 
HETATM   11  O16 MIQ B 502      -1.998 -20.410 -15.302  1.00148.93    -0.171 OA
ENDROOT
BRANCH  10  12
HETATM   12  C18 MIQ B 502      -3.042 -19.031 -12.941  1.00139.82     0.187 C 
HETATM   13  C19 MIQ B 502      -3.257 -17.540 -12.656  1.00140.06     0.247 C 
HETATM   14  O25 MIQ B 502      -2.830 -16.741 -13.412  1.00143.95    -0.271 OA
HETATM   15  N20 MIQ B 502      -3.975 -17.082 -11.484  1.00140.02    -0.296 N 
HETATM   16  H13 MIQ B 502      -4.103 -16.105 -11.306  1.00142.77     0.171 HD
HETATM   17  C21 MIQ B 502      -4.478 -18.075 -10.570  1.00142.22     0.224 C 
HETATM   18  C22 MIQ B 502      -3.650 -19.336 -10.412  1.00139.52     0.106 C 
HETATM   19  O24 MIQ B 502      -5.488 -17.915  -9.978  1.00146.13    -0.273 OA
HETATM   20  C23 MIQ B 502      -3.507 -19.934 -11.800  1.00139.15     0.045 C 
ENDBRANCH  10  12
BRANCH   5  21
HETATM   21  N6  MIQ B 502       4.509 -19.313 -13.075  1.00140.95    -0.377 N 
HETATM   22  C7  MIQ B 502       4.881 -19.558 -11.692  1.00142.12     0.149 C 
HETATM   23  C8  MIQ B 502       6.097 -18.740 -11.277  1.00144.10     0.187 C 
HETATM   24  O9  MIQ B 502       7.143 -18.814 -12.199  1.00148.65    -0.388 OA
HETATM   25  C10 MIQ B 502       6.941 -19.397 -13.452  1.00147.44     0.187 C 
HETATM   26  C11 MIQ B 502       5.555 -19.312 -14.082  1.00144.08     0.149 C 
ENDBRANCH   5  21
TORSDOF 2
ENDMDL
MODEL 5
REMARK VINA RESULT:      -5.8      4.385      5.270
REMARK  2 active torsions:
REMARK  status: ('A' for Active; 'I' for Inactive)
REMARK    1  A    between atoms: C5_5  and  N6_21 
REMARK    2  A    between atoms: C18_14  and  N17_19 
ROOT
HETATM    1  O1  MIQ B 502     -13.525 -13.537  -8.287  1.00142.91    -0.171 OA
HETATM    2  C2  MIQ B 502     -13.196 -14.225  -7.117  1.00141.17     0.195 A 
HETATM    3  C3  MIQ B 502     -14.063 -14.306  -5.820  1.00141.71     0.035 A 
HETATM    4  C4  MIQ B 502     -15.381 -13.745  -5.438  1.00142.86     0.046 A 
HETATM    5  C5  MIQ B 502     -15.924 -14.001  -4.154  1.00139.53     0.031 A 
HETATM    6  C12 MIQ B 502     -15.182 -14.819  -3.206  1.00139.38     0.030 A 
HETATM    7  C13 MIQ B 502     -13.919 -15.358  -3.572  1.00141.18     0.019 A 
HETATM    8  C14 MIQ B 502     -13.355 -15.088  -4.922  1.00138.77     0.033 A 
HETATM    9  C15 MIQ B 502     -12.041 -15.496  -5.667  1.00142.10     0.195 A 
HETATM   10  N17 MIQ B 502     -12.113 -14.940  -6.865  1.00139.42    -0.288 N 
HETATM   11  O16 MIQ B 502     -11.006 -16.284  -5.163  1.00148.93    -0.171 OA
ENDROOT
BRANCH  10  12
HETATM   12  C18 MIQ B 502     -11.046 -15.094  -7.836  1.00139.82     0.187 C 
HETATM   13  C19 MIQ B 502     -10.644 -13.693  -8.315  1.00140.06     0.247 C 
HETATM   14  O25 MIQ B 502     -10.396 -12.861  -7.516  1.00143.95    -0.271 OA
HETATM   15  N20 MIQ B 502     -10.553 -13.364  -9.722  1.00140.02    -0.296 N 
HETATM   16  H13 MIQ B 502     -10.296 -12.444 -10.021  1.00142.77     0.171 HD
HETATM   17  C21 MIQ B 502     -10.871 -14.394 -10.678  1.00142.22     0.224 C 
HETATM   18  C22 MIQ B 502     -11.946 -15.386 -10.278  1.00139.52     0.106 C 
HETATM   19  O24 MIQ B 502     -10.316 -14.463 -11.719  1.00146.13    -0.273 OA
HETATM   20  C23 MIQ B 502     -11.491 -16.013  -8.973  1.00139.15     0.045 C 
ENDBRANCH  10  12
BRANCH   5  21
HETATM   21  N6  MIQ B 502     -17.208 -13.433  -3.788  1.00140.95    -0.377 N 
HETATM   22  C7  MIQ B 502     -17.586 -12.148  -4.352  1.00142.12     0.149 C 
HETATM   23  C8  MIQ B 502     -18.560 -11.397  -3.453  1.00144.10     0.187 C 
HETATM   24  O9  MIQ B 502     -19.621 -12.193  -3.018  1.00148.65    -0.388 OA
HETATM   25  C10 MIQ B 502     -19.602 -13.574  -3.226  1.00147.44     0.187 C 
HETATM   26  C11 MIQ B 502     -18.255 -14.289  -3.258  1.00144.08     0.149 C 
ENDBRANCH   5  21
TORSDOF 2
ENDMDL
MODEL 6
REMARK VINA RESULT:      -5.8      4.515      5.386
REMARK  2 active torsions:
REMARK  status: ('A' for Active; 'I' for Inactive)
REMARK    1  A    between atoms: C5_5  and  N6_21 
REMARK    2  A    between atoms: C18_14  and  N17_19 
ROOT
HETATM    1  O1  MIQ B 502     -13.706 -13.563  -8.240  1.00142.91    -0.171 OA
HETATM    2  C2  MIQ B 502     -13.391 -14.201  -7.039  1.00141.17     0.195 A 
HETATM    3  C3  MIQ B 502     -14.294 -14.269  -5.766  1.00141.71     0.035 A 
HETATM    4  C4  MIQ B 502     -15.641 -13.740  -5.443  1.00142.86     0.046 A 
HETATM    5  C5  MIQ B 502     -16.214 -13.971  -4.167  1.00139.53     0.031 A 
HETATM    6  C12 MIQ B 502     -15.476 -14.734  -3.171  1.00139.38     0.030 A 
HETATM    7  C13 MIQ B 502     -14.186 -15.242  -3.481  1.00141.18     0.019 A 
HETATM    8  C14 MIQ B 502     -13.590 -14.998  -4.822  1.00138.77     0.033 A 
HETATM    9  C15 MIQ B 502     -12.242 -15.386  -5.513  1.00142.10     0.195 A 
HETATM   10  N17 MIQ B 502     -12.294 -14.872  -6.731  1.00139.42    -0.288 N 
HETATM   11  O16 MIQ B 502     -11.197 -16.123  -4.953  1.00148.93    -0.171 OA
ENDROOT
BRANCH  10  12
HETATM   12  C18 MIQ B 502     -11.193 -15.022  -7.664  1.00139.82     0.187 C 
HETATM   13  C19 MIQ B 502     -10.818 -13.624  -8.173  1.00140.06     0.247 C 
HETATM   14  O25 MIQ B 502     -10.620 -12.761  -7.394  1.00143.95    -0.271 OA
HETATM   15  N20 MIQ B 502     -10.694 -13.335  -9.587  1.00140.02    -0.296 N 
HETATM   16  H13 MIQ B 502     -10.455 -12.417  -9.907  1.00142.77     0.171 HD
HETATM   17  C21 MIQ B 502     -10.951 -14.402 -10.520  1.00142.22     0.224 C 
HETATM   18  C22 MIQ B 502     -12.008 -15.414 -10.122  1.00139.52     0.106 C 
HETATM   19  O24 MIQ B 502     -10.362 -14.485 -11.541  1.00146.13    -0.273 OA
HETATM   20  C23 MIQ B 502     -11.574 -15.988  -8.785  1.00139.15     0.045 C 
ENDBRANCH  10  12
BRANCH   5  21
HETATM   21  N6  MIQ B 502     -17.527 -13.435  -3.859  1.00140.95    -0.377 N 
HETATM   22  C7  MIQ B 502     -18.470 -14.274  -3.140  1.00142.12     0.149 C 
HETATM   23  C8  MIQ B 502     -19.914 -13.896  -3.441  1.00144.10     0.187 C 
HETATM   24  O9  MIQ B 502     -20.147 -12.522  -3.348  1.00148.65    -0.388 OA
HETATM   25  C10 MIQ B 502     -19.078 -11.630  -3.222  1.00147.44     0.187 C 
HETATM   26  C11 MIQ B 502     -17.742 -11.998  -3.859  1.00144.08     0.149 C 
ENDBRANCH   5  21
TORSDOF 2
ENDMDL
MODEL 7
REMARK VINA RESULT:      -5.7      5.241      7.545
REMARK  2 active torsions:
REMARK  status: ('A' for Active; 'I' for Inactive)
REMARK    1  A    between atoms: C5_5  and  N6_21 
REMARK    2  A    between atoms: C18_14  and  N17_19 
ROOT
HETATM    1  O1  MIQ B 502     -16.192 -12.611  -4.981  1.00142.91    -0.171 OA
HETATM    2  C2  MIQ B 502     -16.122 -13.841  -4.323  1.00141.17     0.195 A 
HETATM    3  C3  MIQ B 502     -14.840 -14.714  -4.133  1.00141.71     0.035 A 
HETATM    4  C4  MIQ B 502     -13.425 -14.548  -4.541  1.00142.86     0.046 A 
HETATM    5  C5  MIQ B 502     -12.464 -15.538  -4.214  1.00139.53     0.031 A 
HETATM    6  C12 MIQ B 502     -12.872 -16.724  -3.474  1.00139.38     0.030 A 
HETATM    7  C13 MIQ B 502     -14.228 -16.883  -3.082  1.00141.18     0.019 A 
HETATM    8  C14 MIQ B 502     -15.232 -15.839  -3.426  1.00138.77     0.033 A 
HETATM    9  C15 MIQ B 502     -16.765 -15.663  -3.174  1.00142.10     0.195 A 
HETATM   10  N17 MIQ B 502     -17.096 -14.509  -3.730  1.00139.42    -0.288 N 
HETATM   11  O16 MIQ B 502     -17.608 -16.548  -2.500  1.00148.93    -0.171 OA
ENDROOT
BRANCH  10  12
HETATM   12  C18 MIQ B 502     -18.463 -14.021  -3.705  1.00139.82     0.187 C 
HETATM   13  C19 MIQ B 502     -18.878 -13.720  -5.150  1.00140.06     0.247 C 
HETATM   14  O25 MIQ B 502     -18.720 -14.544  -5.979  1.00143.95    -0.271 OA
HETATM   15  N20 MIQ B 502     -19.466 -12.451  -5.527  1.00140.02    -0.296 N 
HETATM   16  H13 MIQ B 502     -19.727 -12.264  -6.475  1.00142.77     0.171 HD
HETATM   17  C21 MIQ B 502     -19.639 -11.456  -4.500  1.00142.22     0.224 C 
HETATM   18  C22 MIQ B 502     -18.595 -11.424  -3.400  1.00139.52     0.106 C 
HETATM   19  O24 MIQ B 502     -20.553 -10.707  -4.513  1.00146.13    -0.273 OA
HETATM   20  C23 MIQ B 502     -18.578 -12.809  -2.781  1.00139.15     0.045 C 
ENDBRANCH  10  12
BRANCH   5  21
HETATM   21  N6  MIQ B 502     -11.084 -15.369  -4.632  1.00140.95    -0.377 N 
HETATM   22  C7  MIQ B 502     -10.769 -14.312  -5.577  1.00142.12     0.149 C 
HETATM   23  C8  MIQ B 502      -9.523 -14.631  -6.393  1.00144.10     0.187 C 
HETATM   24  O9  MIQ B 502      -8.455 -15.066  -5.606  1.00148.65    -0.388 OA
HETATM   25  C10 MIQ B 502      -8.650 -15.378  -4.258  1.00147.44     0.187 C 
HETATM   26  C11 MIQ B 502     -10.009 -15.915  -3.823  1.00144.08     0.149 C 
ENDBRANCH   5  21
TORSDOF 2
ENDMDL
MODEL 8
REMARK VINA RESULT:      -5.7      2.050      7.945
REMARK  2 active torsions:
REMARK  status: ('A' for Active; 'I' for Inactive)
REMARK    1  A    between atoms: C5_5  and  N6_21 
REMARK    2  A    between atoms: C18_14  and  N17_19 
ROOT
HETATM    1  O1  MIQ B 502     -14.460 -16.362  -5.453  1.00142.91    -0.171 OA
HETATM    2  C2  MIQ B 502     -13.111 -16.339  -5.089  1.00141.17     0.195 A 
HETATM    3  C3  MIQ B 502     -12.006 -15.423  -5.704  1.00141.71     0.035 A 
HETATM    4  C4  MIQ B 502     -12.015 -14.383  -6.760  1.00142.86     0.046 A 
HETATM    5  C5  MIQ B 502     -10.820 -13.704  -7.108  1.00139.53     0.031 A 
HETATM    6  C12 MIQ B 502      -9.578 -14.030  -6.422  1.00139.38     0.030 A 
HETATM    7  C13 MIQ B 502      -9.569 -15.026  -5.409  1.00141.18     0.019 A 
HETATM    8  C14 MIQ B 502     -10.827 -15.734  -5.047  1.00138.77     0.033 A 
HETATM    9  C15 MIQ B 502     -11.203 -16.850  -4.017  1.00142.10     0.195 A 
HETATM   10  N17 MIQ B 502     -12.499 -17.064  -4.169  1.00139.42    -0.288 N 
HETATM   11  O16 MIQ B 502     -10.341 -17.488  -3.124  1.00148.93    -0.171 OA
ENDROOT
BRANCH  10  12
HETATM   12  C18 MIQ B 502     -13.200 -18.059  -3.378  1.00139.82     0.187 C 
HETATM   13  C19 MIQ B 502     -13.861 -19.047  -4.348  1.00140.06     0.247 C 
HETATM   14  O25 MIQ B 502     -13.211 -19.539  -5.200  1.00143.95    -0.271 OA
HETATM   15  N20 MIQ B 502     -15.263 -19.397  -4.243  1.00140.02    -0.296 N 
HETATM   16  H13 MIQ B 502     -15.684 -20.038  -4.887  1.00142.77     0.171 HD
HETATM   17  C21 MIQ B 502     -16.038 -18.774  -3.201  1.00142.22     0.224 C 
HETATM   18  C22 MIQ B 502     -15.661 -17.353  -2.829  1.00139.52     0.106 C 
HETATM   19  O24 MIQ B 502     -16.920 -19.347  -2.661  1.00146.13    -0.273 OA
HETATM   20  C23 MIQ B 502     -14.195 -17.385  -2.436  1.00139.15     0.045 C 
ENDBRANCH  10  12
BRANCH   5  21
HETATM   21  N6  MIQ B 502     -10.841 -12.698  -8.154  1.00140.95    -0.377 N 
HETATM   22  C7  MIQ B 502     -10.081 -12.943  -9.368  1.00142.12     0.149 C 
HETATM   23  C8  MIQ B 502      -9.661 -11.645 -10.047  1.00144.10     0.187 C 
HETATM   24  O9  MIQ B 502     -10.711 -10.734 -10.174  1.00148.65    -0.388 OA
HETATM   25  C10 MIQ B 502     -11.924 -10.956  -9.517  1.00147.44     0.187 C 
HETATM   26  C11 MIQ B 502     -11.910 -11.715  -8.195  1.00144.08     0.149 C 
ENDBRANCH   5  21
TORSDOF 2
ENDMDL
MODEL 9
REMARK VINA RESULT:      -5.7     12.870     15.513
REMARK  2 active torsions:
REMARK  status: ('A' for Active; 'I' for Inactive)
REMARK    1  A    between atoms: C5_5  and  N6_21 
REMARK    2  A    between atoms: C18_14  and  N17_19 
ROOT
HETATM    1  O1  MIQ B 502     -14.925  -6.264 -17.552  1.00142.91    -0.171 OA
HETATM    2  C2  MIQ B 502     -15.433  -5.929 -16.295  1.00141.17     0.195 A 
HETATM    3  C3  MIQ B 502     -15.055  -4.669 -15.453  1.00141.71     0.035 A 
HETATM    4  C4  MIQ B 502     -14.135  -3.529 -15.682  1.00142.86     0.046 A 
HETATM    5  C5  MIQ B 502     -14.002  -2.508 -14.707  1.00139.53     0.031 A 
HETATM    6  C12 MIQ B 502     -14.776  -2.581 -13.475  1.00139.38     0.030 A 
HETATM    7  C13 MIQ B 502     -15.659  -3.672 -13.256  1.00141.18     0.019 A 
HETATM    8  C14 MIQ B 502     -15.796  -4.740 -14.284  1.00138.77     0.033 A 
HETATM    9  C15 MIQ B 502     -16.639  -6.051 -14.401  1.00142.10     0.195 A 
HETATM   10  N17 MIQ B 502     -16.323  -6.586 -15.570  1.00139.42    -0.288 N 
HETATM   11  O16 MIQ B 502     -17.538  -6.553 -13.460  1.00148.93    -0.171 OA
ENDROOT
BRANCH  10  12
HETATM   12  C18 MIQ B 502     -16.909  -7.836 -16.014  1.00139.82     0.187 C 
HETATM   13  C19 MIQ B 502     -15.763  -8.784 -16.388  1.00140.06     0.247 C 
HETATM   14  O25 MIQ B 502     -14.885  -8.958 -15.618  1.00143.95    -0.271 OA
HETATM   15  N20 MIQ B 502     -15.729  -9.478 -17.659  1.00140.02    -0.296 N 
HETATM   16  H13 MIQ B 502     -14.971 -10.089 -17.893  1.00142.77     0.171 HD
HETATM   17  C21 MIQ B 502     -16.806  -9.241 -18.585  1.00142.22     0.224 C 
HETATM   18  C22 MIQ B 502     -17.413  -7.852 -18.584  1.00139.52     0.106 C 
HETATM   19  O24 MIQ B 502     -17.199 -10.091 -19.306  1.00146.13    -0.273 OA
HETATM   20  C23 MIQ B 502     -17.883  -7.588 -17.165  1.00139.15     0.045 C 
ENDBRANCH  10  12
BRANCH   5  21
HETATM   21  N6  MIQ B 502     -13.086  -1.406 -14.937  1.00140.95    -0.377 N 
HETATM   22  C7  MIQ B 502     -11.838  -1.674 -15.630  1.00142.12     0.149 C 
HETATM   23  C8  MIQ B 502     -10.751  -0.677 -15.249  1.00144.10     0.187 C 
HETATM   24  O9  MIQ B 502     -11.188   0.648 -15.297  1.00148.65    -0.388 OA
HETATM   25  C10 MIQ B 502     -12.545   0.941 -15.453  1.00147.44     0.187 C 
HETATM   26  C11 MIQ B 502     -13.572  -0.038 -14.892  1.00144.08     0.149 C 
ENDBRANCH   5  21
TORSDOF 2
ENDMDL
