MODEL 1
REMARK VINA RESULT:      -6.9      0.000      0.000
REMARK  2 active torsions:
REMARK  status: ('A' for Active; 'I' for Inactive)
REMARK    1  A    between atoms: C5_5  and  N6_21 
REMARK    2  A    between atoms: C18_14  and  N17_19 
ROOT
HETATM    1  O1  MIQ B 502      21.351   7.316  -4.111  1.00142.91    -0.171 OA
HETATM    2  C2  MIQ B 502      22.164   7.836  -5.121  1.00141.17     0.195 A 
HETATM    3  C3  MIQ B 502      21.835   7.863  -6.648  1.00141.71     0.035 A 
HETATM    4  C4  MIQ B 502      20.677   7.399  -7.449  1.00142.86     0.046 A 
HETATM    5  C5  MIQ B 502      20.667   7.568  -8.857  1.00139.53     0.031 A 
HETATM    6  C12 MIQ B 502      21.800   8.200  -9.517  1.00139.38     0.030 A 
HETATM    7  C13 MIQ B 502      22.909   8.646  -8.749  1.00141.18     0.019 A 
HETATM    8  C14 MIQ B 502      22.913   8.468  -7.271  1.00138.77     0.033 A 
HETATM    9  C15 MIQ B 502      23.917   8.820  -6.125  1.00142.10     0.195 A 
HETATM   10  N17 MIQ B 502      23.350   8.407  -5.004  1.00139.42    -0.288 N 
HETATM   11  O16 MIQ B 502      25.160   9.441  -6.264  1.00148.93    -0.171 OA
ENDROOT
BRANCH  10  12
HETATM   12  C18 MIQ B 502      24.011   8.557  -3.721  1.00139.82     0.187 C 
HETATM   13  C19 MIQ B 502      24.066   7.175  -3.058  1.00140.06     0.247 C 
HETATM   14  O25 MIQ B 502      24.493   6.261  -3.669  1.00143.95    -0.271 OA
HETATM   15  N20 MIQ B 502      23.614   6.962  -1.699  1.00140.02    -0.296 N 
HETATM   16  H13 MIQ B 502      23.649   6.053  -1.280  1.00142.77     0.171 HD
HETATM   17  C21 MIQ B 502      23.088   8.092  -0.977  1.00142.22     0.224 C 
HETATM   18  C22 MIQ B 502      22.338   9.129  -1.790  1.00139.52     0.106 C 
HETATM   19  O24 MIQ B 502      23.240   8.205   0.189  1.00146.13    -0.273 OA
HETATM   20  C23 MIQ B 502      23.292   9.603  -2.871  1.00139.15     0.045 C 
ENDBRANCH  10  12
BRANCH   5  21
HETATM   21  N6  MIQ B 502      19.533   7.096  -9.631  1.00140.95    -0.377 N 
HETATM   22  C7  MIQ B 502      19.215   5.678  -9.603  1.00142.12     0.149 C 
HETATM   23  C8  MIQ B 502      18.495   5.232 -10.870  1.00144.10     0.187 C 
HETATM   24  O9  MIQ B 502      17.438   6.074 -11.219  1.00148.65    -0.388 OA
HETATM   25  C10 MIQ B 502      17.265   7.300 -10.570  1.00147.44     0.187 C 
HETATM   26  C11 MIQ B 502      18.499   8.027 -10.045  1.00144.08     0.149 C 
ENDBRANCH   5  21
TORSDOF 2
ENDMDL
MODEL 2
REMARK VINA RESULT:      -6.7     20.516     22.251
REMARK  2 active torsions:
REMARK  status: ('A' for Active; 'I' for Inactive)
REMARK    1  A    between atoms: C5_5  and  N6_21 
REMARK    2  A    between atoms: C18_14  and  N17_19 
ROOT
HETATM    1  O1  MIQ B 502      18.293 -15.349  -3.548  1.00142.91    -0.171 OA
HETATM    2  C2  MIQ B 502      18.347 -14.402  -4.574  1.00141.17     0.195 A 
HETATM    3  C3  MIQ B 502      18.035 -14.658  -6.083  1.00141.71     0.035 A 
HETATM    4  C4  MIQ B 502      17.621 -15.858  -6.848  1.00142.86     0.046 A 
HETATM    5  C5  MIQ B 502      17.407 -15.777  -8.247  1.00139.53     0.031 A 
HETATM    6  C12 MIQ B 502      17.595 -14.507  -8.934  1.00139.38     0.030 A 
HETATM    7  C13 MIQ B 502      17.991 -13.357  -8.201  1.00141.18     0.019 A 
HETATM    8  C14 MIQ B 502      18.212 -13.447  -6.731  1.00138.77     0.033 A 
HETATM    9  C15 MIQ B 502      18.634 -12.433  -5.619  1.00142.10     0.195 A 
HETATM   10  N17 MIQ B 502      18.658 -13.120  -4.489  1.00139.42    -0.288 N 
HETATM   11  O16 MIQ B 502      18.928 -11.079  -5.790  1.00148.93    -0.171 OA
ENDROOT
BRANCH  10  12
HETATM   12  C18 MIQ B 502      19.029 -12.497  -3.232  1.00139.82     0.187 C 
HETATM   13  C19 MIQ B 502      18.232 -11.194  -3.102  1.00140.06     0.247 C 
HETATM   14  O25 MIQ B 502      17.062 -11.217  -3.254  1.00143.95    -0.271 OA
HETATM   15  N20 MIQ B 502      18.874  -9.933  -2.793  1.00140.02    -0.296 N 
HETATM   16  H13 MIQ B 502      18.343  -9.088  -2.718  1.00142.77     0.171 HD
HETATM   17  C21 MIQ B 502      20.304  -9.929  -2.622  1.00142.22     0.224 C 
HETATM   18  C22 MIQ B 502      21.094 -10.905  -3.471  1.00139.52     0.106 C 
HETATM   19  O24 MIQ B 502      20.832  -9.203  -1.853  1.00146.13    -0.273 OA
HETATM   20  C23 MIQ B 502      20.541 -12.286  -3.168  1.00139.15     0.045 C 
ENDBRANCH  10  12
BRANCH   5  21
HETATM   21  N6  MIQ B 502      17.016 -16.963  -8.987  1.00140.95    -0.377 N 
HETATM   22  C7  MIQ B 502      16.501 -18.104  -8.249  1.00142.12     0.149 C 
HETATM   23  C8  MIQ B 502      16.742 -19.415  -8.987  1.00144.10     0.187 C 
HETATM   24  O9  MIQ B 502      16.371 -19.357 -10.331  1.00148.65    -0.388 OA
HETATM   25  C10 MIQ B 502      16.046 -18.134 -10.924  1.00147.44     0.187 C 
HETATM   26  C11 MIQ B 502      16.722 -16.870 -10.406  1.00144.08     0.149 C 
ENDBRANCH   5  21
TORSDOF 2
ENDMDL
MODEL 3
REMARK VINA RESULT:      -6.7      3.316      3.935
REMARK  2 active torsions:
REMARK  status: ('A' for Active; 'I' for Inactive)
REMARK    1  A    between atoms: C5_5  and  N6_21 
REMARK    2  A    between atoms: C18_14  and  N17_19 
ROOT
HETATM    1  O1  MIQ B 502      22.626   7.225  -5.661  1.00142.91    -0.171 OA
HETATM    2  C2  MIQ B 502      23.723   8.082  -5.764  1.00141.17     0.195 A 
HETATM    3  C3  MIQ B 502      24.354   8.617  -7.089  1.00141.71     0.035 A 
HETATM    4  C4  MIQ B 502      24.034   8.419  -8.523  1.00142.86     0.046 A 
HETATM    5  C5  MIQ B 502      24.809   9.056  -9.525  1.00139.53     0.031 A 
HETATM    6  C12 MIQ B 502      25.924   9.910  -9.142  1.00139.38     0.030 A 
HETATM    7  C13 MIQ B 502      26.231  10.101  -7.768  1.00141.18     0.019 A 
HETATM    8  C14 MIQ B 502      25.412   9.431  -6.720  1.00138.77     0.033 A 
HETATM    9  C15 MIQ B 502      25.438   9.402  -5.157  1.00142.10     0.195 A 
HETATM   10  N17 MIQ B 502      24.440   8.615  -4.790  1.00139.42    -0.288 N 
HETATM   11  O16 MIQ B 502      26.336  10.071  -4.323  1.00148.93    -0.171 OA
ENDROOT
BRANCH  10  12
HETATM   12  C18 MIQ B 502      24.168   8.340  -3.391  1.00139.82     0.187 C 
HETATM   13  C19 MIQ B 502      24.170   6.817  -3.206  1.00140.06     0.247 C 
HETATM   14  O25 MIQ B 502      25.084   6.189  -3.608  1.00143.95    -0.271 OA
HETATM   15  N20 MIQ B 502      23.083   6.127  -2.543  1.00140.02    -0.296 N 
HETATM   16  H13 MIQ B 502      23.093   5.132  -2.434  1.00142.77     0.171 HD
HETATM   17  C21 MIQ B 502      21.973   6.915  -2.069  1.00142.22     0.224 C 
HETATM   18  C22 MIQ B 502      21.606   8.136  -2.889  1.00139.52     0.106 C 
HETATM   19  O24 MIQ B 502      21.384   6.623  -1.087  1.00146.13    -0.273 OA
HETATM   20  C23 MIQ B 502      22.855   8.995  -2.966  1.00139.15     0.045 C 
ENDBRANCH  10  12
BRANCH   5  21
HETATM   21  N6  MIQ B 502      24.493   8.841 -10.925  1.00140.95    -0.377 N 
HETATM   22  C7  MIQ B 502      23.303   9.470 -11.473  1.00142.12     0.149 C 
HETATM   23  C8  MIQ B 502      22.749   8.696 -12.663  1.00144.10     0.187 C 
HETATM   24  O9  MIQ B 502      23.730   8.359 -13.597  1.00148.65    -0.388 OA
HETATM   25  C10 MIQ B 502      25.083   8.534 -13.297  1.00147.44     0.187 C 
HETATM   26  C11 MIQ B 502      25.530   8.406 -11.844  1.00144.08     0.149 C 
ENDBRANCH   5  21
TORSDOF 2
ENDMDL
MODEL 4
REMARK VINA RESULT:      -6.6     18.486     19.754
REMARK  2 active torsions:
REMARK  status: ('A' for Active; 'I' for Inactive)
REMARK    1  A    between atoms: C5_5  and  N6_21 
REMARK    2  A    between atoms: C18_14  and  N17_19 
ROOT
HETATM    1  O1  MIQ B 502      19.394  -9.267  -0.415  1.00142.91    -0.171 OA
HETATM    2  C2  MIQ B 502      20.061 -10.492  -0.494  1.00141.17     0.195 A 
HETATM    3  C3  MIQ B 502      19.986 -11.508  -1.678  1.00141.71     0.035 A 
HETATM    4  C4  MIQ B 502      19.265 -11.513  -2.973  1.00142.86     0.046 A 
HETATM    5  C5  MIQ B 502      19.401 -12.606  -3.865  1.00139.53     0.031 A 
HETATM    6  C12 MIQ B 502      20.253 -13.731  -3.506  1.00139.38     0.030 A 
HETATM    7  C13 MIQ B 502      20.945 -13.726  -2.265  1.00141.18     0.019 A 
HETATM    8  C14 MIQ B 502      20.801 -12.574  -1.333  1.00138.77     0.033 A 
HETATM    9  C15 MIQ B 502      21.385 -12.217   0.072  1.00142.10     0.195 A 
HETATM   10  N17 MIQ B 502      20.879 -11.037   0.389  1.00139.42    -0.288 N 
HETATM   11  O16 MIQ B 502      22.261 -12.992   0.835  1.00148.93    -0.171 OA
ENDROOT
BRANCH  10  12
HETATM   12  C18 MIQ B 502      21.195 -10.391   1.650  1.00139.82     0.187 C 
HETATM   13  C19 MIQ B 502      19.871 -10.044   2.342  1.00140.06     0.247 C 
HETATM   14  O25 MIQ B 502      19.051 -10.883   2.469  1.00143.95    -0.271 OA
HETATM   15  N20 MIQ B 502      19.600  -8.715   2.850  1.00140.02    -0.296 N 
HETATM   16  H13 MIQ B 502      18.729  -8.500   3.294  1.00142.77     0.171 HD
HETATM   17  C21 MIQ B 502      20.612  -7.706   2.673  1.00142.22     0.224 C 
HETATM   18  C22 MIQ B 502      21.450  -7.796   1.413  1.00139.52     0.106 C 
HETATM   19  O24 MIQ B 502      20.782  -6.855   3.475  1.00146.13    -0.273 OA
HETATM   20  C23 MIQ B 502      22.087  -9.174   1.415  1.00139.15     0.045 C 
ENDBRANCH  10  12
BRANCH   5  21
HETATM   21  N6  MIQ B 502      18.677 -12.604  -5.124  1.00140.95    -0.377 N 
HETATM   22  C7  MIQ B 502      18.510 -11.344  -5.827  1.00142.12     0.149 C 
HETATM   23  C8  MIQ B 502      17.267 -11.344  -6.707  1.00144.10     0.187 C 
HETATM   24  O9  MIQ B 502      17.162 -12.488  -7.500  1.00148.65    -0.388 OA
HETATM   25  C10 MIQ B 502      18.011 -13.577  -7.286  1.00147.44     0.187 C 
HETATM   26  C11 MIQ B 502      18.520 -13.839  -5.873  1.00144.08     0.149 C 
ENDBRANCH   5  21
TORSDOF 2
ENDMDL
MODEL 5
REMARK VINA RESULT:      -6.6      2.219      7.886
REMARK  2 active torsions:
REMARK  status: ('A' for Active; 'I' for Inactive)
REMARK    1  A    between atoms: C5_5  and  N6_21 
REMARK    2  A    between atoms: C18_14  and  N17_19 
ROOT
HETATM    1  O1  MIQ B 502      20.389   7.332  -7.365  1.00142.91    -0.171 OA
HETATM    2  C2  MIQ B 502      21.509   7.975  -7.894  1.00141.17     0.195 A 
HETATM    3  C3  MIQ B 502      22.852   8.254  -7.146  1.00141.71     0.035 A 
HETATM    4  C4  MIQ B 502      23.335   7.960  -5.777  1.00142.86     0.046 A 
HETATM    5  C5  MIQ B 502      24.640   8.347  -5.378  1.00139.53     0.031 A 
HETATM    6  C12 MIQ B 502      25.508   9.037  -6.322  1.00139.38     0.030 A 
HETATM    7  C13 MIQ B 502      25.046   9.318  -7.635  1.00141.18     0.019 A 
HETATM    8  C14 MIQ B 502      23.676   8.907  -8.049  1.00138.77     0.033 A 
HETATM    9  C15 MIQ B 502      22.841   9.034  -9.364  1.00142.10     0.195 A 
HETATM   10  N17 MIQ B 502      21.672   8.468  -9.110  1.00139.42    -0.288 N 
HETATM   11  O16 MIQ B 502      23.249   9.627 -10.560  1.00148.93    -0.171 OA
ENDROOT
BRANCH  10  12
HETATM   12  C18 MIQ B 502      20.623   8.414 -10.112  1.00139.82     0.187 C 
HETATM   13  C19 MIQ B 502      19.398   9.141  -9.545  1.00140.06     0.247 C 
HETATM   14  O25 MIQ B 502      19.526  10.226  -9.100  1.00143.95    -0.271 OA
HETATM   15  N20 MIQ B 502      18.082   8.535  -9.546  1.00140.02    -0.296 N 
HETATM   16  H13 MIQ B 502      17.291   9.017  -9.167  1.00142.77     0.171 HD
HETATM   17  C21 MIQ B 502      17.952   7.205 -10.085  1.00142.22     0.224 C 
HETATM   18  C22 MIQ B 502      19.132   6.273  -9.889  1.00139.52     0.106 C 
HETATM   19  O24 MIQ B 502      16.976   6.863 -10.656  1.00146.13    -0.273 OA
HETATM   20  C23 MIQ B 502      20.336   6.965 -10.503  1.00139.15     0.045 C 
ENDBRANCH  10  12
BRANCH   5  21
HETATM   21  N6  MIQ B 502      25.095   8.066  -4.029  1.00140.95    -0.377 N 
HETATM   22  C7  MIQ B 502      26.376   8.602  -3.602  1.00142.12     0.149 C 
HETATM   23  C8  MIQ B 502      27.009   7.756  -2.505  1.00144.10     0.187 C 
HETATM   24  O9  MIQ B 502      26.119   7.446  -1.475  1.00148.65    -0.388 OA
HETATM   25  C10 MIQ B 502      24.754   7.713  -1.615  1.00147.44     0.187 C 
HETATM   26  C11 MIQ B 502      24.141   7.663  -3.011  1.00144.08     0.149 C 
ENDBRANCH   5  21
TORSDOF 2
ENDMDL
MODEL 6
REMARK VINA RESULT:      -6.5     18.173     19.533
REMARK  2 active torsions:
REMARK  status: ('A' for Active; 'I' for Inactive)
REMARK    1  A    between atoms: C5_5  and  N6_21 
REMARK    2  A    between atoms: C18_14  and  N17_19 
ROOT
HETATM    1  O1  MIQ B 502      20.800  -8.950  -1.899  1.00142.91    -0.171 OA
HETATM    2  C2  MIQ B 502      20.384 -10.158  -1.333  1.00141.17     0.195 A 
HETATM    3  C3  MIQ B 502      19.713 -11.348  -2.089  1.00141.71     0.035 A 
HETATM    4  C4  MIQ B 502      19.337 -11.573  -3.505  1.00142.86     0.046 A 
HETATM    5  C5  MIQ B 502      18.727 -12.791  -3.900  1.00139.53     0.031 A 
HETATM    6  C12 MIQ B 502      18.470 -13.825  -2.908  1.00139.38     0.030 A 
HETATM    7  C13 MIQ B 502      18.831 -13.610  -1.551  1.00141.18     0.019 A 
HETATM    8  C14 MIQ B 502      19.473 -12.330  -1.143  1.00138.77     0.033 A 
HETATM    9  C15 MIQ B 502      19.999 -11.747   0.209  1.00142.10     0.195 A 
HETATM   10  N17 MIQ B 502      20.471 -10.543  -0.071  1.00139.42    -0.288 N 
HETATM   11  O16 MIQ B 502      19.970 -12.372   1.457  1.00148.93    -0.171 OA
ENDROOT
BRANCH  10  12
HETATM   12  C18 MIQ B 502      21.033  -9.691   0.960  1.00139.82     0.187 C 
HETATM   13  C19 MIQ B 502      20.377  -8.310   0.834  1.00140.06     0.247 C 
HETATM   14  O25 MIQ B 502      19.200  -8.233   0.792  1.00143.95    -0.271 OA
HETATM   15  N20 MIQ B 502      21.162  -7.094   0.771  1.00140.02    -0.296 N 
HETATM   16  H13 MIQ B 502      20.722  -6.200   0.682  1.00142.77     0.171 HD
HETATM   17  C21 MIQ B 502      22.596  -7.215   0.814  1.00142.22     0.224 C 
HETATM   18  C22 MIQ B 502      23.196  -8.447   0.165  1.00139.52     0.106 C 
HETATM   19  O24 MIQ B 502      23.270  -6.395   1.334  1.00146.13    -0.273 OA
HETATM   20  C23 MIQ B 502      22.555  -9.646   0.841  1.00139.15     0.045 C 
ENDBRANCH  10  12
BRANCH   5  21
HETATM   21  N6  MIQ B 502      18.351 -12.992  -5.287  1.00140.95    -0.377 N 
HETATM   22  C7  MIQ B 502      17.887 -14.306  -5.698  1.00142.12     0.149 C 
HETATM   23  C8  MIQ B 502      18.145 -14.564  -7.177  1.00144.10     0.187 C 
HETATM   24  O9  MIQ B 502      17.738 -13.506  -7.992  1.00148.65    -0.388 OA
HETATM   25  C10 MIQ B 502      17.364 -12.283  -7.430  1.00147.44     0.187 C 
HETATM   26  C11 MIQ B 502      18.019 -11.851  -6.122  1.00144.08     0.149 C 
ENDBRANCH   5  21
TORSDOF 2
ENDMDL
MODEL 7
REMARK VINA RESULT:      -6.5     18.441     19.768
REMARK  2 active torsions:
REMARK  status: ('A' for Active; 'I' for Inactive)
REMARK    1  A    between atoms: C5_5  and  N6_21 
REMARK    2  A    between atoms: C18_14  and  N17_19 
ROOT
HETATM    1  O1  MIQ B 502      22.422 -12.167  -2.287  1.00142.91    -0.171 OA
HETATM    2  C2  MIQ B 502      21.154 -11.588  -2.216  1.00141.17     0.195 A 
HETATM    3  C3  MIQ B 502      19.971 -11.835  -3.206  1.00141.71     0.035 A 
HETATM    4  C4  MIQ B 502      19.813 -12.676  -4.416  1.00142.86     0.046 A 
HETATM    5  C5  MIQ B 502      18.583 -12.693  -5.122  1.00139.53     0.031 A 
HETATM    6  C12 MIQ B 502      17.470 -11.879  -4.654  1.00139.38     0.030 A 
HETATM    7  C13 MIQ B 502      17.621 -11.074  -3.493  1.00141.18     0.019 A 
HETATM    8  C14 MIQ B 502      18.913 -11.062  -2.755  1.00138.77     0.033 A 
HETATM    9  C15 MIQ B 502      19.443 -10.331  -1.477  1.00142.10     0.195 A 
HETATM   10  N17 MIQ B 502      20.693 -10.734  -1.319  1.00139.42    -0.288 N 
HETATM   11  O16 MIQ B 502      18.736  -9.435  -0.674  1.00148.93    -0.171 OA
ENDROOT
BRANCH  10  12
HETATM   12  C18 MIQ B 502      21.514 -10.242  -0.228  1.00139.82     0.187 C 
HETATM   13  C19 MIQ B 502      20.764 -10.517   1.082  1.00140.06     0.247 C 
HETATM   14  O25 MIQ B 502      20.354 -11.603   1.294  1.00143.95    -0.271 OA
HETATM   15  N20 MIQ B 502      20.550  -9.481   2.072  1.00140.02    -0.296 N 
HETATM   16  H13 MIQ B 502      20.054  -9.672   2.920  1.00142.77     0.171 HD
HETATM   17  C21 MIQ B 502      21.051  -8.161   1.786  1.00142.22     0.224 C 
HETATM   18  C22 MIQ B 502      21.039  -7.728   0.332  1.00139.52     0.106 C 
HETATM   19  O24 MIQ B 502      21.456  -7.455   2.642  1.00146.13    -0.273 OA
HETATM   20  C23 MIQ B 502      21.842  -8.764  -0.433  1.00139.15     0.045 C 
ENDBRANCH  10  12
BRANCH   5  21
HETATM   21  N6  MIQ B 502      18.448 -13.510  -6.314  1.00140.95    -0.377 N 
HETATM   22  C7  MIQ B 502      18.450 -14.955  -6.169  1.00142.12     0.149 C 
HETATM   23  C8  MIQ B 502      18.942 -15.653  -7.430  1.00144.10     0.187 C 
HETATM   24  O9  MIQ B 502      18.334 -15.170  -8.591  1.00148.65    -0.388 OA
HETATM   25  C10 MIQ B 502      17.548 -14.016  -8.550  1.00147.44     0.187 C 
HETATM   26  C11 MIQ B 502      17.887 -12.938  -7.525  1.00144.08     0.149 C 
ENDBRANCH   5  21
TORSDOF 2
ENDMDL
MODEL 8
REMARK VINA RESULT:      -6.4      2.090      8.814
REMARK  2 active torsions:
REMARK  status: ('A' for Active; 'I' for Inactive)
REMARK    1  A    between atoms: C5_5  and  N6_21 
REMARK    2  A    between atoms: C18_14  and  N17_19 
ROOT
HETATM    1  O1  MIQ B 502      17.946   5.477  -8.570  1.00142.91    -0.171 OA
HETATM    2  C2  MIQ B 502      18.821   6.302  -9.281  1.00141.17     0.195 A 
HETATM    3  C3  MIQ B 502      20.107   6.985  -8.716  1.00141.71     0.035 A 
HETATM    4  C4  MIQ B 502      20.761   6.984  -7.386  1.00142.86     0.046 A 
HETATM    5  C5  MIQ B 502      21.955   7.720  -7.174  1.00139.53     0.031 A 
HETATM    6  C12 MIQ B 502      22.540   8.479  -8.270  1.00139.38     0.030 A 
HETATM    7  C13 MIQ B 502      21.914   8.479  -9.545  1.00141.18     0.019 A 
HETATM    8  C14 MIQ B 502      20.662   7.703  -9.763  1.00138.77     0.033 A 
HETATM    9  C15 MIQ B 502      19.716   7.464 -10.984  1.00142.10     0.195 A 
HETATM   10  N17 MIQ B 502      18.752   6.669 -10.549  1.00139.42    -0.288 N 
HETATM   11  O16 MIQ B 502      19.861   7.989 -12.269  1.00148.93    -0.171 OA
ENDROOT
BRANCH  10  12
HETATM   12  C18 MIQ B 502      17.672   6.243 -11.418  1.00139.82     0.187 C 
HETATM   13  C19 MIQ B 502      18.295   5.542 -12.632  1.00140.06     0.247 C 
HETATM   14  O25 MIQ B 502      19.085   4.683 -12.457  1.00143.95    -0.271 OA
HETATM   15  N20 MIQ B 502      17.938   5.901 -13.989  1.00140.02    -0.296 N 
HETATM   16  H13 MIQ B 502      18.358   5.441 -14.772  1.00142.77     0.171 HD
HETATM   17  C21 MIQ B 502      16.980   6.960 -14.176  1.00142.22     0.224 C 
HETATM   18  C22 MIQ B 502      16.997   8.082 -13.156  1.00139.52     0.106 C 
HETATM   19  O24 MIQ B 502      16.216   6.950 -15.077  1.00146.13    -0.273 OA
HETATM   20  C23 MIQ B 502      16.794   7.434 -11.798  1.00139.15     0.045 C 
ENDBRANCH  10  12
BRANCH   5  21
HETATM   21  N6  MIQ B 502      22.576   7.722  -5.862  1.00140.95    -0.377 N 
HETATM   22  C7  MIQ B 502      23.958   8.158  -5.749  1.00142.12     0.149 C 
HETATM   23  C8  MIQ B 502      24.655   7.531  -4.549  1.00144.10     0.187 C 
HETATM   24  O9  MIQ B 502      23.903   7.620  -3.376  1.00148.65    -0.388 OA
HETATM   25  C10 MIQ B 502      22.571   8.036  -3.419  1.00147.44     0.187 C 
HETATM   26  C11 MIQ B 502      21.750   7.728  -4.668  1.00144.08     0.149 C 
ENDBRANCH   5  21
TORSDOF 2
ENDMDL
MODEL 9
REMARK VINA RESULT:      -6.3     18.039     18.966
REMARK  2 active torsions:
REMARK  status: ('A' for Active; 'I' for Inactive)
REMARK    1  A    between atoms: C5_5  and  N6_21 
REMARK    2  A    between atoms: C18_14  and  N17_19 
ROOT
HETATM    1  O1  MIQ B 502      19.605 -10.452  -0.018  1.00142.91    -0.171 OA
HETATM    2  C2  MIQ B 502      20.722 -10.306  -0.844  1.00141.17     0.195 A 
HETATM    3  C3  MIQ B 502      20.801 -10.672  -2.361  1.00141.71     0.035 A 
HETATM    4  C4  MIQ B 502      19.826 -11.231  -3.327  1.00142.86     0.046 A 
HETATM    5  C5  MIQ B 502      20.202 -11.458  -4.675  1.00139.53     0.031 A 
HETATM    6  C12 MIQ B 502      21.554 -11.138  -5.111  1.00139.38     0.030 A 
HETATM    7  C13 MIQ B 502      22.488 -10.601  -4.186  1.00141.18     0.019 A 
HETATM    8  C14 MIQ B 502      22.088 -10.363  -2.772  1.00138.77     0.033 A 
HETATM    9  C15 MIQ B 502      22.810  -9.802  -1.505  1.00142.10     0.195 A 
HETATM   10  N17 MIQ B 502      21.917  -9.836  -0.530  1.00139.42    -0.288 N 
HETATM   11  O16 MIQ B 502      24.131  -9.359  -1.423  1.00148.93    -0.171 OA
ENDROOT
BRANCH  10  12
HETATM   12  C18 MIQ B 502      22.245  -9.399   0.814  1.00139.82     0.187 C 
HETATM   13  C19 MIQ B 502      21.887 -10.537   1.777  1.00140.06     0.247 C 
HETATM   14  O25 MIQ B 502      22.288 -11.625   1.558  1.00143.95    -0.271 OA
HETATM   15  N20 MIQ B 502      21.073 -10.315   2.955  1.00140.02    -0.296 N 
HETATM   16  H13 MIQ B 502      20.841 -11.068   3.572  1.00142.77     0.171 HD
HETATM   17  C21 MIQ B 502      20.587  -8.981   3.196  1.00142.22     0.224 C 
HETATM   18  C22 MIQ B 502      20.261  -8.143   1.974  1.00139.52     0.106 C 
HETATM   19  O24 MIQ B 502      20.454  -8.560   4.292  1.00146.13    -0.273 OA
HETATM   20  C23 MIQ B 502      21.527  -8.090   1.138  1.00139.15     0.045 C 
ENDBRANCH  10  12
BRANCH   5  21
HETATM   21  N6  MIQ B 502      19.241 -12.020  -5.606  1.00140.95    -0.377 N 
HETATM   22  C7  MIQ B 502      18.908 -13.429  -5.495  1.00142.12     0.149 C 
HETATM   23  C8  MIQ B 502      18.451 -14.013  -6.826  1.00144.10     0.187 C 
HETATM   24  O9  MIQ B 502      17.495 -13.223  -7.466  1.00148.65    -0.388 OA
HETATM   25  C10 MIQ B 502      17.210 -11.937  -6.997  1.00147.44     0.187 C 
HETATM   26  C11 MIQ B 502      18.321 -11.147  -6.315  1.00144.08     0.149 C 
ENDBRANCH   5  21
TORSDOF 2
ENDMDL
