MODEL 1
REMARK VINA RESULT:      -6.3      0.000      0.000
REMARK  2 active torsions:
REMARK  status: ('A' for Active; 'I' for Inactive)
REMARK    1  A    between atoms: C5_5  and  N6_21 
REMARK    2  A    between atoms: C18_14  and  N17_19 
ROOT
HETATM    1  O1  MIQ B 502       9.378  45.389   0.061  1.00142.91    -0.171 OA
HETATM    2  C2  MIQ B 502       8.403  46.199   0.648  1.00141.17     0.195 A 
HETATM    3  C3  MIQ B 502       7.049  45.716   1.261  1.00141.71     0.035 A 
HETATM    4  C4  MIQ B 502       6.416  44.384   1.411  1.00142.86     0.046 A 
HETATM    5  C5  MIQ B 502       5.146  44.260   2.028  1.00139.53     0.031 A 
HETATM    6  C12 MIQ B 502       4.461  45.448   2.517  1.00139.38     0.030 A 
HETATM    7  C13 MIQ B 502       5.068  46.725   2.375  1.00141.18     0.019 A 
HETATM    8  C14 MIQ B 502       6.403  46.849   1.728  1.00138.77     0.033 A 
HETATM    9  C15 MIQ B 502       7.361  48.042   1.404  1.00142.10     0.195 A 
HETATM   10  N17 MIQ B 502       8.418  47.510   0.812  1.00139.42    -0.288 N 
HETATM   11  O16 MIQ B 502       7.139  49.391   1.683  1.00148.93    -0.171 OA
ENDROOT
BRANCH  10  12
HETATM   12  C18 MIQ B 502       9.521  48.333   0.352  1.00139.82     0.187 C 
HETATM   13  C19 MIQ B 502       9.812  47.953  -1.105  1.00140.06     0.247 C 
HETATM   14  O25 MIQ B 502       8.925  47.931  -1.883  1.00143.95    -0.271 OA
HETATM   15  N20 MIQ B 502      11.148  47.625  -1.557  1.00140.02    -0.296 N 
HETATM   16  H13 MIQ B 502      11.324  47.372  -2.510  1.00142.77     0.171 HD
HETATM   17  C21 MIQ B 502      12.213  47.649  -0.588  1.00142.22     0.224 C 
HETATM   18  C22 MIQ B 502      11.854  47.242   0.828  1.00139.52     0.106 C 
HETATM   19  O24 MIQ B 502      13.310  47.974  -0.883  1.00146.13    -0.273 OA
HETATM   20  C23 MIQ B 502      10.731  48.163   1.270  1.00139.15     0.045 C 
ENDBRANCH  10  12
BRANCH   5  21
HETATM   21  N6  MIQ B 502       4.531  42.952   2.156  1.00140.95    -0.377 N 
HETATM   22  C7  MIQ B 502       5.296  41.882   2.773  1.00142.12     0.149 C 
HETATM   23  C8  MIQ B 502       4.852  40.509   2.283  1.00144.10     0.187 C 
HETATM   24  O9  MIQ B 502       3.466  40.345   2.311  1.00148.65    -0.388 OA
HETATM   25  C10 MIQ B 502       2.628  41.438   2.547  1.00147.44     0.187 C 
HETATM   26  C11 MIQ B 502       3.086  42.820   2.092  1.00144.08     0.149 C 
ENDBRANCH   5  21
TORSDOF 2
ENDMDL
MODEL 2
REMARK VINA RESULT:      -6.3      1.757      2.891
REMARK  2 active torsions:
REMARK  status: ('A' for Active; 'I' for Inactive)
REMARK    1  A    between atoms: C5_5  and  N6_21 
REMARK    2  A    between atoms: C18_14  and  N17_19 
ROOT
HETATM    1  O1  MIQ B 502       7.866  49.201   1.953  1.00142.91    -0.171 OA
HETATM    2  C2  MIQ B 502       8.061  47.908   1.461  1.00141.17     0.195 A 
HETATM    3  C3  MIQ B 502       7.054  46.719   1.569  1.00141.71     0.035 A 
HETATM    4  C4  MIQ B 502       5.702  46.580   2.160  1.00142.86     0.046 A 
HETATM    5  C5  MIQ B 502       5.018  45.339   2.099  1.00139.53     0.031 A 
HETATM    6  C12 MIQ B 502       5.647  44.198   1.451  1.00139.38     0.030 A 
HETATM    7  C13 MIQ B 502       6.943  44.332   0.883  1.00141.18     0.019 A 
HETATM    8  C14 MIQ B 502       7.656  45.637   0.948  1.00138.77     0.033 A 
HETATM    9  C15 MIQ B 502       9.044  46.157   0.452  1.00142.10     0.195 A 
HETATM   10  N17 MIQ B 502       9.108  47.428   0.813  1.00139.42    -0.288 N 
HETATM   11  O16 MIQ B 502      10.016  45.424  -0.231  1.00148.93    -0.171 OA
ENDROOT
BRANCH  10  12
HETATM   12  C18 MIQ B 502      10.278  48.239   0.527  1.00139.82     0.187 C 
HETATM   13  C19 MIQ B 502      10.586  48.104  -0.969  1.00140.06     0.247 C 
HETATM   14  O25 MIQ B 502       9.723  48.285  -1.753  1.00143.95    -0.271 OA
HETATM   15  N20 MIQ B 502      11.911  47.768  -1.449  1.00140.02    -0.296 N 
HETATM   16  H13 MIQ B 502      12.097  47.676  -2.428  1.00142.77     0.171 HD
HETATM   17  C21 MIQ B 502      12.944  47.542  -0.472  1.00142.22     0.224 C 
HETATM   18  C22 MIQ B 502      12.516  46.916   0.842  1.00139.52     0.106 C 
HETATM   19  O24 MIQ B 502      14.069  47.836  -0.683  1.00146.13    -0.273 OA
HETATM   20  C23 MIQ B 502      11.444  47.822   1.421  1.00139.15     0.045 C 
ENDBRANCH  10  12
BRANCH   5  21
HETATM   21  N6  MIQ B 502       3.700  45.212   2.695  1.00140.95    -0.377 N 
HETATM   22  C7  MIQ B 502       2.949  46.422   2.984  1.00142.12     0.149 C 
HETATM   23  C8  MIQ B 502       1.963  46.219   4.127  1.00144.10     0.187 C 
HETATM   24  O9  MIQ B 502       1.196  45.061   3.984  1.00148.65    -0.388 OA
HETATM   25  C10 MIQ B 502       1.516  44.117   3.005  1.00147.44     0.187 C 
HETATM   26  C11 MIQ B 502       2.976  43.958   2.594  1.00144.08     0.149 C 
ENDBRANCH   5  21
TORSDOF 2
ENDMDL
MODEL 3
REMARK VINA RESULT:      -6.3      1.825      2.847
REMARK  2 active torsions:
REMARK  status: ('A' for Active; 'I' for Inactive)
REMARK    1  A    between atoms: C5_5  and  N6_21 
REMARK    2  A    between atoms: C18_14  and  N17_19 
ROOT
HETATM    1  O1  MIQ B 502       8.181  49.195   1.915  1.00142.91    -0.171 OA
HETATM    2  C2  MIQ B 502       8.369  47.903   1.419  1.00141.17     0.195 A 
HETATM    3  C3  MIQ B 502       7.338  46.731   1.484  1.00141.71     0.035 A 
HETATM    4  C4  MIQ B 502       5.966  46.610   2.031  1.00142.86     0.046 A 
HETATM    5  C5  MIQ B 502       5.263  45.383   1.938  1.00139.53     0.031 A 
HETATM    6  C12 MIQ B 502       5.893  44.236   1.300  1.00139.38     0.030 A 
HETATM    7  C13 MIQ B 502       7.208  44.351   0.775  1.00141.18     0.019 A 
HETATM    8  C14 MIQ B 502       7.941  45.643   0.874  1.00138.77     0.033 A 
HETATM    9  C15 MIQ B 502       9.353  46.143   0.426  1.00142.10     0.195 A 
HETATM   10  N17 MIQ B 502       9.428  47.410   0.800  1.00139.42    -0.288 N 
HETATM   11  O16 MIQ B 502      10.333  45.398  -0.232  1.00148.93    -0.171 OA
ENDROOT
BRANCH  10  12
HETATM   12  C18 MIQ B 502      10.619  48.202   0.558  1.00139.82     0.187 C 
HETATM   13  C19 MIQ B 502      10.984  48.059  -0.925  1.00140.06     0.247 C 
HETATM   14  O25 MIQ B 502      10.155  48.250  -1.742  1.00143.95    -0.271 OA
HETATM   15  N20 MIQ B 502      12.321  47.701  -1.351  1.00140.02    -0.296 N 
HETATM   16  H13 MIQ B 502      12.544  47.604  -2.322  1.00142.77     0.171 HD
HETATM   17  C21 MIQ B 502      13.312  47.462  -0.334  1.00142.22     0.224 C 
HETATM   18  C22 MIQ B 502      12.824  46.847   0.963  1.00139.52     0.106 C 
HETATM   19  O24 MIQ B 502      14.449  47.738  -0.503  1.00146.13    -0.273 OA
HETATM   20  C23 MIQ B 502      11.744  47.770   1.498  1.00139.15     0.045 C 
ENDBRANCH  10  12
BRANCH   5  21
HETATM   21  N6  MIQ B 502       3.925  45.274   2.491  1.00140.95    -0.377 N 
HETATM   22  C7  MIQ B 502       3.390  43.951   2.760  1.00142.12     0.149 C 
HETATM   23  C8  MIQ B 502       1.868  43.930   2.703  1.00144.10     0.187 C 
HETATM   24  O9  MIQ B 502       1.283  44.970   3.429  1.00148.65    -0.388 OA
HETATM   25  C10 MIQ B 502       2.067  46.012   3.930  1.00147.44     0.187 C 
HETATM   26  C11 MIQ B 502       3.324  46.412   3.164  1.00144.08     0.149 C 
ENDBRANCH   5  21
TORSDOF 2
ENDMDL
MODEL 4
REMARK VINA RESULT:      -6.2      3.034      5.413
REMARK  2 active torsions:
REMARK  status: ('A' for Active; 'I' for Inactive)
REMARK    1  A    between atoms: C5_5  and  N6_21 
REMARK    2  A    between atoms: C18_14  and  N17_19 
ROOT
HETATM    1  O1  MIQ B 502       8.993  49.085   1.273  1.00142.91    -0.171 OA
HETATM    2  C2  MIQ B 502       8.122  47.999   1.377  1.00141.17     0.195 A 
HETATM    3  C3  MIQ B 502       6.673  48.031   1.960  1.00141.71     0.035 A 
HETATM    4  C4  MIQ B 502       5.829  49.106   2.533  1.00142.86     0.046 A 
HETATM    5  C5  MIQ B 502       4.517  48.821   2.989  1.00139.53     0.031 A 
HETATM    6  C12 MIQ B 502       3.998  47.465   2.894  1.00139.38     0.030 A 
HETATM    7  C13 MIQ B 502       4.807  46.434   2.344  1.00141.18     0.019 A 
HETATM    8  C14 MIQ B 502       6.182  46.739   1.864  1.00138.77     0.033 A 
HETATM    9  C15 MIQ B 502       7.332  45.900   1.218  1.00142.10     0.195 A 
HETATM   10  N17 MIQ B 502       8.328  46.746   1.009  1.00139.42    -0.288 N 
HETATM   11  O16 MIQ B 502       7.308  44.536   0.924  1.00148.93    -0.171 OA
ENDROOT
BRANCH  10  12
HETATM   12  C18 MIQ B 502       9.584  46.309   0.428  1.00139.82     0.187 C 
HETATM   13  C19 MIQ B 502      10.711  46.729   1.379  1.00140.06     0.247 C 
HETATM   14  O25 MIQ B 502      10.634  46.449   2.522  1.00143.95    -0.271 OA
HETATM   15  N20 MIQ B 502      11.873  47.456   0.912  1.00140.02    -0.296 N 
HETATM   16  H13 MIQ B 502      12.599  47.730   1.544  1.00142.77     0.171 HD
HETATM   17  C21 MIQ B 502      11.939  47.796  -0.486  1.00142.22     0.224 C 
HETATM   18  C22 MIQ B 502      10.623  48.098  -1.177  1.00139.52     0.106 C 
HETATM   19  O24 MIQ B 502      12.969  47.831  -1.066  1.00146.13    -0.273 OA
HETATM   20  C23 MIQ B 502       9.743  46.877  -0.981  1.00139.15     0.045 C 
ENDBRANCH  10  12
BRANCH   5  21
HETATM   21  N6  MIQ B 502       3.707  49.881   3.561  1.00140.95    -0.377 N 
HETATM   22  C7  MIQ B 502       2.629  49.520   4.466  1.00142.12     0.149 C 
HETATM   23  C8  MIQ B 502       1.517  50.561   4.471  1.00144.10     0.187 C 
HETATM   24  O9  MIQ B 502       1.995  51.866   4.602  1.00148.65    -0.388 OA
HETATM   25  C10 MIQ B 502       3.362  52.133   4.498  1.00147.44     0.187 C 
HETATM   26  C11 MIQ B 502       4.213  51.242   3.598  1.00144.08     0.149 C 
ENDBRANCH   5  21
TORSDOF 2
ENDMDL
MODEL 5
REMARK VINA RESULT:      -6.1      2.753      4.819
REMARK  2 active torsions:
REMARK  status: ('A' for Active; 'I' for Inactive)
REMARK    1  A    between atoms: C5_5  and  N6_21 
REMARK    2  A    between atoms: C18_14  and  N17_19 
ROOT
HETATM    1  O1  MIQ B 502       8.768  48.571   1.165  1.00142.91    -0.171 OA
HETATM    2  C2  MIQ B 502       8.051  47.374   1.236  1.00141.17     0.195 A 
HETATM    3  C3  MIQ B 502       6.598  47.201   1.781  1.00141.71     0.035 A 
HETATM    4  C4  MIQ B 502       5.600  48.144   2.341  1.00142.86     0.046 A 
HETATM    5  C5  MIQ B 502       4.329  47.676   2.760  1.00139.53     0.031 A 
HETATM    6  C12 MIQ B 502       4.003  46.262   2.640  1.00139.38     0.030 A 
HETATM    7  C13 MIQ B 502       4.959  45.358   2.102  1.00141.18     0.019 A 
HETATM    8  C14 MIQ B 502       6.291  45.855   1.661  1.00138.77     0.033 A 
HETATM    9  C15 MIQ B 502       7.561  45.190   1.038  1.00142.10     0.195 A 
HETATM   10  N17 MIQ B 502       8.437  46.166   0.863  1.00139.42    -0.288 N 
HETATM   11  O16 MIQ B 502       7.732  43.838   0.732  1.00148.93    -0.171 OA
ENDROOT
BRANCH  10  12
HETATM   12  C18 MIQ B 502       9.754  45.912   0.311  1.00139.82     0.187 C 
HETATM   13  C19 MIQ B 502      10.790  46.460   1.300  1.00140.06     0.247 C 
HETATM   14  O25 MIQ B 502      10.721  46.150   2.437  1.00143.95    -0.271 OA
HETATM   15  N20 MIQ B 502      11.856  47.346   0.878  1.00140.02    -0.296 N 
HETATM   16  H13 MIQ B 502      12.521  47.702   1.535  1.00142.77     0.171 HD
HETATM   17  C21 MIQ B 502      11.912  47.718  -0.512  1.00142.22     0.224 C 
HETATM   18  C22 MIQ B 502      10.586  47.855  -1.235  1.00139.52     0.106 C 
HETATM   19  O24 MIQ B 502      12.943  47.902  -1.061  1.00146.13    -0.273 OA
HETATM   20  C23 MIQ B 502       9.873  46.524  -1.084  1.00139.15     0.045 C 
ENDBRANCH  10  12
BRANCH   5  21
HETATM   21  N6  MIQ B 502       3.367  48.608   3.320  1.00140.95    -0.377 N 
HETATM   22  C7  MIQ B 502       3.679  50.026   3.297  1.00142.12     0.149 C 
HETATM   23  C8  MIQ B 502       2.978  50.782   4.418  1.00144.10     0.187 C 
HETATM   24  O9  MIQ B 502       1.620  50.471   4.516  1.00148.65    -0.388 OA
HETATM   25  C10 MIQ B 502       1.084  49.404   3.791  1.00147.44     0.187 C 
HETATM   26  C11 MIQ B 502       1.980  48.208   3.482  1.00144.08     0.149 C 
ENDBRANCH   5  21
TORSDOF 2
ENDMDL
MODEL 6
REMARK VINA RESULT:      -5.8      2.923      4.646
REMARK  2 active torsions:
REMARK  status: ('A' for Active; 'I' for Inactive)
REMARK    1  A    between atoms: C5_5  and  N6_21 
REMARK    2  A    between atoms: C18_14  and  N17_19 
ROOT
HETATM    1  O1  MIQ B 502       7.767  48.214   1.440  1.00142.91    -0.171 OA
HETATM    2  C2  MIQ B 502       7.157  46.958   1.437  1.00141.17     0.195 A 
HETATM    3  C3  MIQ B 502       5.749  46.615   2.020  1.00141.71     0.035 A 
HETATM    4  C4  MIQ B 502       4.702  47.419   2.694  1.00142.86     0.046 A 
HETATM    5  C5  MIQ B 502       3.494  46.810   3.120  1.00139.53     0.031 A 
HETATM    6  C12 MIQ B 502       3.283  45.388   2.893  1.00139.38     0.030 A 
HETATM    7  C13 MIQ B 502       4.286  44.617   2.246  1.00141.18     0.019 A 
HETATM    8  C14 MIQ B 502       5.551  45.262   1.798  1.00138.77     0.033 A 
HETATM    9  C15 MIQ B 502       6.843  44.762   1.074  1.00142.10     0.195 A 
HETATM   10  N17 MIQ B 502       7.625  45.822   0.949  1.00139.42    -0.288 N 
HETATM   11  O16 MIQ B 502       7.112  43.460   0.649  1.00148.93    -0.171 OA
ENDROOT
BRANCH  10  12
HETATM   12  C18 MIQ B 502       8.933  45.729   0.328  1.00139.82     0.187 C 
HETATM   13  C19 MIQ B 502       9.957  46.322   1.304  1.00140.06     0.247 C 
HETATM   14  O25 MIQ B 502       9.972  45.946   2.422  1.00143.95    -0.271 OA
HETATM   15  N20 MIQ B 502      10.912  47.330   0.890  1.00140.02    -0.296 N 
HETATM   16  H13 MIQ B 502      11.571  47.714   1.539  1.00142.77     0.171 HD
HETATM   17  C21 MIQ B 502      10.867  47.781  -0.477  1.00142.22     0.224 C 
HETATM   18  C22 MIQ B 502       9.501  47.826  -1.135  1.00139.52     0.106 C 
HETATM   19  O24 MIQ B 502      11.848  48.094  -1.057  1.00146.13    -0.273 OA
HETATM   20  C23 MIQ B 502       8.927  46.424  -1.032  1.00139.15     0.045 C 
ENDBRANCH  10  12
BRANCH   5  21
HETATM   21  N6  MIQ B 502       2.483  47.606   3.792  1.00140.95    -0.377 N 
HETATM   22  C7  MIQ B 502       1.959  48.779   3.114  1.00142.12     0.149 C 
HETATM   23  C8  MIQ B 502       1.452  49.826   4.098  1.00144.10     0.187 C 
HETATM   24  O9  MIQ B 502       0.625  49.288   5.086  1.00148.65    -0.388 OA
HETATM   25  C10 MIQ B 502       0.510  47.903   5.235  1.00147.44     0.187 C 
HETATM   26  C11 MIQ B 502       1.706  47.028   4.874  1.00144.08     0.149 C 
ENDBRANCH   5  21
TORSDOF 2
ENDMDL
MODEL 7
REMARK VINA RESULT:      -5.7      2.938      9.128
REMARK  2 active torsions:
REMARK  status: ('A' for Active; 'I' for Inactive)
REMARK    1  A    between atoms: C5_5  and  N6_21 
REMARK    2  A    between atoms: C18_14  and  N17_19 
ROOT
HETATM    1  O1  MIQ B 502      10.151  48.444  -1.922  1.00142.91    -0.171 OA
HETATM    2  C2  MIQ B 502      10.565  47.742  -0.788  1.00141.17     0.195 A 
HETATM    3  C3  MIQ B 502      12.042  47.456  -0.368  1.00141.71     0.035 A 
HETATM    4  C4  MIQ B 502      13.355  47.800  -0.964  1.00142.86     0.046 A 
HETATM    5  C5  MIQ B 502      14.557  47.391  -0.333  1.00139.53     0.031 A 
HETATM    6  C12 MIQ B 502      14.500  46.631   0.907  1.00139.38     0.030 A 
HETATM    7  C13 MIQ B 502      13.241  46.303   1.479  1.00141.18     0.019 A 
HETATM    8  C14 MIQ B 502      11.982  46.736   0.813  1.00138.77     0.033 A 
HETATM    9  C15 MIQ B 502      10.460  46.574   1.129  1.00142.10     0.195 A 
HETATM   10  N17 MIQ B 502       9.816  47.187   0.150  1.00139.42    -0.288 N 
HETATM   11  O16 MIQ B 502       9.899  45.912   2.223  1.00148.93    -0.171 OA
ENDROOT
BRANCH  10  12
HETATM   12  C18 MIQ B 502       8.366  47.227   0.104  1.00139.82     0.187 C 
HETATM   13  C19 MIQ B 502       7.870  47.750   1.457  1.00140.06     0.247 C 
HETATM   14  O25 MIQ B 502       8.324  48.748   1.891  1.00143.95    -0.271 OA
HETATM   15  N20 MIQ B 502       6.852  47.054   2.218  1.00140.02    -0.296 N 
HETATM   16  H13 MIQ B 502       6.541  47.402   3.104  1.00142.77     0.171 HD
HETATM   17  C21 MIQ B 502       6.321  45.831   1.673  1.00142.22     0.224 C 
HETATM   18  C22 MIQ B 502       7.277  44.972   0.869  1.00139.52     0.106 C 
HETATM   19  O24 MIQ B 502       5.194  45.518   1.842  1.00146.13    -0.273 OA
HETATM   20  C23 MIQ B 502       7.808  45.849  -0.250  1.00139.15     0.045 C 
ENDBRANCH  10  12
BRANCH   5  21
HETATM   21  N6  MIQ B 502      15.836  47.721  -0.935  1.00140.95    -0.377 N 
HETATM   22  C7  MIQ B 502      16.036  47.430  -2.344  1.00142.12     0.149 C 
HETATM   23  C8  MIQ B 502      17.506  47.209  -2.676  1.00144.10     0.187 C 
HETATM   24  O9  MIQ B 502      18.337  48.198  -2.147  1.00148.65    -0.388 OA
HETATM   25  C10 MIQ B 502      17.839  49.125  -1.228  1.00147.44     0.187 C 
HETATM   26  C11 MIQ B 502      16.706  48.696  -0.301  1.00144.08     0.149 C 
ENDBRANCH   5  21
TORSDOF 2
ENDMDL
MODEL 8
REMARK VINA RESULT:      -5.6      1.504      1.910
REMARK  2 active torsions:
REMARK  status: ('A' for Active; 'I' for Inactive)
REMARK    1  A    between atoms: C5_5  and  N6_21 
REMARK    2  A    between atoms: C18_14  and  N17_19 
ROOT
HETATM    1  O1  MIQ B 502       8.512  44.490   0.606  1.00142.91    -0.171 OA
HETATM    2  C2  MIQ B 502       7.845  45.638   1.040  1.00141.17     0.195 A 
HETATM    3  C3  MIQ B 502       6.398  45.698   1.625  1.00141.71     0.035 A 
HETATM    4  C4  MIQ B 502       5.362  44.672   1.889  1.00142.86     0.046 A 
HETATM    5  C5  MIQ B 502       4.110  45.043   2.442  1.00139.53     0.031 A 
HETATM    6  C12 MIQ B 502       3.843  46.440   2.753  1.00139.38     0.030 A 
HETATM    7  C13 MIQ B 502       4.837  47.424   2.501  1.00141.18     0.019 A 
HETATM    8  C14 MIQ B 502       6.150  47.028   1.922  1.00138.77     0.033 A 
HETATM    9  C15 MIQ B 502       7.451  47.798   1.520  1.00142.10     0.195 A 
HETATM   10  N17 MIQ B 502       8.286  46.884   1.055  1.00139.42    -0.288 N 
HETATM   11  O16 MIQ B 502       7.677  49.171   1.630  1.00148.93    -0.171 OA
ENDROOT
BRANCH  10  12
HETATM   12  C18 MIQ B 502       9.605  47.242   0.568  1.00139.82     0.187 C 
HETATM   13  C19 MIQ B 502       9.743  46.693  -0.858  1.00140.06     0.247 C 
HETATM   14  O25 MIQ B 502       8.901  46.931  -1.650  1.00143.95    -0.271 OA
HETATM   15  N20 MIQ B 502      10.881  45.894  -1.262  1.00140.02    -0.296 N 
HETATM   16  H13 MIQ B 502      10.956  45.536  -2.194  1.00142.77     0.171 HD
HETATM   17  C21 MIQ B 502      11.890  45.609  -0.274  1.00142.22     0.224 C 
HETATM   18  C22 MIQ B 502      11.415  45.443   1.156  1.00139.52     0.106 C 
HETATM   19  O24 MIQ B 502      13.031  45.515  -0.566  1.00146.13    -0.273 OA
HETATM   20  C23 MIQ B 502      10.682  46.722   1.518  1.00139.15     0.045 C 
ENDBRANCH  10  12
BRANCH   5  21
HETATM   21  N6  MIQ B 502       3.099  44.029   2.682  1.00140.95    -0.377 N 
HETATM   22  C7  MIQ B 502       1.774  44.455   3.098  1.00142.12     0.149 C 
HETATM   23  C8  MIQ B 502       1.059  43.379   3.906  1.00144.10     0.187 C 
HETATM   24  O9  MIQ B 502       1.121  42.119   3.307  1.00148.65    -0.388 OA
HETATM   25  C10 MIQ B 502       1.961  41.896   2.214  1.00147.44     0.187 C 
HETATM   26  C11 MIQ B 502       3.250  42.704   2.107  1.00144.08     0.149 C 
ENDBRANCH   5  21
TORSDOF 2
ENDMDL
MODEL 9
REMARK VINA RESULT:      -5.5      3.657      5.668
REMARK  2 active torsions:
REMARK  status: ('A' for Active; 'I' for Inactive)
REMARK    1  A    between atoms: C5_5  and  N6_21 
REMARK    2  A    between atoms: C18_14  and  N17_19 
ROOT
HETATM    1  O1  MIQ B 502       3.405  45.611   3.341  1.00142.91    -0.171 OA
HETATM    2  C2  MIQ B 502       4.517  46.245   2.782  1.00141.17     0.195 A 
HETATM    3  C3  MIQ B 502       5.657  45.556   1.966  1.00141.71     0.035 A 
HETATM    4  C4  MIQ B 502       5.912  44.155   1.554  1.00142.86     0.046 A 
HETATM    5  C5  MIQ B 502       7.065  43.830   0.795  1.00139.53     0.031 A 
HETATM    6  C12 MIQ B 502       8.002  44.878   0.419  1.00139.38     0.030 A 
HETATM    7  C13 MIQ B 502       7.757  46.222   0.812  1.00141.18     0.019 A 
HETATM    8  C14 MIQ B 502       6.544  46.558   1.607  1.00138.77     0.033 A 
HETATM    9  C15 MIQ B 502       5.951  47.876   2.203  1.00142.10     0.195 A 
HETATM   10  N17 MIQ B 502       4.832  47.528   2.817  1.00139.42    -0.288 N 
HETATM   11  O16 MIQ B 502       6.497  49.157   2.106  1.00148.93    -0.171 OA
ENDROOT
BRANCH  10  12
HETATM   12  C18 MIQ B 502       4.012  48.506   3.508  1.00139.82     0.187 C 
HETATM   13  C19 MIQ B 502       3.789  49.687   2.555  1.00140.06     0.247 C 
HETATM   14  O25 MIQ B 502       3.399  49.478   1.461  1.00143.95    -0.271 OA
HETATM   15  N20 MIQ B 502       4.039  51.054   2.962  1.00140.02    -0.296 N 
HETATM   16  H13 MIQ B 502       3.896  51.816   2.328  1.00142.77     0.171 HD
HETATM   17  C21 MIQ B 502       4.525  51.282   4.298  1.00142.22     0.224 C 
HETATM   18  C22 MIQ B 502       5.437  50.220   4.882  1.00139.52     0.106 C 
HETATM   19  O24 MIQ B 502       4.223  52.247   4.909  1.00146.13    -0.273 OA
HETATM   20  C23 MIQ B 502       4.667  48.913   4.826  1.00139.15     0.045 C 
ENDBRANCH  10  12
BRANCH   5  21
HETATM   21  N6  MIQ B 502       7.310  42.451   0.412  1.00140.95    -0.377 N 
HETATM   22  C7  MIQ B 502       8.347  41.710   1.108  1.00142.12     0.149 C 
HETATM   23  C8  MIQ B 502       8.929  40.598   0.245  1.00144.10     0.187 C 
HETATM   24  O9  MIQ B 502       7.948  39.817  -0.369  1.00148.65    -0.388 OA
HETATM   25  C10 MIQ B 502       6.608  40.214  -0.342  1.00147.44     0.187 C 
HETATM   26  C11 MIQ B 502       6.289  41.705  -0.303  1.00144.08     0.149 C 
ENDBRANCH   5  21
TORSDOF 2
ENDMDL
