MODEL 1
REMARK VINA RESULT:      -5.6      0.000      0.000
REMARK  2 active torsions:
REMARK  status: ('A' for Active; 'I' for Inactive)
REMARK    1  A    between atoms: C5_5  and  N6_21 
REMARK    2  A    between atoms: C18_14  and  N17_19 
ROOT
HETATM    1  O1  MIQ B 502      50.110  12.289  28.982  1.00142.91    -0.171 OA
HETATM    2  C2  MIQ B 502      50.649  12.699  27.761  1.00141.17     0.195 A 
HETATM    3  C3  MIQ B 502      50.009  13.718  26.766  1.00141.71     0.035 A 
HETATM    4  C4  MIQ B 502      48.755  14.509  26.783  1.00142.86     0.046 A 
HETATM    5  C5  MIQ B 502      48.439  15.375  25.706  1.00139.53     0.031 A 
HETATM    6  C12 MIQ B 502      49.352  15.487  24.577  1.00139.38     0.030 A 
HETATM    7  C13 MIQ B 502      50.554  14.730  24.561  1.00141.18     0.019 A 
HETATM    8  C14 MIQ B 502      50.882  13.825  25.696  1.00138.77     0.033 A 
HETATM    9  C15 MIQ B 502      52.071  12.866  26.029  1.00142.10     0.195 A 
HETATM   10  N17 MIQ B 502      51.787  12.325  27.202  1.00139.42    -0.288 N 
HETATM   11  O16 MIQ B 502      53.200  12.630  25.242  1.00148.93    -0.171 OA
ENDROOT
BRANCH  10  12
HETATM   12  C18 MIQ B 502      52.673  11.360  27.825  1.00139.82     0.187 C 
HETATM   13  C19 MIQ B 502      51.826  10.153  28.249  1.00140.06     0.247 C 
HETATM   14  O25 MIQ B 502      51.109   9.648  27.460  1.00143.95    -0.271 OA
HETATM   15  N20 MIQ B 502      51.886   9.611  29.591  1.00140.02    -0.296 N 
HETATM   16  H13 MIQ B 502      51.323   8.827  29.856  1.00142.77     0.171 HD
HETATM   17  C21 MIQ B 502      52.761  10.252  30.538  1.00142.22     0.224 C 
HETATM   18  C22 MIQ B 502      52.932  11.752  30.402  1.00139.52     0.106 C 
HETATM   19  O24 MIQ B 502      53.321   9.635  31.377  1.00146.13    -0.273 OA
HETATM   20  C23 MIQ B 502      53.427  12.003  28.989  1.00139.15     0.045 C 
ENDBRANCH  10  12
BRANCH   5  21
HETATM   21  N6  MIQ B 502      47.200  16.132  25.729  1.00140.95    -0.377 N 
HETATM   22  C7  MIQ B 502      46.683  16.655  24.476  1.00142.12     0.149 C 
HETATM   23  C8  MIQ B 502      45.825  17.896  24.690  1.00144.10     0.187 C 
HETATM   24  O9  MIQ B 502      44.880  17.735  25.705  1.00148.65    -0.388 OA
HETATM   25  C10 MIQ B 502      44.930  16.622  26.548  1.00147.44     0.187 C 
HETATM   26  C11 MIQ B 502      46.288  15.996  26.850  1.00144.08     0.149 C 
ENDBRANCH   5  21
TORSDOF 2
ENDMDL
MODEL 2
REMARK VINA RESULT:      -5.4      4.166      6.572
REMARK  2 active torsions:
REMARK  status: ('A' for Active; 'I' for Inactive)
REMARK    1  A    between atoms: C5_5  and  N6_21 
REMARK    2  A    between atoms: C18_14  and  N17_19 
ROOT
HETATM    1  O1  MIQ B 502      55.144  11.448  28.341  1.00142.91    -0.171 OA
HETATM    2  C2  MIQ B 502      53.941  11.792  27.720  1.00141.17     0.195 A 
HETATM    3  C3  MIQ B 502      53.753  12.157  26.214  1.00141.71     0.035 A 
HETATM    4  C4  MIQ B 502      54.683  12.248  25.063  1.00142.86     0.046 A 
HETATM    5  C5  MIQ B 502      54.203  12.613  23.780  1.00139.53     0.031 A 
HETATM    6  C12 MIQ B 502      52.788  12.900  23.593  1.00139.38     0.030 A 
HETATM    7  C13 MIQ B 502      51.895  12.812  24.696  1.00141.18     0.019 A 
HETATM    8  C14 MIQ B 502      52.405  12.426  26.040  1.00138.77     0.033 A 
HETATM    9  C15 MIQ B 502      51.753  12.225  27.447  1.00142.10     0.195 A 
HETATM   10  N17 MIQ B 502      52.737  11.875  28.259  1.00139.42    -0.288 N 
HETATM   11  O16 MIQ B 502      50.406  12.387  27.774  1.00148.93    -0.171 OA
ENDROOT
BRANCH  10  12
HETATM   12  C18 MIQ B 502      52.501  11.619  29.667  1.00139.82     0.187 C 
HETATM   13  C19 MIQ B 502      51.418  10.538  29.771  1.00140.06     0.247 C 
HETATM   14  O25 MIQ B 502      51.541   9.539  29.157  1.00143.95    -0.271 OA
HETATM   15  N20 MIQ B 502      50.249  10.707  30.610  1.00140.02    -0.296 N 
HETATM   16  H13 MIQ B 502      49.546   9.996  30.664  1.00142.77     0.171 HD
HETATM   17  C21 MIQ B 502      50.116  11.940  31.342  1.00142.22     0.224 C 
HETATM   18  C22 MIQ B 502      50.665  13.188  30.679  1.00139.52     0.106 C 
HETATM   19  O24 MIQ B 502      49.609  11.973  32.409  1.00146.13    -0.273 OA
HETATM   20  C23 MIQ B 502      52.129  12.914  30.388  1.00139.15     0.045 C 
ENDBRANCH  10  12
BRANCH   5  21
HETATM   21  N6  MIQ B 502      55.127  12.713  22.666  1.00140.95    -0.377 N 
HETATM   22  C7  MIQ B 502      54.818  11.996  21.440  1.00142.12     0.149 C 
HETATM   23  C8  MIQ B 502      56.074  11.650  20.651  1.00144.10     0.187 C 
HETATM   24  O9  MIQ B 502      56.940  12.735  20.505  1.00148.65    -0.388 OA
HETATM   25  C10 MIQ B 502      56.729  13.912  21.229  1.00147.44     0.187 C 
HETATM   26  C11 MIQ B 502      56.071  13.815  22.601  1.00144.08     0.149 C 
ENDBRANCH   5  21
TORSDOF 2
ENDMDL
MODEL 3
REMARK VINA RESULT:      -5.4      1.843      2.734
REMARK  2 active torsions:
REMARK  status: ('A' for Active; 'I' for Inactive)
REMARK    1  A    between atoms: C5_5  and  N6_21 
REMARK    2  A    between atoms: C18_14  and  N17_19 
ROOT
HETATM    1  O1  MIQ B 502      51.147  12.568  30.420  1.00142.91    -0.171 OA
HETATM    2  C2  MIQ B 502      51.894  12.393  29.253  1.00141.17     0.195 A 
HETATM    3  C3  MIQ B 502      51.519  12.920  27.831  1.00141.71     0.035 A 
HETATM    4  C4  MIQ B 502      50.375  13.699  27.301  1.00142.86     0.046 A 
HETATM    5  C5  MIQ B 502      50.313  14.036  25.926  1.00139.53     0.031 A 
HETATM    6  C12 MIQ B 502      51.380  13.616  25.030  1.00139.38     0.030 A 
HETATM    7  C13 MIQ B 502      52.478  12.871  25.537  1.00141.18     0.019 A 
HETATM    8  C14 MIQ B 502      52.539  12.521  26.983  1.00138.77     0.033 A 
HETATM    9  C15 MIQ B 502      53.553  11.743  27.883  1.00142.10     0.195 A 
HETATM   10  N17 MIQ B 502      53.049  11.767  29.106  1.00139.42    -0.288 N 
HETATM   11  O16 MIQ B 502      54.745  11.143  27.474  1.00148.93    -0.171 OA
ENDROOT
BRANCH  10  12
HETATM   12  C18 MIQ B 502      53.722  11.120  30.216  1.00139.82     0.187 C 
HETATM   13  C19 MIQ B 502      52.709  10.197  30.904  1.00140.06     0.247 C 
HETATM   14  O25 MIQ B 502      52.095   9.428  30.253  1.00143.95    -0.271 OA
HETATM   15  N20 MIQ B 502      52.488  10.238  32.335  1.00140.02    -0.296 N 
HETATM   16  H13 MIQ B 502      51.819   9.635  32.771  1.00142.77     0.171 HD
HETATM   17  C21 MIQ B 502      53.241  11.192  33.107  1.00142.22     0.224 C 
HETATM   18  C22 MIQ B 502      53.569  12.509  32.431  1.00139.52     0.106 C 
HETATM   19  O24 MIQ B 502      53.590  10.955  34.211  1.00146.13    -0.273 OA
HETATM   20  C23 MIQ B 502      54.320  12.164  31.157  1.00139.15     0.045 C 
ENDBRANCH  10  12
BRANCH   5  21
HETATM   21  N6  MIQ B 502      49.178  14.787  25.418  1.00140.95    -0.377 N 
HETATM   22  C7  MIQ B 502      47.977  14.865  26.232  1.00142.12     0.149 C 
HETATM   23  C8  MIQ B 502      46.730  15.080  25.385  1.00144.10     0.187 C 
HETATM   24  O9  MIQ B 502      46.881  16.101  24.444  1.00148.65    -0.388 OA
HETATM   25  C10 MIQ B 502      48.139  16.658  24.200  1.00147.44     0.187 C 
HETATM   26  C11 MIQ B 502      49.373  15.779  24.376  1.00144.08     0.149 C 
ENDBRANCH   5  21
TORSDOF 2
ENDMDL
MODEL 4
REMARK VINA RESULT:      -5.4     17.001     18.453
REMARK  2 active torsions:
REMARK  status: ('A' for Active; 'I' for Inactive)
REMARK    1  A    between atoms: C5_5  and  N6_21 
REMARK    2  A    between atoms: C18_14  and  N17_19 
ROOT
HETATM    1  O1  MIQ B 502      45.319  -3.232  24.682  1.00142.91    -0.171 OA
HETATM    2  C2  MIQ B 502      45.406  -3.567  23.329  1.00141.17     0.195 A 
HETATM    3  C3  MIQ B 502      44.264  -3.437  22.272  1.00141.71     0.035 A 
HETATM    4  C4  MIQ B 502      42.861  -2.965  22.340  1.00142.86     0.046 A 
HETATM    5  C5  MIQ B 502      42.048  -2.964  21.179  1.00139.53     0.031 A 
HETATM    6  C12 MIQ B 502      42.595  -3.429  19.913  1.00139.38     0.030 A 
HETATM    7  C13 MIQ B 502      43.941  -3.882  19.847  1.00141.18     0.019 A 
HETATM    8  C14 MIQ B 502      44.791  -3.878  21.069  1.00138.77     0.033 A 
HETATM    9  C15 MIQ B 502      46.268  -4.283  21.381  1.00142.10     0.195 A 
HETATM   10  N17 MIQ B 502      46.447  -4.047  22.670  1.00139.42    -0.288 N 
HETATM   11  O16 MIQ B 502      47.204  -4.792  20.478  1.00148.93    -0.171 OA
ENDROOT
BRANCH  10  12
HETATM   12  C18 MIQ B 502      47.713  -4.324  23.322  1.00139.82     0.187 C 
HETATM   13  C19 MIQ B 502      47.424  -5.183  24.559  1.00140.06     0.247 C 
HETATM   14  O25 MIQ B 502      46.767  -6.155  24.444  1.00143.95    -0.271 OA
HETATM   15  N20 MIQ B 502      47.942  -4.837  25.867  1.00140.02    -0.296 N 
HETATM   16  H13 MIQ B 502      47.741  -5.403  26.668  1.00142.77     0.171 HD
HETATM   17  C21 MIQ B 502      48.734  -3.640  25.984  1.00142.22     0.224 C 
HETATM   18  C22 MIQ B 502      48.364  -2.487  25.071  1.00139.52     0.106 C 
HETATM   19  O24 MIQ B 502      49.630  -3.564  26.751  1.00146.13    -0.273 OA
HETATM   20  C23 MIQ B 502      48.438  -3.020  23.652  1.00139.15     0.045 C 
ENDBRANCH  10  12
BRANCH   5  21
HETATM   21  N6  MIQ B 502      40.671  -2.512  21.264  1.00140.95    -0.377 N 
HETATM   22  C7  MIQ B 502      40.091  -2.293  22.578  1.00142.12     0.149 C 
HETATM   23  C8  MIQ B 502      38.577  -2.463  22.567  1.00144.10     0.187 C 
HETATM   24  O9  MIQ B 502      37.961  -1.775  21.521  1.00148.65    -0.388 OA
HETATM   25  C10 MIQ B 502      38.726  -1.210  20.497  1.00147.44     0.187 C 
HETATM   26  C11 MIQ B 502      40.043  -1.878  20.118  1.00144.08     0.149 C 
ENDBRANCH   5  21
TORSDOF 2
ENDMDL
MODEL 5
REMARK VINA RESULT:      -5.4      4.266      5.417
REMARK  2 active torsions:
REMARK  status: ('A' for Active; 'I' for Inactive)
REMARK    1  A    between atoms: C5_5  and  N6_21 
REMARK    2  A    between atoms: C18_14  and  N17_19 
ROOT
HETATM    1  O1  MIQ B 502      50.783  12.418  27.700  1.00142.91    -0.171 OA
HETATM    2  C2  MIQ B 502      52.155  12.204  27.548  1.00141.17     0.195 A 
HETATM    3  C3  MIQ B 502      52.979  12.401  26.236  1.00141.71     0.035 A 
HETATM    4  C4  MIQ B 502      52.623  12.836  24.864  1.00142.86     0.046 A 
HETATM    5  C5  MIQ B 502      53.618  12.920  23.858  1.00139.53     0.031 A 
HETATM    6  C12 MIQ B 502      54.997  12.578  24.175  1.00139.38     0.030 A 
HETATM    7  C13 MIQ B 502      55.339  12.161  25.490  1.00141.18     0.019 A 
HETATM    8  C14 MIQ B 502      54.291  12.077  26.543  1.00138.77     0.033 A 
HETATM    9  C15 MIQ B 502      54.281  11.677  28.054  1.00142.10     0.195 A 
HETATM   10  N17 MIQ B 502      53.027  11.804  28.457  1.00139.42    -0.288 N 
HETATM   11  O16 MIQ B 502      55.375  11.267  28.818  1.00148.93    -0.171 OA
ENDROOT
BRANCH  10  12
HETATM   12  C18 MIQ B 502      52.635  11.498  29.821  1.00139.82     0.187 C 
HETATM   13  C19 MIQ B 502      51.490  10.480  29.761  1.00140.06     0.247 C 
HETATM   14  O25 MIQ B 502      51.621   9.504  29.111  1.00143.95    -0.271 OA
HETATM   15  N20 MIQ B 502      50.252  10.679  30.486  1.00140.02    -0.296 N 
HETATM   16  H13 MIQ B 502      49.510  10.009  30.434  1.00142.77     0.171 HD
HETATM   17  C21 MIQ B 502      50.112  11.883  31.264  1.00142.22     0.224 C 
HETATM   18  C22 MIQ B 502      50.793  13.125  30.724  1.00139.52     0.106 C 
HETATM   19  O24 MIQ B 502      49.501  11.897  32.276  1.00146.13    -0.273 OA
HETATM   20  C23 MIQ B 502      52.262  12.779  30.566  1.00139.15     0.045 C 
ENDBRANCH  10  12
BRANCH   5  21
HETATM   21  N6  MIQ B 502      53.253  13.334  22.516  1.00140.95    -0.377 N 
HETATM   22  C7  MIQ B 502      52.815  14.704  22.306  1.00142.12     0.149 C 
HETATM   23  C8  MIQ B 502      51.892  14.827  21.100  1.00144.10     0.187 C 
HETATM   24  O9  MIQ B 502      52.387  14.179  19.968  1.00148.65    -0.388 OA
HETATM   25  C10 MIQ B 502      53.494  13.332  20.064  1.00147.44     0.187 C 
HETATM   26  C11 MIQ B 502      53.723  12.576  21.369  1.00144.08     0.149 C 
ENDBRANCH   5  21
TORSDOF 2
ENDMDL
MODEL 6
REMARK VINA RESULT:      -5.4      8.130      9.898
REMARK  2 active torsions:
REMARK  status: ('A' for Active; 'I' for Inactive)
REMARK    1  A    between atoms: C5_5  and  N6_21 
REMARK    2  A    between atoms: C18_14  and  N17_19 
ROOT
HETATM    1  O1  MIQ B 502      43.881  12.447  33.470  1.00142.91    -0.171 OA
HETATM    2  C2  MIQ B 502      42.703  12.071  32.819  1.00141.17     0.195 A 
HETATM    3  C3  MIQ B 502      42.258  12.517  31.389  1.00141.71     0.035 A 
HETATM    4  C4  MIQ B 502      42.868  13.388  30.357  1.00142.86     0.046 A 
HETATM    5  C5  MIQ B 502      42.206  13.608  29.123  1.00139.53     0.031 A 
HETATM    6  C12 MIQ B 502      40.921  12.973  28.869  1.00139.38     0.030 A 
HETATM    7  C13 MIQ B 502      40.336  12.137  29.858  1.00141.18     0.019 A 
HETATM    8  C14 MIQ B 502      41.036  11.908  31.151  1.00138.77     0.033 A 
HETATM    9  C15 MIQ B 502      40.722  11.080  32.439  1.00142.10     0.195 A 
HETATM   10  N17 MIQ B 502      41.742  11.277  33.258  1.00139.42    -0.288 N 
HETATM   11  O16 MIQ B 502      39.592  10.295  32.673  1.00148.93    -0.171 OA
ENDROOT
BRANCH  10  12
HETATM   12  C18 MIQ B 502      41.786  10.666  34.574  1.00139.82     0.187 C 
HETATM   13  C19 MIQ B 502      42.065  11.776  35.595  1.00140.06     0.247 C 
HETATM   14  O25 MIQ B 502      41.399  12.750  35.583  1.00143.95    -0.271 OA
HETATM   15  N20 MIQ B 502      43.120  11.661  36.580  1.00140.02    -0.296 N 
HETATM   16  H13 MIQ B 502      43.296  12.395  37.237  1.00142.77     0.171 HD
HETATM   17  C21 MIQ B 502      43.927  10.467  36.567  1.00142.22     0.224 C 
HETATM   18  C22 MIQ B 502      44.185   9.834  35.214  1.00139.52     0.106 C 
HETATM   19  O24 MIQ B 502      44.359  10.004  37.565  1.00146.13    -0.273 OA
HETATM   20  C23 MIQ B 502      42.825   9.546  34.606  1.00139.15     0.045 C 
ENDBRANCH  10  12
BRANCH   5  21
HETATM   21  N6  MIQ B 502      42.808  14.475  28.127  1.00140.95    -0.377 N 
HETATM   22  C7  MIQ B 502      41.947  15.372  27.374  1.00142.12     0.149 C 
HETATM   23  C8  MIQ B 502      42.533  15.711  26.010  1.00144.10     0.187 C 
HETATM   24  O9  MIQ B 502      43.876  16.088  26.074  1.00148.65    -0.388 OA
HETATM   25  C10 MIQ B 502      44.603  15.920  27.256  1.00147.44     0.187 C 
HETATM   26  C11 MIQ B 502      44.229  14.770  28.185  1.00144.08     0.149 C 
ENDBRANCH   5  21
TORSDOF 2
ENDMDL
MODEL 7
REMARK VINA RESULT:      -5.3      7.802     11.204
REMARK  2 active torsions:
REMARK  status: ('A' for Active; 'I' for Inactive)
REMARK    1  A    between atoms: C5_5  and  N6_21 
REMARK    2  A    between atoms: C18_14  and  N17_19 
ROOT
HETATM    1  O1  MIQ B 502      44.548  15.902  28.385  1.00142.91    -0.171 OA
HETATM    2  C2  MIQ B 502      43.308  15.285  28.202  1.00141.17     0.195 A 
HETATM    3  C3  MIQ B 502      42.668  14.208  29.135  1.00141.71     0.035 A 
HETATM    4  C4  MIQ B 502      43.109  13.554  30.389  1.00142.86     0.046 A 
HETATM    5  C5  MIQ B 502      42.286  12.589  31.022  1.00139.53     0.031 A 
HETATM    6  C12 MIQ B 502      41.000  12.240  30.436  1.00139.38     0.030 A 
HETATM    7  C13 MIQ B 502      40.576  12.867  29.233  1.00141.18     0.019 A 
HETATM    8  C14 MIQ B 502      41.443  13.882  28.575  1.00138.77     0.033 A 
HETATM    9  C15 MIQ B 502      41.323  14.761  27.287  1.00142.10     0.195 A 
HETATM   10  N17 MIQ B 502      42.433  15.479  27.230  1.00139.42    -0.288 N 
HETATM   11  O16 MIQ B 502      40.259  14.780  26.384  1.00148.93    -0.171 OA
ENDROOT
BRANCH  10  12
HETATM   12  C18 MIQ B 502      42.678  16.409  26.145  1.00139.82     0.187 C 
HETATM   13  C19 MIQ B 502      41.482  17.365  26.069  1.00140.06     0.247 C 
HETATM   14  O25 MIQ B 502      41.121  17.916  27.048  1.00143.95    -0.271 OA
HETATM   15  N20 MIQ B 502      40.783  17.617  24.825  1.00140.02    -0.296 N 
HETATM   16  H13 MIQ B 502      39.999  18.238  24.790  1.00142.77     0.171 HD
HETATM   17  C21 MIQ B 502      41.235  16.925  23.645  1.00142.22     0.224 C 
HETATM   18  C22 MIQ B 502      41.788  15.527  23.846  1.00139.52     0.106 C 
HETATM   19  O24 MIQ B 502      41.181  17.426  22.576  1.00146.13    -0.273 OA
HETATM   20  C23 MIQ B 502      42.927  15.652  24.841  1.00139.15     0.045 C 
ENDBRANCH  10  12
BRANCH   5  21
HETATM   21  N6  MIQ B 502      42.737  11.945  32.242  1.00140.95    -0.377 N 
HETATM   22  C7  MIQ B 502      43.036  12.776  33.396  1.00142.12     0.149 C 
HETATM   23  C8  MIQ B 502      44.058  12.122  34.318  1.00144.10     0.187 C 
HETATM   24  O9  MIQ B 502      43.756  10.789  34.604  1.00148.65    -0.388 OA
HETATM   25  C10 MIQ B 502      42.748  10.125  33.902  1.00147.44     0.187 C 
HETATM   26  C11 MIQ B 502      42.474  10.533  32.458  1.00144.08     0.149 C 
ENDBRANCH   5  21
TORSDOF 2
ENDMDL
MODEL 8
REMARK VINA RESULT:      -5.3     18.014     20.763
REMARK  2 active torsions:
REMARK  status: ('A' for Active; 'I' for Inactive)
REMARK    1  A    between atoms: C5_5  and  N6_21 
REMARK    2  A    between atoms: C18_14  and  N17_19 
ROOT
HETATM    1  O1  MIQ B 502      41.599  -1.821  20.741  1.00142.91    -0.171 OA
HETATM    2  C2  MIQ B 502      41.372  -3.018  21.424  1.00141.17     0.195 A 
HETATM    3  C3  MIQ B 502      42.332  -3.686  22.459  1.00141.71     0.035 A 
HETATM    4  C4  MIQ B 502      43.658  -3.314  23.006  1.00142.86     0.046 A 
HETATM    5  C5  MIQ B 502      44.298  -4.145  23.961  1.00139.53     0.031 A 
HETATM    6  C12 MIQ B 502      43.648  -5.369  24.405  1.00139.38     0.030 A 
HETATM    7  C13 MIQ B 502      42.376  -5.725  23.881  1.00141.18     0.019 A 
HETATM    8  C14 MIQ B 502      41.708  -4.849  22.881  1.00138.77     0.033 A 
HETATM    9  C15 MIQ B 502      40.352  -4.902  22.105  1.00142.10     0.195 A 
HETATM   10  N17 MIQ B 502      40.322  -3.818  21.347  1.00139.42    -0.288 N 
HETATM   11  O16 MIQ B 502      39.376  -5.896  22.195  1.00148.93    -0.171 OA
ENDROOT
BRANCH  10  12
HETATM   12  C18 MIQ B 502      39.203  -3.541  20.465  1.00139.82     0.187 C 
HETATM   13  C19 MIQ B 502      39.767  -3.271  19.065  1.00140.06     0.247 C 
HETATM   14  O25 MIQ B 502      40.522  -4.042  18.589  1.00143.95    -0.271 OA
HETATM   15  N20 MIQ B 502      39.394  -2.095  18.305  1.00140.02    -0.296 N 
HETATM   16  H13 MIQ B 502      39.775  -1.927  17.395  1.00142.77     0.171 HD
HETATM   17  C21 MIQ B 502      38.479  -1.163  18.911  1.00142.22     0.224 C 
HETATM   18  C22 MIQ B 502      38.569  -1.001  20.417  1.00139.52     0.106 C 
HETATM   19  O24 MIQ B 502      37.695  -0.559  18.266  1.00146.13    -0.273 OA
HETATM   20  C23 MIQ B 502      38.370  -2.383  21.011  1.00139.15     0.045 C 
ENDBRANCH  10  12
BRANCH   5  21
HETATM   21  N6  MIQ B 502      45.604  -3.776  24.477  1.00140.95    -0.377 N 
HETATM   22  C7  MIQ B 502      45.993  -2.376  24.445  1.00142.12     0.149 C 
HETATM   23  C8  MIQ B 502      47.506  -2.208  24.386  1.00144.10     0.187 C 
HETATM   24  O9  MIQ B 502      48.177  -2.993  25.327  1.00148.65    -0.388 OA
HETATM   25  C10 MIQ B 502      47.492  -3.975  26.046  1.00147.44     0.187 C 
HETATM   26  C11 MIQ B 502      46.302  -4.666  25.388  1.00144.08     0.149 C 
ENDBRANCH   5  21
TORSDOF 2
ENDMDL
MODEL 9
REMARK VINA RESULT:      -5.2      4.965      6.648
REMARK  2 active torsions:
REMARK  status: ('A' for Active; 'I' for Inactive)
REMARK    1  A    between atoms: C5_5  and  N6_21 
REMARK    2  A    between atoms: C18_14  and  N17_19 
ROOT
HETATM    1  O1  MIQ B 502      51.533  11.956  28.090  1.00142.91    -0.171 OA
HETATM    2  C2  MIQ B 502      52.905  11.755  28.259  1.00141.17     0.195 A 
HETATM    3  C3  MIQ B 502      53.989  11.804  27.137  1.00141.71     0.035 A 
HETATM    4  C4  MIQ B 502      53.934  12.054  25.677  1.00142.86     0.046 A 
HETATM    5  C5  MIQ B 502      55.121  12.034  24.901  1.00139.53     0.031 A 
HETATM    6  C12 MIQ B 502      56.400  11.766  25.543  1.00139.38     0.030 A 
HETATM    7  C13 MIQ B 502      56.453  11.527  26.943  1.00141.18     0.019 A 
HETATM    8  C14 MIQ B 502      55.204  11.552  27.753  1.00138.77     0.033 A 
HETATM    9  C15 MIQ B 502      54.872  11.346  29.267  1.00142.10     0.195 A 
HETATM   10  N17 MIQ B 502      53.562  11.494  29.376  1.00139.42    -0.288 N 
HETATM   11  O16 MIQ B 502      55.778  11.062  30.290  1.00148.93    -0.171 OA
ENDROOT
BRANCH  10  12
HETATM   12  C18 MIQ B 502      52.888  11.354  30.654  1.00139.82     0.187 C 
HETATM   13  C19 MIQ B 502      51.754  10.338  30.475  1.00140.06     0.247 C 
HETATM   14  O25 MIQ B 502      51.990   9.292  29.985  1.00143.95    -0.271 OA
HETATM   15  N20 MIQ B 502      50.398  10.625  30.898  1.00140.02    -0.296 N 
HETATM   16  H13 MIQ B 502      49.665   9.956  30.770  1.00142.77     0.171 HD
HETATM   17  C21 MIQ B 502      50.133  11.914  31.484  1.00142.22     0.224 C 
HETATM   18  C22 MIQ B 502      50.944  13.082  30.957  1.00139.52     0.106 C 
HETATM   19  O24 MIQ B 502      49.326  12.050  32.337  1.00146.13    -0.273 OA
HETATM   20  C23 MIQ B 502      52.404  12.715  31.151  1.00139.15     0.045 C 
ENDBRANCH  10  12
BRANCH   5  21
HETATM   21  N6  MIQ B 502      55.051  12.266  23.470  1.00140.95    -0.377 N 
HETATM   22  C7  MIQ B 502      56.066  11.670  22.619  1.00142.12     0.149 C 
HETATM   23  C8  MIQ B 502      56.271  12.465  21.335  1.00144.10     0.187 C 
HETATM   24  O9  MIQ B 502      55.071  12.786  20.698  1.00148.65    -0.388 OA
HETATM   25  C10 MIQ B 502      53.849  12.576  21.342  1.00147.44     0.187 C 
HETATM   26  C11 MIQ B 502      53.798  12.683  22.863  1.00144.08     0.149 C 
ENDBRANCH   5  21
TORSDOF 2
ENDMDL
