MODEL 1
REMARK VINA RESULT:      -6.7      0.000      0.000
REMARK  2 active torsions:
REMARK  status: ('A' for Active; 'I' for Inactive)
REMARK    1  A    between atoms: C5_5  and  N6_21 
REMARK    2  A    between atoms: C18_14  and  N17_19 
ROOT
HETATM    1  O1  MIQ B 502      56.866 -26.735 -24.583  1.00142.91    -0.171 OA
HETATM    2  C2  MIQ B 502      55.753 -25.951 -24.270  1.00141.17     0.195 A 
HETATM    3  C3  MIQ B 502      55.099 -25.800 -22.860  1.00141.71     0.035 A 
HETATM    4  C4  MIQ B 502      55.406 -26.372 -21.527  1.00142.86     0.046 A 
HETATM    5  C5  MIQ B 502      54.609 -26.038 -20.403  1.00139.53     0.031 A 
HETATM    6  C12 MIQ B 502      53.484 -25.128 -20.560  1.00139.38     0.030 A 
HETATM    7  C13 MIQ B 502      53.190 -24.579 -21.837  1.00141.18     0.019 A 
HETATM    8  C14 MIQ B 502      54.031 -24.931 -23.013  1.00138.77     0.033 A 
HETATM    9  C15 MIQ B 502      54.023 -24.539 -24.527  1.00142.10     0.195 A 
HETATM   10  N17 MIQ B 502      55.038 -25.186 -25.076  1.00139.42    -0.288 N 
HETATM   11  O16 MIQ B 502      53.124 -23.683 -25.164  1.00148.93    -0.171 OA
ENDROOT
BRANCH  10  12
HETATM   12  C18 MIQ B 502      55.331 -25.072 -26.493  1.00139.82     0.187 C 
HETATM   13  C19 MIQ B 502      55.426 -23.579 -26.833  1.00140.06     0.247 C 
HETATM   14  O25 MIQ B 502      56.123 -22.884 -26.182  1.00143.95    -0.271 OA
HETATM   15  N20 MIQ B 502      54.689 -22.998 -27.935  1.00140.02    -0.296 N 
HETATM   16  H13 MIQ B 502      54.754 -22.021 -28.143  1.00142.77     0.171 HD
HETATM   17  C21 MIQ B 502      53.837 -23.865 -28.709  1.00142.22     0.224 C 
HETATM   18  C22 MIQ B 502      53.165 -25.001 -27.963  1.00139.52     0.106 C 
HETATM   19  O24 MIQ B 502      53.676 -23.700 -29.868  1.00146.13    -0.273 OA
HETATM   20  C23 MIQ B 502      54.275 -25.809 -27.315  1.00139.15     0.045 C 
ENDBRANCH  10  12
BRANCH   5  21
HETATM   21  N6  MIQ B 502      54.912 -26.617 -19.107  1.00140.95    -0.377 N 
HETATM   22  C7  MIQ B 502      53.951 -26.451 -18.030  1.00142.12     0.149 C 
HETATM   23  C8  MIQ B 502      54.617 -26.503 -16.661  1.00144.10     0.187 C 
HETATM   24  O9  MIQ B 502      55.489 -27.585 -16.521  1.00148.65    -0.388 OA
HETATM   25  C10 MIQ B 502      55.844 -28.355 -17.632  1.00147.44     0.187 C 
HETATM   26  C11 MIQ B 502      55.892 -27.684 -19.000  1.00144.08     0.149 C 
ENDBRANCH   5  21
TORSDOF 2
ENDMDL
MODEL 2
REMARK VINA RESULT:      -6.2      0.947      1.145
REMARK  2 active torsions:
REMARK  status: ('A' for Active; 'I' for Inactive)
REMARK    1  A    between atoms: C5_5  and  N6_21 
REMARK    2  A    between atoms: C18_14  and  N17_19 
ROOT
HETATM    1  O1  MIQ B 502      56.979 -26.001 -24.963  1.00142.91    -0.171 OA
HETATM    2  C2  MIQ B 502      55.772 -25.409 -24.587  1.00141.17     0.195 A 
HETATM    3  C3  MIQ B 502      55.205 -25.311 -23.134  1.00141.71     0.035 A 
HETATM    4  C4  MIQ B 502      55.705 -25.760 -21.813  1.00142.86     0.046 A 
HETATM    5  C5  MIQ B 502      54.946 -25.519 -20.640  1.00139.53     0.031 A 
HETATM    6  C12 MIQ B 502      53.670 -24.826 -20.735  1.00139.38     0.030 A 
HETATM    7  C13 MIQ B 502      53.191 -24.394 -22.001  1.00141.18     0.019 A 
HETATM    8  C14 MIQ B 502      53.993 -24.647 -23.229  1.00138.77     0.033 A 
HETATM    9  C15 MIQ B 502      53.806 -24.331 -24.749  1.00142.10     0.195 A 
HETATM   10  N17 MIQ B 502      54.876 -24.816 -25.357  1.00139.42    -0.288 N 
HETATM   11  O16 MIQ B 502      52.725 -23.674 -25.339  1.00148.93    -0.171 OA
ENDROOT
BRANCH  10  12
HETATM   12  C18 MIQ B 502      55.039 -24.717 -26.796  1.00139.82     0.187 C 
HETATM   13  C19 MIQ B 502      54.808 -23.254 -27.193  1.00140.06     0.247 C 
HETATM   14  O25 MIQ B 502      55.393 -22.403 -26.624  1.00143.95    -0.271 OA
HETATM   15  N20 MIQ B 502      53.892 -22.886 -28.254  1.00140.02    -0.296 N 
HETATM   16  H13 MIQ B 502      53.745 -21.927 -28.500  1.00142.77     0.171 HD
HETATM   17  C21 MIQ B 502      53.181 -23.942 -28.927  1.00142.22     0.224 C 
HETATM   18  C22 MIQ B 502      52.806 -25.151 -28.092  1.00139.52     0.106 C 
HETATM   19  O24 MIQ B 502      52.910 -23.870 -30.075  1.00146.13    -0.273 OA
HETATM   20  C23 MIQ B 502      54.099 -25.689 -27.506  1.00139.15     0.045 C 
ENDBRANCH  10  12
BRANCH   5  21
HETATM   21  N6  MIQ B 502      55.441 -25.978 -19.355  1.00140.95    -0.377 N 
HETATM   22  C7  MIQ B 502      55.653 -27.402 -19.160  1.00142.12     0.149 C 
HETATM   23  C8  MIQ B 502      55.532 -27.799 -17.694  1.00144.10     0.187 C 
HETATM   24  O9  MIQ B 502      56.261 -26.966 -16.844  1.00148.65    -0.388 OA
HETATM   25  C10 MIQ B 502      56.821 -25.779 -17.325  1.00147.44     0.187 C 
HETATM   26  C11 MIQ B 502      56.119 -25.051 -18.465  1.00144.08     0.149 C 
ENDBRANCH   5  21
TORSDOF 2
ENDMDL
MODEL 3
REMARK VINA RESULT:      -5.7      2.375      8.163
REMARK  2 active torsions:
REMARK  status: ('A' for Active; 'I' for Inactive)
REMARK    1  A    between atoms: C5_5  and  N6_21 
REMARK    2  A    between atoms: C18_14  and  N17_19 
ROOT
HETATM    1  O1  MIQ B 502      54.546 -26.152 -21.876  1.00142.91    -0.171 OA
HETATM    2  C2  MIQ B 502      54.821 -24.789 -22.014  1.00141.17     0.195 A 
HETATM    3  C3  MIQ B 502      54.572 -23.922 -23.289  1.00141.71     0.035 A 
HETATM    4  C4  MIQ B 502      54.018 -24.220 -24.631  1.00142.86     0.046 A 
HETATM    5  C5  MIQ B 502      53.913 -23.196 -25.606  1.00139.53     0.031 A 
HETATM    6  C12 MIQ B 502      54.351 -21.845 -25.285  1.00139.38     0.030 A 
HETATM    7  C13 MIQ B 502      54.880 -21.559 -23.998  1.00141.18     0.019 A 
HETATM    8  C14 MIQ B 502      54.986 -22.638 -22.977  1.00138.77     0.033 A 
HETATM    9  C15 MIQ B 502      55.495 -22.707 -21.501  1.00142.10     0.195 A 
HETATM   10  N17 MIQ B 502      55.332 -23.963 -21.117  1.00139.42    -0.288 N 
HETATM   11  O16 MIQ B 502      56.017 -21.656 -20.746  1.00148.93    -0.171 OA
ENDROOT
BRANCH  10  12
HETATM   12  C18 MIQ B 502      55.716 -24.405 -19.790  1.00139.82     0.187 C 
HETATM   13  C19 MIQ B 502      56.605 -25.645 -19.949  1.00140.06     0.247 C 
HETATM   14  O25 MIQ B 502      57.528 -25.601 -20.682  1.00143.95    -0.271 OA
HETATM   15  N20 MIQ B 502      56.348 -26.868 -19.218  1.00140.02    -0.296 N 
HETATM   16  H13 MIQ B 502      56.932 -27.673 -19.335  1.00142.77     0.171 HD
HETATM   17  C21 MIQ B 502      55.210 -26.901 -18.336  1.00142.22     0.224 C 
HETATM   18  C22 MIQ B 502      53.998 -26.091 -18.758  1.00139.52     0.106 C 
HETATM   19  O24 MIQ B 502      55.223 -27.524 -17.332  1.00146.13    -0.273 OA
HETATM   20  C23 MIQ B 502      54.476 -24.661 -18.935  1.00139.15     0.045 C 
ENDBRANCH  10  12
BRANCH   5  21
HETATM   21  N6  MIQ B 502      53.383 -23.504 -26.921  1.00140.95    -0.377 N 
HETATM   22  C7  MIQ B 502      54.254 -24.153 -27.887  1.00142.12     0.149 C 
HETATM   23  C8  MIQ B 502      53.845 -23.841 -29.321  1.00144.10     0.187 C 
HETATM   24  O9  MIQ B 502      52.477 -24.008 -29.545  1.00148.65    -0.388 OA
HETATM   25  C10 MIQ B 502      51.604 -24.209 -28.473  1.00147.44     0.187 C 
HETATM   26  C11 MIQ B 502      51.947 -23.583 -27.125  1.00144.08     0.149 C 
ENDBRANCH   5  21
TORSDOF 2
ENDMDL
MODEL 4
REMARK VINA RESULT:      -5.6      1.634      2.276
REMARK  2 active torsions:
REMARK  status: ('A' for Active; 'I' for Inactive)
REMARK    1  A    between atoms: C5_5  and  N6_21 
REMARK    2  A    between atoms: C18_14  and  N17_19 
ROOT
HETATM    1  O1  MIQ B 502      57.224 -26.213 -24.511  1.00142.91    -0.171 OA
HETATM    2  C2  MIQ B 502      55.985 -25.621 -24.256  1.00141.17     0.195 A 
HETATM    3  C3  MIQ B 502      55.228 -25.621 -22.890  1.00141.71     0.035 A 
HETATM    4  C4  MIQ B 502      55.536 -26.182 -21.553  1.00142.86     0.046 A 
HETATM    5  C5  MIQ B 502      54.628 -26.013 -20.478  1.00139.53     0.031 A 
HETATM    6  C12 MIQ B 502      53.386 -25.283 -20.689  1.00139.38     0.030 A 
HETATM    7  C13 MIQ B 502      53.091 -24.744 -21.970  1.00141.18     0.019 A 
HETATM    8  C14 MIQ B 502      54.049 -24.922 -23.094  1.00138.77     0.033 A 
HETATM    9  C15 MIQ B 502      54.075 -24.486 -24.596  1.00142.10     0.195 A 
HETATM   10  N17 MIQ B 502      55.211 -24.949 -25.091  1.00139.42    -0.288 N 
HETATM   11  O16 MIQ B 502      53.095 -23.758 -25.272  1.00148.93    -0.171 OA
ENDROOT
BRANCH  10  12
HETATM   12  C18 MIQ B 502      55.571 -24.744 -26.481  1.00139.82     0.187 C 
HETATM   13  C19 MIQ B 502      55.937 -26.110 -27.076  1.00140.06     0.247 C 
HETATM   14  O25 MIQ B 502      55.192 -27.014 -26.943  1.00143.95    -0.271 OA
HETATM   15  N20 MIQ B 502      57.172 -26.320 -27.804  1.00140.02    -0.296 N 
HETATM   16  H13 MIQ B 502      57.402 -27.218 -28.181  1.00142.77     0.171 HD
HETATM   17  C21 MIQ B 502      58.070 -25.203 -27.944  1.00142.22     0.224 C 
HETATM   18  C22 MIQ B 502      58.117 -24.217 -26.792  1.00139.52     0.106 C 
HETATM   19  O24 MIQ B 502      58.733 -25.061 -28.912  1.00146.13    -0.273 OA
HETATM   20  C23 MIQ B 502      56.698 -23.718 -26.593  1.00139.15     0.045 C 
ENDBRANCH  10  12
BRANCH   5  21
HETATM   21  N6  MIQ B 502      54.936 -26.581 -19.178  1.00140.95    -0.377 N 
HETATM   22  C7  MIQ B 502      53.973 -26.416 -18.102  1.00142.12     0.149 C 
HETATM   23  C8  MIQ B 502      54.639 -26.454 -16.733  1.00144.10     0.187 C 
HETATM   24  O9  MIQ B 502      55.520 -27.528 -16.586  1.00148.65    -0.388 OA
HETATM   25  C10 MIQ B 502      55.882 -28.302 -17.691  1.00147.44     0.187 C 
HETATM   26  C11 MIQ B 502      55.924 -27.639 -19.064  1.00144.08     0.149 C 
ENDBRANCH   5  21
TORSDOF 2
ENDMDL
MODEL 5
REMARK VINA RESULT:      -5.5     13.860     16.428
REMARK  2 active torsions:
REMARK  status: ('A' for Active; 'I' for Inactive)
REMARK    1  A    between atoms: C5_5  and  N6_21 
REMARK    2  A    between atoms: C18_14  and  N17_19 
ROOT
HETATM    1  O1  MIQ B 502      39.668 -22.068 -26.235  1.00142.91    -0.171 OA
HETATM    2  C2  MIQ B 502      40.655 -22.284 -27.199  1.00141.17     0.195 A 
HETATM    3  C3  MIQ B 502      40.696 -23.458 -28.229  1.00141.71     0.035 A 
HETATM    4  C4  MIQ B 502      39.800 -24.607 -28.501  1.00142.86     0.046 A 
HETATM    5  C5  MIQ B 502      40.111 -25.529 -29.532  1.00139.53     0.031 A 
HETATM    6  C12 MIQ B 502      41.317 -25.345 -30.327  1.00139.38     0.030 A 
HETATM    7  C13 MIQ B 502      42.175 -24.243 -30.067  1.00141.18     0.019 A 
HETATM    8  C14 MIQ B 502      41.843 -23.277 -28.985  1.00138.77     0.033 A 
HETATM    9  C15 MIQ B 502      42.517 -21.983 -28.422  1.00142.10     0.195 A 
HETATM   10  N17 MIQ B 502      41.733 -21.559 -27.444  1.00139.42    -0.288 N 
HETATM   11  O16 MIQ B 502      43.705 -21.400 -28.864  1.00148.93    -0.171 OA
ENDROOT
BRANCH  10  12
HETATM   12  C18 MIQ B 502      42.058 -20.374 -26.673  1.00139.82     0.187 C 
HETATM   13  C19 MIQ B 502      42.035 -20.760 -25.189  1.00140.06     0.247 C 
HETATM   14  O25 MIQ B 502      42.649 -21.701 -24.830  1.00143.95    -0.271 OA
HETATM   15  N20 MIQ B 502      41.285 -19.998 -24.212  1.00140.02    -0.296 N 
HETATM   16  H13 MIQ B 502      41.273 -20.265 -23.248  1.00142.77     0.171 HD
HETATM   17  C21 MIQ B 502      40.535 -18.860 -24.677  1.00142.22     0.224 C 
HETATM   18  C22 MIQ B 502      39.939 -18.958 -26.068  1.00139.52     0.106 C 
HETATM   19  O24 MIQ B 502      40.396 -17.896 -24.007  1.00146.13    -0.273 OA
HETATM   20  C23 MIQ B 502      41.094 -19.238 -27.013  1.00139.15     0.045 C 
ENDBRANCH  10  12
BRANCH   5  21
HETATM   21  N6  MIQ B 502      39.233 -26.658 -29.778  1.00140.95    -0.377 N 
HETATM   22  C7  MIQ B 502      38.515 -27.238 -28.655  1.00142.12     0.149 C 
HETATM   23  C8  MIQ B 502      38.184 -28.706 -28.889  1.00144.10     0.187 C 
HETATM   24  O9  MIQ B 502      37.619 -28.942 -30.144  1.00148.65    -0.388 OA
HETATM   25  C10 MIQ B 502      37.608 -27.938 -31.115  1.00147.44     0.187 C 
HETATM   26  C11 MIQ B 502      38.738 -26.914 -31.119  1.00144.08     0.149 C 
ENDBRANCH   5  21
TORSDOF 2
ENDMDL
MODEL 6
REMARK VINA RESULT:      -5.4      4.412      5.265
REMARK  2 active torsions:
REMARK  status: ('A' for Active; 'I' for Inactive)
REMARK    1  A    between atoms: C5_5  and  N6_21 
REMARK    2  A    between atoms: C18_14  and  N17_19 
ROOT
HETATM    1  O1  MIQ B 502      55.122 -21.628 -24.746  1.00142.91    -0.171 OA
HETATM    2  C2  MIQ B 502      54.700 -22.426 -23.680  1.00141.17     0.195 A 
HETATM    3  C3  MIQ B 502      54.692 -22.022 -22.171  1.00141.71     0.035 A 
HETATM    4  C4  MIQ B 502      55.083 -20.791 -21.444  1.00142.86     0.046 A 
HETATM    5  C5  MIQ B 502      54.956 -20.721 -20.034  1.00139.53     0.031 A 
HETATM    6  C12 MIQ B 502      54.438 -21.865 -19.297  1.00139.38     0.030 A 
HETATM    7  C13 MIQ B 502      54.063 -23.045 -19.994  1.00141.18     0.019 A 
HETATM    8  C14 MIQ B 502      54.196 -23.112 -21.475  1.00138.77     0.033 A 
HETATM    9  C15 MIQ B 502      53.894 -24.199 -22.558  1.00142.10     0.195 A 
HETATM   10  N17 MIQ B 502      54.226 -23.660 -23.719  1.00139.42    -0.288 N 
HETATM   11  O16 MIQ B 502      53.381 -25.478 -22.337  1.00148.93    -0.171 OA
ENDROOT
BRANCH  10  12
HETATM   12  C18 MIQ B 502      54.092 -24.397 -24.962  1.00139.82     0.187 C 
HETATM   13  C19 MIQ B 502      55.439 -24.330 -25.692  1.00140.06     0.247 C 
HETATM   14  O25 MIQ B 502      56.424 -24.621 -25.111  1.00143.95    -0.271 OA
HETATM   15  N20 MIQ B 502      55.537 -23.925 -27.079  1.00140.02    -0.296 N 
HETATM   16  H13 MIQ B 502      56.423 -23.880 -27.543  1.00142.77     0.171 HD
HETATM   17  C21 MIQ B 502      54.322 -23.565 -27.764  1.00142.22     0.224 C 
HETATM   18  C22 MIQ B 502      53.245 -22.895 -26.933  1.00139.52     0.106 C 
HETATM   19  O24 MIQ B 502      54.173 -23.787 -28.915  1.00146.13    -0.273 OA
HETATM   20  C23 MIQ B 502      52.933 -23.841 -25.788  1.00139.15     0.045 C 
ENDBRANCH  10  12
BRANCH   5  21
HETATM   21  N6  MIQ B 502      55.356 -19.514 -19.333  1.00140.95    -0.377 N 
HETATM   22  C7  MIQ B 502      54.787 -18.245 -19.755  1.00142.12     0.149 C 
HETATM   23  C8  MIQ B 502      55.707 -17.075 -19.432  1.00144.10     0.187 C 
HETATM   24  O9  MIQ B 502      56.189 -17.107 -18.122  1.00148.65    -0.388 OA
HETATM   25  C10 MIQ B 502      55.999 -18.240 -17.326  1.00147.44     0.187 C 
HETATM   26  C11 MIQ B 502      55.933 -19.605 -18.004  1.00144.08     0.149 C 
ENDBRANCH   5  21
TORSDOF 2
ENDMDL
MODEL 7
REMARK VINA RESULT:      -5.4     13.445     15.837
REMARK  2 active torsions:
REMARK  status: ('A' for Active; 'I' for Inactive)
REMARK    1  A    between atoms: C5_5  and  N6_21 
REMARK    2  A    between atoms: C18_14  and  N17_19 
ROOT
HETATM    1  O1  MIQ B 502      41.152 -20.624 -29.469  1.00142.91    -0.171 OA
HETATM    2  C2  MIQ B 502      41.582 -20.821 -28.155  1.00141.17     0.195 A 
HETATM    3  C3  MIQ B 502      41.354 -19.848 -26.954  1.00141.71     0.035 A 
HETATM    4  C4  MIQ B 502      40.677 -18.537 -26.819  1.00142.86     0.046 A 
HETATM    5  C5  MIQ B 502      40.631 -17.880 -25.564  1.00139.53     0.031 A 
HETATM    6  C12 MIQ B 502      41.253 -18.498 -24.401  1.00139.38     0.030 A 
HETATM    7  C13 MIQ B 502      41.901 -19.756 -24.530  1.00141.18     0.019 A 
HETATM    8  C14 MIQ B 502      41.944 -20.442 -25.850  1.00138.77     0.033 A 
HETATM    9  C15 MIQ B 502      42.541 -21.791 -26.368  1.00142.10     0.195 A 
HETATM   10  N17 MIQ B 502      42.252 -21.847 -27.658  1.00139.42    -0.288 N 
HETATM   11  O16 MIQ B 502      43.239 -22.739 -25.618  1.00148.93    -0.171 OA
ENDROOT
BRANCH  10  12
HETATM   12  C18 MIQ B 502      42.669 -22.967 -28.480  1.00139.82     0.187 C 
HETATM   13  C19 MIQ B 502      43.484 -22.409 -29.653  1.00140.06     0.247 C 
HETATM   14  O25 MIQ B 502      44.375 -21.667 -29.434  1.00143.95    -0.271 OA
HETATM   15  N20 MIQ B 502      43.195 -22.771 -31.025  1.00140.02    -0.296 N 
HETATM   16  H13 MIQ B 502      43.730 -22.394 -31.782  1.00142.77     0.171 HD
HETATM   17  C21 MIQ B 502      42.095 -23.669 -31.268  1.00142.22     0.224 C 
HETATM   18  C22 MIQ B 502      40.911 -23.568 -30.326  1.00139.52     0.106 C 
HETATM   19  O24 MIQ B 502      42.120 -24.450 -32.155  1.00146.13    -0.273 OA
HETATM   20  C23 MIQ B 502      41.455 -23.782 -28.925  1.00139.15     0.045 C 
ENDBRANCH  10  12
BRANCH   5  21
HETATM   21  N6  MIQ B 502      39.977 -16.589 -25.449  1.00140.95    -0.377 N 
HETATM   22  C7  MIQ B 502      38.870 -16.451 -24.519  1.00142.12     0.149 C 
HETATM   23  C8  MIQ B 502      37.909 -15.346 -24.939  1.00144.10     0.187 C 
HETATM   24  O9  MIQ B 502      38.560 -14.157 -25.272  1.00148.65    -0.388 OA
HETATM   25  C10 MIQ B 502      39.950 -14.126 -25.411  1.00147.44     0.187 C 
HETATM   26  C11 MIQ B 502      40.663 -15.386 -25.889  1.00144.08     0.149 C 
ENDBRANCH   5  21
TORSDOF 2
ENDMDL
MODEL 8
REMARK VINA RESULT:      -5.4      3.292      5.567
REMARK  2 active torsions:
REMARK  status: ('A' for Active; 'I' for Inactive)
REMARK    1  A    between atoms: C5_5  and  N6_21 
REMARK    2  A    between atoms: C18_14  and  N17_19 
ROOT
HETATM    1  O1  MIQ B 502      53.424 -24.784 -19.671  1.00142.91    -0.171 OA
HETATM    2  C2  MIQ B 502      54.382 -25.783 -19.484  1.00141.17     0.195 A 
HETATM    3  C3  MIQ B 502      54.470 -26.760 -18.268  1.00141.71     0.035 A 
HETATM    4  C4  MIQ B 502      53.656 -26.937 -17.042  1.00142.86     0.046 A 
HETATM    5  C5  MIQ B 502      53.992 -27.939 -16.097  1.00139.53     0.031 A 
HETATM    6  C12 MIQ B 502      55.144 -28.797 -16.333  1.00139.38     0.030 A 
HETATM    7  C13 MIQ B 502      55.924 -28.628 -17.509  1.00141.18     0.019 A 
HETATM    8  C14 MIQ B 502      55.565 -27.577 -18.499  1.00138.77     0.033 A 
HETATM    9  C15 MIQ B 502      56.159 -27.105 -19.866  1.00142.10     0.195 A 
HETATM   10  N17 MIQ B 502      55.388 -26.111 -20.276  1.00139.42    -0.288 N 
HETATM   11  O16 MIQ B 502      57.278 -27.628 -20.516  1.00148.93    -0.171 OA
ENDROOT
BRANCH  10  12
HETATM   12  C18 MIQ B 502      55.653 -25.410 -21.519  1.00139.82     0.187 C 
HETATM   13  C19 MIQ B 502      55.767 -23.915 -21.197  1.00140.06     0.247 C 
HETATM   14  O25 MIQ B 502      56.489 -23.565 -20.333  1.00143.95    -0.271 OA
HETATM   15  N20 MIQ B 502      55.016 -22.917 -21.931  1.00140.02    -0.296 N 
HETATM   16  H13 MIQ B 502      55.095 -21.944 -21.707  1.00142.77     0.171 HD
HETATM   17  C21 MIQ B 502      54.134 -23.369 -22.976  1.00142.22     0.224 C 
HETATM   18  C22 MIQ B 502      53.457 -24.710 -22.763  1.00139.52     0.106 C 
HETATM   19  O24 MIQ B 502      53.952 -22.728 -23.951  1.00146.13    -0.273 OA
HETATM   20  C23 MIQ B 502      54.567 -25.723 -22.547  1.00139.15     0.045 C 
ENDBRANCH  10  12
BRANCH   5  21
HETATM   21  N6  MIQ B 502      53.195 -28.092 -14.894  1.00140.95    -0.377 N 
HETATM   22  C7  MIQ B 502      53.790 -28.752 -13.745  1.00142.12     0.149 C 
HETATM   23  C8  MIQ B 502      52.740 -29.406 -12.857  1.00144.10     0.187 C 
HETATM   24  O9  MIQ B 502      51.668 -28.558 -12.569  1.00148.65    -0.388 OA
HETATM   25  C10 MIQ B 502      51.525 -27.344 -13.245  1.00147.44     0.187 C 
HETATM   26  C11 MIQ B 502      52.037 -27.242 -14.678  1.00144.08     0.149 C 
ENDBRANCH   5  21
TORSDOF 2
ENDMDL
MODEL 9
REMARK VINA RESULT:      -5.3      3.993      8.694
REMARK  2 active torsions:
REMARK  status: ('A' for Active; 'I' for Inactive)
REMARK    1  A    between atoms: C5_5  and  N6_21 
REMARK    2  A    between atoms: C18_14  and  N17_19 
ROOT
HETATM    1  O1  MIQ B 502      56.192 -20.798 -21.293  1.00142.91    -0.171 OA
HETATM    2  C2  MIQ B 502      55.353 -21.902 -21.458  1.00141.17     0.195 A 
HETATM    3  C3  MIQ B 502      54.891 -22.514 -22.819  1.00141.71     0.035 A 
HETATM    4  C4  MIQ B 502      55.160 -22.168 -24.235  1.00142.86     0.046 A 
HETATM    5  C5  MIQ B 502      54.582 -22.931 -25.281  1.00139.53     0.031 A 
HETATM    6  C12 MIQ B 502      53.721 -24.061 -24.961  1.00139.38     0.030 A 
HETATM    7  C13 MIQ B 502      53.464 -24.393 -23.604  1.00141.18     0.019 A 
HETATM    8  C14 MIQ B 502      54.075 -23.590 -22.510  1.00138.77     0.033 A 
HETATM    9  C15 MIQ B 502      54.031 -23.647 -20.948  1.00142.10     0.195 A 
HETATM   10  N17 MIQ B 502      54.790 -22.650 -20.524  1.00139.42    -0.288 N 
HETATM   11  O16 MIQ B 502      53.330 -24.565 -20.164  1.00148.93    -0.171 OA
ENDROOT
BRANCH  10  12
HETATM   12  C18 MIQ B 502      54.972 -22.384 -19.109  1.00139.82     0.187 C 
HETATM   13  C19 MIQ B 502      54.671 -20.900 -18.869  1.00140.06     0.247 C 
HETATM   14  O25 MIQ B 502      53.662 -20.444 -19.277  1.00143.95    -0.271 OA
HETATM   15  N20 MIQ B 502      55.589 -20.041 -18.150  1.00140.02    -0.296 N 
HETATM   16  H13 MIQ B 502      55.384 -19.072 -18.006  1.00142.77     0.171 HD
HETATM   17  C21 MIQ B 502      56.819 -20.618 -17.672  1.00142.22     0.224 C 
HETATM   18  C22 MIQ B 502      57.434 -21.712 -18.523  1.00139.52     0.106 C 
HETATM   19  O24 MIQ B 502      57.318 -20.260 -16.662  1.00146.13    -0.273 OA
HETATM   20  C23 MIQ B 502      56.377 -22.792 -18.668  1.00139.15     0.045 C 
ENDBRANCH  10  12
BRANCH   5  21
HETATM   21  N6  MIQ B 502      54.842 -22.572 -26.664  1.00140.95    -0.377 N 
HETATM   22  C7  MIQ B 502      53.886 -22.981 -27.679  1.00142.12     0.149 C 
HETATM   23  C8  MIQ B 502      54.539 -23.131 -29.047  1.00144.10     0.187 C 
HETATM   24  O9  MIQ B 502      55.343 -22.042 -29.388  1.00148.65    -0.388 OA
HETATM   25  C10 MIQ B 502      55.658 -21.069 -28.436  1.00147.44     0.187 C 
HETATM   26  C11 MIQ B 502      55.754 -21.485 -26.972  1.00144.08     0.149 C 
ENDBRANCH   5  21
TORSDOF 2
ENDMDL
