MODEL 1
REMARK VINA RESULT:      -7.3      0.000      0.000
REMARK  2 active torsions:
REMARK  status: ('A' for Active; 'I' for Inactive)
REMARK    1  A    between atoms: C5_5  and  N6_21 
REMARK    2  A    between atoms: C18_14  and  N17_19 
ROOT
HETATM    1  O1  MIQ B 502       3.097  -8.831  -2.932  1.00142.91    -0.171 OA
HETATM    2  C2  MIQ B 502       3.222  -8.686  -4.315  1.00141.17     0.195 A 
HETATM    3  C3  MIQ B 502       3.008  -9.806  -5.383  1.00141.71     0.035 A 
HETATM    4  C4  MIQ B 502       2.638 -11.238  -5.297  1.00142.86     0.046 A 
HETATM    5  C5  MIQ B 502       2.515 -12.019  -6.475  1.00139.53     0.031 A 
HETATM    6  C12 MIQ B 502       2.755 -11.408  -7.775  1.00139.38     0.030 A 
HETATM    7  C13 MIQ B 502       3.109 -10.034  -7.857  1.00141.18     0.019 A 
HETATM    8  C14 MIQ B 502       3.234  -9.219  -6.618  1.00138.77     0.033 A 
HETATM    9  C15 MIQ B 502       3.589  -7.727  -6.315  1.00142.10     0.195 A 
HETATM   10  N17 MIQ B 502       3.535  -7.599  -4.999  1.00139.42    -0.288 N 
HETATM   11  O16 MIQ B 502       3.902  -6.736  -7.247  1.00148.93    -0.171 OA
ENDROOT
BRANCH  10  12
HETATM   12  C18 MIQ B 502       3.827  -6.335  -4.349  1.00139.82     0.187 C 
HETATM   13  C19 MIQ B 502       5.259  -6.409  -3.804  1.00140.06     0.247 C 
HETATM   14  O25 MIQ B 502       6.132  -6.746  -4.522  1.00143.95    -0.271 OA
HETATM   15  N20 MIQ B 502       5.572  -6.070  -2.431  1.00140.02    -0.296 N 
HETATM   16  H13 MIQ B 502       6.510  -6.129  -2.086  1.00142.77     0.171 HD
HETATM   17  C21 MIQ B 502       4.488  -5.671  -1.571  1.00142.22     0.224 C 
HETATM   18  C22 MIQ B 502       3.143  -6.326  -1.821  1.00139.52     0.106 C 
HETATM   19  O24 MIQ B 502       4.641  -4.869  -0.716  1.00146.13    -0.273 OA
HETATM   20  C23 MIQ B 502       2.788  -6.040  -3.269  1.00139.15     0.045 C 
ENDBRANCH  10  12
BRANCH   5  21
HETATM   21  N6  MIQ B 502       2.166 -13.424  -6.375  1.00140.95    -0.377 N 
HETATM   22  C7  MIQ B 502       1.674 -13.929  -5.105  1.00142.12     0.149 C 
HETATM   23  C8  MIQ B 502       1.959 -15.416  -4.935  1.00144.10     0.187 C 
HETATM   24  O9  MIQ B 502       1.603 -16.169  -6.056  1.00148.65    -0.388 OA
HETATM   25  C10 MIQ B 502       1.252 -15.537  -7.251  1.00147.44     0.187 C 
HETATM   26  C11 MIQ B 502       1.888 -14.189  -7.578  1.00144.08     0.149 C 
ENDBRANCH   5  21
TORSDOF 2
ENDMDL
MODEL 2
REMARK VINA RESULT:      -7.2     16.969     19.717
REMARK  2 active torsions:
REMARK  status: ('A' for Active; 'I' for Inactive)
REMARK    1  A    between atoms: C5_5  and  N6_21 
REMARK    2  A    between atoms: C18_14  and  N17_19 
ROOT
HETATM    1  O1  MIQ B 502       7.182 -21.637 -19.910  1.00142.91    -0.171 OA
HETATM    2  C2  MIQ B 502       6.800 -20.331 -19.595  1.00141.17     0.195 A 
HETATM    3  C3  MIQ B 502       7.532 -19.024 -20.036  1.00141.71     0.035 A 
HETATM    4  C4  MIQ B 502       8.742 -18.759 -20.851  1.00142.86     0.046 A 
HETATM    5  C5  MIQ B 502       9.170 -17.428 -21.086  1.00139.53     0.031 A 
HETATM    6  C12 MIQ B 502       8.417 -16.317 -20.524  1.00139.38     0.030 A 
HETATM    7  C13 MIQ B 502       7.257 -16.570 -19.744  1.00141.18     0.019 A 
HETATM    8  C14 MIQ B 502       6.810 -17.970 -19.502  1.00138.77     0.033 A 
HETATM    9  C15 MIQ B 502       5.622 -18.626 -18.725  1.00142.10     0.195 A 
HETATM   10  N17 MIQ B 502       5.763 -19.932 -18.879  1.00139.42    -0.288 N 
HETATM   11  O16 MIQ B 502       4.621 -17.962 -18.014  1.00148.93    -0.171 OA
ENDROOT
BRANCH  10  12
HETATM   12  C18 MIQ B 502       4.837 -20.870 -18.272  1.00139.82     0.187 C 
HETATM   13  C19 MIQ B 502       5.655 -21.862 -17.437  1.00140.06     0.247 C 
HETATM   14  O25 MIQ B 502       6.438 -21.449 -16.656  1.00143.95    -0.271 OA
HETATM   15  N20 MIQ B 502       5.490 -23.294 -17.574  1.00140.02    -0.296 N 
HETATM   16  H13 MIQ B 502       6.035 -23.931 -17.027  1.00142.77     0.171 HD
HETATM   17  C21 MIQ B 502       4.536 -23.774 -18.541  1.00142.22     0.224 C 
HETATM   18  C22 MIQ B 502       4.366 -22.945 -19.799  1.00139.52     0.106 C 
HETATM   19  O24 MIQ B 502       3.914 -24.762 -18.357  1.00146.13    -0.273 OA
HETATM   20  C23 MIQ B 502       3.986 -21.547 -19.346  1.00139.15     0.045 C 
ENDBRANCH  10  12
BRANCH   5  21
HETATM   21  N6  MIQ B 502      10.365 -17.184 -21.873  1.00140.95    -0.377 N 
HETATM   22  C7  MIQ B 502      11.191 -16.035 -21.545  1.00142.12     0.149 C 
HETATM   23  C8  MIQ B 502      11.972 -15.532 -22.752  1.00144.10     0.187 C 
HETATM   24  O9  MIQ B 502      12.623 -16.556 -23.443  1.00148.65    -0.388 OA
HETATM   25  C10 MIQ B 502      12.351 -17.894 -23.146  1.00147.44     0.187 C 
HETATM   26  C11 MIQ B 502      10.958 -18.262 -22.646  1.00144.08     0.149 C 
ENDBRANCH   5  21
TORSDOF 2
ENDMDL
MODEL 3
REMARK VINA RESULT:      -7.1     16.958     19.115
REMARK  2 active torsions:
REMARK  status: ('A' for Active; 'I' for Inactive)
REMARK    1  A    between atoms: C5_5  and  N6_21 
REMARK    2  A    between atoms: C18_14  and  N17_19 
ROOT
HETATM    1  O1  MIQ B 502       9.839 -18.506 -22.128  1.00142.91    -0.171 OA
HETATM    2  C2  MIQ B 502       8.955 -17.906 -21.228  1.00141.17     0.195 A 
HETATM    3  C3  MIQ B 502       7.960 -18.648 -20.280  1.00141.71     0.035 A 
HETATM    4  C4  MIQ B 502       7.656 -20.079 -20.039  1.00142.86     0.046 A 
HETATM    5  C5  MIQ B 502       6.675 -20.452 -19.086  1.00139.53     0.031 A 
HETATM    6  C12 MIQ B 502       5.963 -19.424 -18.340  1.00139.38     0.030 A 
HETATM    7  C13 MIQ B 502       6.256 -18.053 -18.570  1.00141.18     0.019 A 
HETATM    8  C14 MIQ B 502       7.288 -17.666 -19.570  1.00138.77     0.033 A 
HETATM    9  C15 MIQ B 502       7.870 -16.308 -20.080  1.00142.10     0.195 A 
HETATM   10  N17 MIQ B 502       8.779 -16.618 -20.989  1.00139.42    -0.288 N 
HETATM   11  O16 MIQ B 502       7.499 -15.029 -19.659  1.00148.93    -0.171 OA
ENDROOT
BRANCH  10  12
HETATM   12  C18 MIQ B 502       9.523 -15.593 -21.697  1.00139.82     0.187 C 
HETATM   13  C19 MIQ B 502       9.452 -15.914 -23.195  1.00140.06     0.247 C 
HETATM   14  O25 MIQ B 502       8.401 -16.117 -23.691  1.00143.95    -0.271 OA
HETATM   15  N20 MIQ B 502      10.640 -15.969 -24.022  1.00140.02    -0.296 N 
HETATM   16  H13 MIQ B 502      10.581 -16.186 -24.997  1.00142.77     0.171 HD
HETATM   17  C21 MIQ B 502      11.912 -15.727 -23.391  1.00142.22     0.224 C 
HETATM   18  C22 MIQ B 502      12.059 -16.191 -21.955  1.00139.52     0.106 C 
HETATM   19  O24 MIQ B 502      12.794 -15.189 -23.965  1.00146.13    -0.273 OA
HETATM   20  C23 MIQ B 502      10.954 -15.513 -21.167  1.00139.15     0.045 C 
ENDBRANCH  10  12
BRANCH   5  21
HETATM   21  N6  MIQ B 502       6.376 -21.857 -18.872  1.00140.95    -0.377 N 
HETATM   22  C7  MIQ B 502       5.494 -22.220 -17.776  1.00142.12     0.149 C 
HETATM   23  C8  MIQ B 502       5.768 -23.629 -17.268  1.00144.10     0.187 C 
HETATM   24  O9  MIQ B 502       5.861 -24.569 -18.297  1.00148.65    -0.388 OA
HETATM   25  C10 MIQ B 502       5.922 -24.156 -19.630  1.00147.44     0.187 C 
HETATM   26  C11 MIQ B 502       6.571 -22.812 -19.948  1.00144.08     0.149 C 
ENDBRANCH   5  21
TORSDOF 2
ENDMDL
MODEL 4
REMARK VINA RESULT:      -6.9     17.104     19.120
REMARK  2 active torsions:
REMARK  status: ('A' for Active; 'I' for Inactive)
REMARK    1  A    between atoms: C5_5  and  N6_21 
REMARK    2  A    between atoms: C18_14  and  N17_19 
ROOT
HETATM    1  O1  MIQ B 502       3.449 -16.628 -19.881  1.00142.91    -0.171 OA
HETATM    2  C2  MIQ B 502       4.058 -17.885 -19.872  1.00141.17     0.195 A 
HETATM    3  C3  MIQ B 502       5.572 -18.179 -20.117  1.00141.71     0.035 A 
HETATM    4  C4  MIQ B 502       6.743 -17.317 -20.407  1.00142.86     0.046 A 
HETATM    5  C5  MIQ B 502       8.028 -17.890 -20.584  1.00139.53     0.031 A 
HETATM    6  C12 MIQ B 502       8.197 -19.333 -20.480  1.00139.38     0.030 A 
HETATM    7  C13 MIQ B 502       7.074 -20.158 -20.201  1.00141.18     0.019 A 
HETATM    8  C14 MIQ B 502       5.728 -19.551 -20.013  1.00138.77     0.033 A 
HETATM    9  C15 MIQ B 502       4.303 -20.113 -19.701  1.00142.10     0.195 A 
HETATM   10  N17 MIQ B 502       3.499 -19.063 -19.654  1.00139.42    -0.288 N 
HETATM   11  O16 MIQ B 502       3.955 -21.452 -19.513  1.00148.93    -0.171 OA
ENDROOT
BRANCH  10  12
HETATM   12  C18 MIQ B 502       2.078 -19.209 -19.397  1.00139.82     0.187 C 
HETATM   13  C19 MIQ B 502       1.916 -20.036 -18.117  1.00140.06     0.247 C 
HETATM   14  O25 MIQ B 502       2.508 -19.719 -17.147  1.00143.95    -0.271 OA
HETATM   15  N20 MIQ B 502       1.050 -21.196 -18.061  1.00140.02    -0.296 N 
HETATM   16  H13 MIQ B 502       0.958 -21.732 -17.221  1.00142.77     0.171 HD
HETATM   17  C21 MIQ B 502       0.346 -21.570 -19.261  1.00142.22     0.224 C 
HETATM   18  C22 MIQ B 502       1.056 -21.312 -20.576  1.00139.52     0.106 C 
HETATM   19  O24 MIQ B 502      -0.733 -22.049 -19.220  1.00146.13    -0.273 OA
HETATM   20  C23 MIQ B 502       1.381 -19.829 -20.607  1.00139.15     0.045 C 
ENDBRANCH  10  12
BRANCH   5  21
HETATM   21  N6  MIQ B 502       9.163 -17.036 -20.883  1.00140.95    -0.377 N 
HETATM   22  C7  MIQ B 502       9.093 -15.633 -20.512  1.00142.12     0.149 C 
HETATM   23  C8  MIQ B 502       9.974 -14.765 -21.401  1.00144.10     0.187 C 
HETATM   24  O9  MIQ B 502      11.264 -15.279 -21.555  1.00148.65    -0.388 OA
HETATM   25  C10 MIQ B 502      11.570 -16.567 -21.111  1.00147.44     0.187 C 
HETATM   26  C11 MIQ B 502      10.470 -17.623 -21.121  1.00144.08     0.149 C 
ENDBRANCH   5  21
TORSDOF 2
ENDMDL
MODEL 5
REMARK VINA RESULT:      -6.8     15.432     19.092
REMARK  2 active torsions:
REMARK  status: ('A' for Active; 'I' for Inactive)
REMARK    1  A    between atoms: C5_5  and  N6_21 
REMARK    2  A    between atoms: C18_14  and  N17_19 
ROOT
HETATM    1  O1  MIQ B 502       5.629 -16.805 -19.269  1.00142.91    -0.171 OA
HETATM    2  C2  MIQ B 502       6.479 -17.776 -19.803  1.00141.17     0.195 A 
HETATM    3  C3  MIQ B 502       7.710 -17.515 -20.729  1.00141.71     0.035 A 
HETATM    4  C4  MIQ B 502       8.323 -16.287 -21.288  1.00142.86     0.046 A 
HETATM    5  C5  MIQ B 502       9.468 -16.372 -22.119  1.00139.53     0.031 A 
HETATM    6  C12 MIQ B 502      10.045 -17.674 -22.424  1.00139.38     0.030 A 
HETATM    7  C13 MIQ B 502       9.458 -18.851 -21.888  1.00141.18     0.019 A 
HETATM    8  C14 MIQ B 502       8.257 -18.756 -21.014  1.00138.77     0.033 A 
HETATM    9  C15 MIQ B 502       7.362 -19.792 -20.259  1.00142.10     0.195 A 
HETATM   10  N17 MIQ B 502       6.430 -19.087 -19.639  1.00139.42    -0.288 N 
HETATM   11  O16 MIQ B 502       7.517 -21.179 -20.248  1.00148.93    -0.171 OA
ENDROOT
BRANCH  10  12
HETATM   12  C18 MIQ B 502       5.400 -19.727 -18.843  1.00139.82     0.187 C 
HETATM   13  C19 MIQ B 502       4.043 -19.193 -19.316  1.00140.06     0.247 C 
HETATM   14  O25 MIQ B 502       3.786 -19.214 -20.467  1.00143.95    -0.271 OA
HETATM   15  N20 MIQ B 502       3.062 -18.668 -18.388  1.00140.02    -0.296 N 
HETATM   16  H13 MIQ B 502       2.183 -18.316 -18.711  1.00142.77     0.171 HD
HETATM   17  C21 MIQ B 502       3.404 -18.643 -16.989  1.00142.22     0.224 C 
HETATM   18  C22 MIQ B 502       4.862 -18.404 -16.648  1.00139.52     0.106 C 
HETATM   19  O24 MIQ B 502       2.587 -18.806 -16.151  1.00146.13    -0.273 OA
HETATM   20  C23 MIQ B 502       5.654 -19.488 -17.355  1.00139.15     0.045 C 
ENDBRANCH  10  12
BRANCH   5  21
HETATM   21  N6  MIQ B 502      10.050 -15.162 -22.672  1.00140.95    -0.377 N 
HETATM   22  C7  MIQ B 502      10.062 -13.962 -21.854  1.00142.12     0.149 C 
HETATM   23  C8  MIQ B 502      10.074 -12.696 -22.702  1.00144.10     0.187 C 
HETATM   24  O9  MIQ B 502      11.028 -12.734 -23.722  1.00148.65    -0.388 OA
HETATM   25  C10 MIQ B 502      11.697 -13.923 -24.021  1.00147.44     0.187 C 
HETATM   26  C11 MIQ B 502      10.972 -15.246 -23.791  1.00144.08     0.149 C 
ENDBRANCH   5  21
TORSDOF 2
ENDMDL
MODEL 6
REMARK VINA RESULT:      -6.6     11.540     15.341
REMARK  2 active torsions:
REMARK  status: ('A' for Active; 'I' for Inactive)
REMARK    1  A    between atoms: C5_5  and  N6_21 
REMARK    2  A    between atoms: C18_14  and  N17_19 
ROOT
HETATM    1  O1  MIQ B 502       7.950 -20.355  -1.034  1.00142.91    -0.171 OA
HETATM    2  C2  MIQ B 502       7.320 -21.599  -0.964  1.00141.17     0.195 A 
HETATM    3  C3  MIQ B 502       5.818 -21.854  -0.620  1.00141.71     0.035 A 
HETATM    4  C4  MIQ B 502       4.682 -20.961  -0.293  1.00142.86     0.046 A 
HETATM    5  C5  MIQ B 502       3.399 -21.501  -0.022  1.00139.53     0.031 A 
HETATM    6  C12 MIQ B 502       3.199 -22.943  -0.066  1.00139.38     0.030 A 
HETATM    7  C13 MIQ B 502       4.288 -23.800  -0.380  1.00141.18     0.019 A 
HETATM    8  C14 MIQ B 502       5.631 -23.226  -0.667  1.00138.77     0.033 A 
HETATM    9  C15 MIQ B 502       7.026 -23.826  -1.042  1.00142.10     0.195 A 
HETATM   10  N17 MIQ B 502       7.844 -22.795  -1.172  1.00139.42    -0.288 N 
HETATM   11  O16 MIQ B 502       7.338 -25.177  -1.202  1.00148.93    -0.171 OA
ENDROOT
BRANCH  10  12
HETATM   12  C18 MIQ B 502       9.245 -22.977  -1.505  1.00139.82     0.187 C 
HETATM   13  C19 MIQ B 502       9.318 -23.883  -2.741  1.00140.06     0.247 C 
HETATM   14  O25 MIQ B 502       8.671 -23.616  -3.690  1.00143.95    -0.271 OA
HETATM   15  N20 MIQ B 502      10.165 -25.057  -2.778  1.00140.02    -0.296 N 
HETATM   16  H13 MIQ B 502      10.199 -25.644  -3.588  1.00142.77     0.171 HD
HETATM   17  C21 MIQ B 502      10.938 -25.368  -1.603  1.00142.22     0.224 C 
HETATM   18  C22 MIQ B 502      10.314 -25.021  -0.265  1.00139.52     0.106 C 
HETATM   19  O24 MIQ B 502      12.007 -25.866  -1.680  1.00146.13    -0.273 OA
HETATM   20  C23 MIQ B 502      10.008 -23.534  -0.305  1.00139.15     0.045 C 
ENDBRANCH  10  12
BRANCH   5  21
HETATM   21  N6  MIQ B 502       2.299 -20.615   0.311  1.00140.95    -0.377 N 
HETATM   22  C7  MIQ B 502       1.874 -19.635  -0.673  1.00142.12     0.149 C 
HETATM   23  C8  MIQ B 502       1.226 -18.420  -0.022  1.00144.10     0.187 C 
HETATM   24  O9  MIQ B 502       0.267 -18.762   0.933  1.00148.65    -0.388 OA
HETATM   25  C10 MIQ B 502       0.136 -20.085   1.363  1.00147.44     0.187 C 
HETATM   26  C11 MIQ B 502       1.375 -20.974   1.373  1.00144.08     0.149 C 
ENDBRANCH   5  21
TORSDOF 2
ENDMDL
MODEL 7
REMARK VINA RESULT:      -6.5     14.574     18.853
REMARK  2 active torsions:
REMARK  status: ('A' for Active; 'I' for Inactive)
REMARK    1  A    between atoms: C5_5  and  N6_21 
REMARK    2  A    between atoms: C18_14  and  N17_19 
ROOT
HETATM    1  O1  MIQ B 502       5.239 -21.251 -16.494  1.00142.91    -0.171 OA
HETATM    2  C2  MIQ B 502       4.937 -21.609 -17.810  1.00141.17     0.195 A 
HETATM    3  C3  MIQ B 502       5.233 -22.988 -18.481  1.00141.71     0.035 A 
HETATM    4  C4  MIQ B 502       5.860 -24.242 -18.000  1.00142.86     0.046 A 
HETATM    5  C5  MIQ B 502       5.990 -25.357 -18.867  1.00139.53     0.031 A 
HETATM    6  C12 MIQ B 502       5.504 -25.268 -20.236  1.00139.38     0.030 A 
HETATM    7  C13 MIQ B 502       4.901 -24.066 -20.697  1.00141.18     0.019 A 
HETATM    8  C14 MIQ B 502       4.765 -22.900 -19.782  1.00138.77     0.033 A 
HETATM    9  C15 MIQ B 502       4.176 -21.458 -19.919  1.00142.10     0.195 A 
HETATM   10  N17 MIQ B 502       4.348 -20.880 -18.742  1.00139.42    -0.288 N 
HETATM   11  O16 MIQ B 502       3.591 -20.899 -21.056  1.00148.93    -0.171 OA
ENDROOT
BRANCH  10  12
HETATM   12  C18 MIQ B 502       3.929 -19.512 -18.502  1.00139.82     0.187 C 
HETATM   13  C19 MIQ B 502       5.128 -18.750 -17.925  1.00140.06     0.247 C 
HETATM   14  O25 MIQ B 502       6.166 -18.801 -18.483  1.00143.95    -0.271 OA
HETATM   15  N20 MIQ B 502       5.022 -17.962 -16.714  1.00140.02    -0.296 N 
HETATM   16  H13 MIQ B 502       5.814 -17.475 -16.344  1.00142.77     0.171 HD
HETATM   17  C21 MIQ B 502       3.748 -17.924 -16.044  1.00142.22     0.224 C 
HETATM   18  C22 MIQ B 502       2.902 -19.181 -16.116  1.00139.52     0.106 C 
HETATM   19  O24 MIQ B 502       3.379 -16.957 -15.472  1.00146.13    -0.273 OA
HETATM   20  C23 MIQ B 502       2.703 -19.483 -17.590  1.00139.15     0.045 C 
ENDBRANCH  10  12
BRANCH   5  21
HETATM   21  N6  MIQ B 502       6.620 -26.573 -18.387  1.00140.95    -0.377 N 
HETATM   22  C7  MIQ B 502       6.157 -27.847 -18.909  1.00142.12     0.149 C 
HETATM   23  C8  MIQ B 502       6.395 -28.986 -17.925  1.00144.10     0.187 C 
HETATM   24  O9  MIQ B 502       7.690 -28.990 -17.402  1.00148.65    -0.388 OA
HETATM   25  C10 MIQ B 502       8.544 -27.905 -17.618  1.00147.44     0.187 C 
HETATM   26  C11 MIQ B 502       7.934 -26.516 -17.771  1.00144.08     0.149 C 
ENDBRANCH   5  21
TORSDOF 2
ENDMDL
MODEL 8
REMARK VINA RESULT:      -6.5     16.044     19.253
REMARK  2 active torsions:
REMARK  status: ('A' for Active; 'I' for Inactive)
REMARK    1  A    between atoms: C5_5  and  N6_21 
REMARK    2  A    between atoms: C18_14  and  N17_19 
ROOT
HETATM    1  O1  MIQ B 502       6.912 -21.207 -20.684  1.00142.91    -0.171 OA
HETATM    2  C2  MIQ B 502       6.668 -19.889 -20.292  1.00141.17     0.195 A 
HETATM    3  C3  MIQ B 502       7.535 -18.642 -20.658  1.00141.71     0.035 A 
HETATM    4  C4  MIQ B 502       8.769 -18.459 -21.458  1.00142.86     0.046 A 
HETATM    5  C5  MIQ B 502       9.336 -17.169 -21.616  1.00139.53     0.031 A 
HETATM    6  C12 MIQ B 502       8.701 -16.019 -20.988  1.00139.38     0.030 A 
HETATM    7  C13 MIQ B 502       7.517 -16.194 -20.222  1.00141.18     0.019 A 
HETATM    8  C14 MIQ B 502       6.925 -17.550 -20.062  1.00138.77     0.033 A 
HETATM    9  C15 MIQ B 502       5.672 -18.122 -19.322  1.00142.10     0.195 A 
HETATM   10  N17 MIQ B 502       5.675 -19.425 -19.552  1.00139.42    -0.288 N 
HETATM   11  O16 MIQ B 502       4.743 -17.400 -18.571  1.00148.93    -0.171 OA
ENDROOT
BRANCH  10  12
HETATM   12  C18 MIQ B 502       4.653 -20.294 -18.999  1.00139.82     0.187 C 
HETATM   13  C19 MIQ B 502       3.290 -19.765 -19.462  1.00140.06     0.247 C 
HETATM   14  O25 MIQ B 502       3.114 -19.552 -20.609  1.00143.95    -0.271 OA
HETATM   15  N20 MIQ B 502       2.207 -19.525 -18.530  1.00140.02    -0.296 N 
HETATM   16  H13 MIQ B 502       1.324 -19.174 -18.844  1.00142.77     0.171 HD
HETATM   17  C21 MIQ B 502       2.450 -19.783 -17.134  1.00142.22     0.224 C 
HETATM   18  C22 MIQ B 502       3.855 -19.523 -16.627  1.00139.52     0.106 C 
HETATM   19  O24 MIQ B 502       1.595 -20.183 -16.422  1.00146.13    -0.273 OA
HETATM   20  C23 MIQ B 502       4.784 -20.369 -17.479  1.00139.15     0.045 C 
ENDBRANCH  10  12
BRANCH   5  21
HETATM   21  N6  MIQ B 502      10.553 -17.006 -22.390  1.00140.95    -0.377 N 
HETATM   22  C7  MIQ B 502      11.372 -15.828 -22.157  1.00142.12     0.149 C 
HETATM   23  C8  MIQ B 502      12.188 -15.451 -23.387  1.00144.10     0.187 C 
HETATM   24  O9  MIQ B 502      12.855 -16.540 -23.951  1.00148.65    -0.388 OA
HETATM   25  C10 MIQ B 502      12.572 -17.841 -23.526  1.00147.44     0.187 C 
HETATM   26  C11 MIQ B 502      11.165 -18.157 -23.031  1.00144.08     0.149 C 
ENDBRANCH   5  21
TORSDOF 2
ENDMDL
MODEL 9
REMARK VINA RESULT:      -6.5     16.616     18.441
REMARK  2 active torsions:
REMARK  status: ('A' for Active; 'I' for Inactive)
REMARK    1  A    between atoms: C5_5  and  N6_21 
REMARK    2  A    between atoms: C18_14  and  N17_19 
ROOT
HETATM    1  O1  MIQ B 502       3.653 -18.193 -19.408  1.00142.91    -0.171 OA
HETATM    2  C2  MIQ B 502       3.431 -19.569 -19.330  1.00141.17     0.195 A 
HETATM    3  C3  MIQ B 502       2.047 -20.287 -19.434  1.00141.71     0.035 A 
HETATM    4  C4  MIQ B 502       0.660 -19.802 -19.632  1.00142.86     0.046 A 
HETATM    5  C5  MIQ B 502      -0.418 -20.721 -19.688  1.00139.53     0.031 A 
HETATM    6  C12 MIQ B 502      -0.161 -22.147 -19.550  1.00139.38     0.030 A 
HETATM    7  C13 MIQ B 502       1.169 -22.612 -19.361  1.00141.18     0.019 A 
HETATM    8  C14 MIQ B 502       2.297 -21.643 -19.306  1.00138.77     0.033 A 
HETATM    9  C15 MIQ B 502       3.845 -21.768 -19.122  1.00142.10     0.195 A 
HETATM   10  N17 MIQ B 502       4.319 -20.534 -19.161  1.00139.42    -0.288 N 
HETATM   11  O16 MIQ B 502       4.573 -22.947 -18.948  1.00148.93    -0.171 OA
ENDROOT
BRANCH  10  12
HETATM   12  C18 MIQ B 502       5.735 -20.261 -19.006  1.00139.82     0.187 C 
HETATM   13  C19 MIQ B 502       5.892 -19.225 -17.886  1.00140.06     0.247 C 
HETATM   14  O25 MIQ B 502       5.363 -19.414 -16.848  1.00143.95    -0.271 OA
HETATM   15  N20 MIQ B 502       6.676 -18.020 -18.064  1.00140.02    -0.296 N 
HETATM   16  H13 MIQ B 502       6.765 -17.348 -17.327  1.00142.77     0.171 HD
HETATM   17  C21 MIQ B 502       7.303 -17.807 -19.343  1.00142.22     0.224 C 
HETATM   18  C22 MIQ B 502       6.560 -18.322 -20.560  1.00139.52     0.106 C 
HETATM   19  O24 MIQ B 502       8.348 -17.261 -19.436  1.00146.13    -0.273 OA
HETATM   20  C23 MIQ B 502       6.338 -19.806 -20.334  1.00139.15     0.045 C 
ENDBRANCH  10  12
BRANCH   5  21
HETATM   21  N6  MIQ B 502      -1.773 -20.231 -19.867  1.00140.95    -0.377 N 
HETATM   22  C7  MIQ B 502      -2.002 -19.150 -20.810  1.00142.12     0.149 C 
HETATM   23  C8  MIQ B 502      -3.235 -18.332 -20.449  1.00144.10     0.187 C 
HETATM   24  O9  MIQ B 502      -4.350 -19.126 -20.169  1.00148.65    -0.388 OA
HETATM   25  C10 MIQ B 502      -4.216 -20.509 -20.022  1.00147.44     0.187 C 
HETATM   26  C11 MIQ B 502      -2.901 -21.060 -19.480  1.00144.08     0.149 C 
ENDBRANCH   5  21
TORSDOF 2
ENDMDL
