MODEL 1
REMARK VINA RESULT:      -6.7      0.000      0.000
REMARK  2 active torsions:
REMARK  status: ('A' for Active; 'I' for Inactive)
REMARK    1  A    between atoms: C5_5  and  N6_21 
REMARK    2  A    between atoms: C18_14  and  N17_19 
ROOT
HETATM    1  O1  MIQ B 502       8.665   5.815  20.090  1.00142.91    -0.171 OA
HETATM    2  C2  MIQ B 502       8.463   5.501  18.744  1.00141.17     0.195 A 
HETATM    3  C3  MIQ B 502       7.451   4.452  18.184  1.00141.71     0.035 A 
HETATM    4  C4  MIQ B 502       6.470   3.541  18.820  1.00142.86     0.046 A 
HETATM    5  C5  MIQ B 502       5.669   2.682  18.026  1.00139.53     0.031 A 
HETATM    6  C12 MIQ B 502       5.811   2.697  16.577  1.00139.38     0.030 A 
HETATM    7  C13 MIQ B 502       6.750   3.571  15.966  1.00141.18     0.019 A 
HETATM    8  C14 MIQ B 502       7.587   4.472  16.805  1.00138.77     0.033 A 
HETATM    9  C15 MIQ B 502       8.690   5.540  16.508  1.00142.10     0.195 A 
HETATM   10  N17 MIQ B 502       9.065   6.014  17.685  1.00139.42    -0.288 N 
HETATM   11  O16 MIQ B 502       9.177   5.912  15.254  1.00148.93    -0.171 OA
ENDROOT
BRANCH  10  12
HETATM   12  C18 MIQ B 502      10.099   7.026  17.799  1.00139.82     0.187 C 
HETATM   13  C19 MIQ B 502       9.677   8.224  16.940  1.00140.06     0.247 C 
HETATM   14  O25 MIQ B 502       8.597   8.680  17.078  1.00143.95    -0.271 OA
HETATM   15  N20 MIQ B 502      10.570   8.818  15.966  1.00140.02    -0.296 N 
HETATM   16  H13 MIQ B 502      10.280   9.596  15.407  1.00142.77     0.171 HD
HETATM   17  C21 MIQ B 502      11.879   8.238  15.809  1.00142.22     0.224 C 
HETATM   18  C22 MIQ B 502      11.987   6.738  16.008  1.00139.52     0.106 C 
HETATM   19  O24 MIQ B 502      12.820   8.900  15.544  1.00146.13    -0.273 OA
HETATM   20  C23 MIQ B 502      11.456   6.448  17.399  1.00139.15     0.045 C 
ENDBRANCH  10  12
BRANCH   5  21
HETATM   21  N6  MIQ B 502       4.723   1.784  18.664  1.00140.95    -0.377 N 
HETATM   22  C7  MIQ B 502       5.233   0.600  19.333  1.00142.12     0.149 C 
HETATM   23  C8  MIQ B 502       4.200  -0.520  19.372  1.00144.10     0.187 C 
HETATM   24  O9  MIQ B 502       2.945  -0.086  19.801  1.00148.65    -0.388 OA
HETATM   25  C10 MIQ B 502       2.675   1.279  19.934  1.00147.44     0.187 C 
HETATM   26  C11 MIQ B 502       3.396   2.258  19.014  1.00144.08     0.149 C 
ENDBRANCH   5  21
TORSDOF 2
ENDMDL
MODEL 2
REMARK VINA RESULT:      -6.3      2.091      8.084
REMARK  2 active torsions:
REMARK  status: ('A' for Active; 'I' for Inactive)
REMARK    1  A    between atoms: C5_5  and  N6_21 
REMARK    2  A    between atoms: C18_14  and  N17_19 
ROOT
HETATM    1  O1  MIQ B 502       5.912   3.941  19.888  1.00142.91    -0.171 OA
HETATM    2  C2  MIQ B 502       6.033   3.212  18.703  1.00141.17     0.195 A 
HETATM    3  C3  MIQ B 502       6.865   3.625  17.447  1.00141.71     0.035 A 
HETATM    4  C4  MIQ B 502       7.713   4.797  17.127  1.00142.86     0.046 A 
HETATM    5  C5  MIQ B 502       8.359   4.893  15.868  1.00139.53     0.031 A 
HETATM    6  C12 MIQ B 502       8.186   3.832  14.886  1.00139.38     0.030 A 
HETATM    7  C13 MIQ B 502       7.373   2.708  15.192  1.00141.18     0.019 A 
HETATM    8  C14 MIQ B 502       6.700   2.612  16.516  1.00138.77     0.033 A 
HETATM    9  C15 MIQ B 502       5.762   1.564  17.199  1.00142.10     0.195 A 
HETATM   10  N17 MIQ B 502       5.489   2.046  18.400  1.00139.42    -0.288 N 
HETATM   11  O16 MIQ B 502       5.306   0.366  16.646  1.00148.93    -0.171 OA
ENDROOT
BRANCH  10  12
HETATM   12  C18 MIQ B 502       4.620   1.337  19.321  1.00139.82     0.187 C 
HETATM   13  C19 MIQ B 502       3.516   2.305  19.762  1.00140.06     0.247 C 
HETATM   14  O25 MIQ B 502       2.903   2.892  18.943  1.00143.95    -0.271 OA
HETATM   15  N20 MIQ B 502       3.199   2.517  21.160  1.00140.02    -0.296 N 
HETATM   16  H13 MIQ B 502       2.480   3.156  21.435  1.00142.77     0.171 HD
HETATM   17  C21 MIQ B 502       3.968   1.797  22.142  1.00142.22     0.224 C 
HETATM   18  C22 MIQ B 502       5.422   1.529  21.806  1.00139.52     0.106 C 
HETATM   19  O24 MIQ B 502       3.485   1.429  23.156  1.00146.13    -0.273 OA
HETATM   20  C23 MIQ B 502       5.429   0.775  20.489  1.00139.15     0.045 C 
ENDBRANCH  10  12
BRANCH   5  21
HETATM   21  N6  MIQ B 502       9.175   6.053  15.563  1.00140.95    -0.377 N 
HETATM   22  C7  MIQ B 502       8.595   7.374  15.731  1.00142.12     0.149 C 
HETATM   23  C8  MIQ B 502       9.249   8.403  14.817  1.00144.10     0.187 C 
HETATM   24  O9  MIQ B 502      10.643   8.355  14.855  1.00148.65    -0.388 OA
HETATM   25  C10 MIQ B 502      11.298   7.301  15.497  1.00147.44     0.187 C 
HETATM   26  C11 MIQ B 502      10.622   5.934  15.529  1.00144.08     0.149 C 
ENDBRANCH   5  21
TORSDOF 2
ENDMDL
MODEL 3
REMARK VINA RESULT:      -6.3      1.949      8.477
REMARK  2 active torsions:
REMARK  status: ('A' for Active; 'I' for Inactive)
REMARK    1  A    between atoms: C5_5  and  N6_21 
REMARK    2  A    between atoms: C18_14  and  N17_19 
ROOT
HETATM    1  O1  MIQ B 502       5.519   3.267  15.224  1.00142.91    -0.171 OA
HETATM    2  C2  MIQ B 502       6.192   3.148  16.441  1.00141.17     0.195 A 
HETATM    3  C3  MIQ B 502       7.372   4.046  16.934  1.00141.71     0.035 A 
HETATM    4  C4  MIQ B 502       8.091   5.200  16.343  1.00142.86     0.046 A 
HETATM    5  C5  MIQ B 502       9.148   5.825  17.051  1.00139.53     0.031 A 
HETATM    6  C12 MIQ B 502       9.528   5.331  18.367  1.00139.38     0.030 A 
HETATM    7  C13 MIQ B 502       8.838   4.225  18.934  1.00141.18     0.019 A 
HETATM    8  C14 MIQ B 502       7.728   3.574  18.187  1.00138.77     0.033 A 
HETATM    9  C15 MIQ B 502       6.763   2.377  18.474  1.00142.10     0.195 A 
HETATM   10  N17 MIQ B 502       5.979   2.278  17.413  1.00139.42    -0.288 N 
HETATM   11  O16 MIQ B 502       6.741   1.578  19.618  1.00148.93    -0.171 OA
ENDROOT
BRANCH  10  12
HETATM   12  C18 MIQ B 502       4.957   1.252  17.320  1.00139.82     0.187 C 
HETATM   13  C19 MIQ B 502       4.108   1.321  18.596  1.00140.06     0.247 C 
HETATM   14  O25 MIQ B 502       3.661   2.359  18.934  1.00143.95    -0.271 OA
HETATM   15  N20 MIQ B 502       3.834   0.145  19.395  1.00140.02    -0.296 N 
HETATM   16  H13 MIQ B 502       3.283   0.205  20.229  1.00142.77     0.171 HD
HETATM   17  C21 MIQ B 502       4.399  -1.108  18.967  1.00142.22     0.224 C 
HETATM   18  C22 MIQ B 502       5.753  -1.048  18.287  1.00139.52     0.106 C 
HETATM   19  O24 MIQ B 502       3.832  -2.131  19.134  1.00146.13    -0.273 OA
HETATM   20  C23 MIQ B 502       5.597  -0.117  17.098  1.00139.15     0.045 C 
ENDBRANCH  10  12
BRANCH   5  21
HETATM   21  N6  MIQ B 502       9.852   6.944  16.454  1.00140.95    -0.377 N 
HETATM   22  C7  MIQ B 502       9.132   7.808  15.534  1.00142.12     0.149 C 
HETATM   23  C8  MIQ B 502      10.065   8.480  14.535  1.00144.10     0.187 C 
HETATM   24  O9  MIQ B 502      11.186   9.054  15.139  1.00148.65    -0.388 OA
HETATM   25  C10 MIQ B 502      11.475   8.797  16.481  1.00147.44     0.187 C 
HETATM   26  C11 MIQ B 502      11.064   7.452  17.072  1.00144.08     0.149 C 
ENDBRANCH   5  21
TORSDOF 2
ENDMDL
MODEL 4
REMARK VINA RESULT:      -6.1     25.597     28.614
REMARK  2 active torsions:
REMARK  status: ('A' for Active; 'I' for Inactive)
REMARK    1  A    between atoms: C5_5  and  N6_21 
REMARK    2  A    between atoms: C18_14  and  N17_19 
ROOT
HETATM    1  O1  MIQ B 502      11.058 -18.022   5.814  1.00142.91    -0.171 OA
HETATM    2  C2  MIQ B 502      10.841 -19.248   6.448  1.00141.17     0.195 A 
HETATM    3  C3  MIQ B 502      10.602 -20.621   5.742  1.00141.71     0.035 A 
HETATM    4  C4  MIQ B 502      10.537 -21.039   4.322  1.00142.86     0.046 A 
HETATM    5  C5  MIQ B 502      10.300 -22.396   3.984  1.00139.53     0.031 A 
HETATM    6  C12 MIQ B 502      10.122 -23.382   5.040  1.00139.38     0.030 A 
HETATM    7  C13 MIQ B 502      10.185 -22.982   6.402  1.00141.18     0.019 A 
HETATM    8  C14 MIQ B 502      10.436 -21.557   6.750  1.00138.77     0.033 A 
HETATM    9  C15 MIQ B 502      10.573 -20.760   8.089  1.00142.10     0.195 A 
HETATM   10  N17 MIQ B 502      10.797 -19.503   7.744  1.00139.42    -0.288 N 
HETATM   11  O16 MIQ B 502      10.476 -21.276   9.382  1.00148.93    -0.171 OA
ENDROOT
BRANCH  10  12
HETATM   12  C18 MIQ B 502      10.962 -18.462   8.742  1.00139.82     0.187 C 
HETATM   13  C19 MIQ B 502      12.113 -18.878   9.666  1.00140.06     0.247 C 
HETATM   14  O25 MIQ B 502      13.144 -19.201   9.192  1.00143.95    -0.271 OA
HETATM   15  N20 MIQ B 502      11.972 -18.880  11.107  1.00140.02    -0.296 N 
HETATM   16  H13 MIQ B 502      12.729 -19.160  11.699  1.00142.77     0.171 HD
HETATM   17  C21 MIQ B 502      10.701 -18.492  11.662  1.00142.22     0.224 C 
HETATM   18  C22 MIQ B 502       9.468 -18.853  10.856  1.00139.52     0.106 C 
HETATM   19  O24 MIQ B 502      10.626 -17.915  12.691  1.00146.13    -0.273 OA
HETATM   20  C23 MIQ B 502       9.648 -18.226   9.486  1.00139.15     0.045 C 
ENDBRANCH  10  12
BRANCH   5  21
HETATM   21  N6  MIQ B 502      10.224 -22.789   2.589  1.00140.95    -0.377 N 
HETATM   22  C7  MIQ B 502      11.455 -22.865   1.821  1.00142.12     0.149 C 
HETATM   23  C8  MIQ B 502      11.211 -22.643   0.333  1.00144.10     0.187 C 
HETATM   24  O9  MIQ B 502      10.150 -23.403  -0.163  1.00148.65    -0.388 OA
HETATM   25  C10 MIQ B 502       9.300 -24.087   0.711  1.00147.44     0.187 C 
HETATM   26  C11 MIQ B 502       9.059 -23.504   2.099  1.00144.08     0.149 C 
ENDBRANCH   5  21
TORSDOF 2
ENDMDL
MODEL 5
REMARK VINA RESULT:      -6.0      3.818      9.857
REMARK  2 active torsions:
REMARK  status: ('A' for Active; 'I' for Inactive)
REMARK    1  A    between atoms: C5_5  and  N6_21 
REMARK    2  A    between atoms: C18_14  and  N17_19 
ROOT
HETATM    1  O1  MIQ B 502       7.357  -2.752  18.367  1.00142.91    -0.171 OA
HETATM    2  C2  MIQ B 502       6.187  -2.067  18.703  1.00141.17     0.195 A 
HETATM    3  C3  MIQ B 502       5.887  -0.560  18.421  1.00141.71     0.035 A 
HETATM    4  C4  MIQ B 502       6.657   0.527  17.771  1.00142.86     0.046 A 
HETATM    5  C5  MIQ B 502       6.104   1.828  17.659  1.00139.53     0.031 A 
HETATM    6  C12 MIQ B 502       4.772   2.095  18.184  1.00139.38     0.030 A 
HETATM    7  C13 MIQ B 502       4.034   1.052  18.805  1.00141.18     0.019 A 
HETATM    8  C14 MIQ B 502       4.618  -0.312  18.918  1.00138.77     0.033 A 
HETATM    9  C15 MIQ B 502       4.127  -1.672  19.512  1.00142.10     0.195 A 
HETATM   10  N17 MIQ B 502       5.109  -2.535  19.309  1.00139.42    -0.288 N 
HETATM   11  O16 MIQ B 502       2.901  -1.919  20.133  1.00148.93    -0.171 OA
ENDROOT
BRANCH  10  12
HETATM   12  C18 MIQ B 502       5.009  -3.914  19.751  1.00139.82     0.187 C 
HETATM   13  C19 MIQ B 502       6.276  -4.242  20.550  1.00140.06     0.247 C 
HETATM   14  O25 MIQ B 502       6.608  -3.522  21.424  1.00143.95    -0.271 OA
HETATM   15  N20 MIQ B 502       7.076  -5.416  20.266  1.00140.02    -0.296 N 
HETATM   16  H13 MIQ B 502       7.905  -5.615  20.791  1.00142.77     0.171 HD
HETATM   17  C21 MIQ B 502       6.656  -6.273  19.187  1.00142.22     0.224 C 
HETATM   18  C22 MIQ B 502       5.988  -5.601  18.003  1.00139.52     0.106 C 
HETATM   19  O24 MIQ B 502       6.821  -7.442  19.228  1.00146.13    -0.273 OA
HETATM   20  C23 MIQ B 502       4.796  -4.841  18.555  1.00139.15     0.045 C 
ENDBRANCH  10  12
BRANCH   5  21
HETATM   21  N6  MIQ B 502       6.875   2.888  17.034  1.00140.95    -0.377 N 
HETATM   22  C7  MIQ B 502       6.799   3.043  15.592  1.00142.12     0.149 C 
HETATM   23  C8  MIQ B 502       8.057   3.686  15.022  1.00144.10     0.187 C 
HETATM   24  O9  MIQ B 502       8.451   4.826  15.726  1.00148.65    -0.388 OA
HETATM   25  C10 MIQ B 502       7.851   5.147  16.946  1.00147.44     0.187 C 
HETATM   26  C11 MIQ B 502       7.337   4.013  17.827  1.00144.08     0.149 C 
ENDBRANCH   5  21
TORSDOF 2
ENDMDL
MODEL 6
REMARK VINA RESULT:      -6.0      5.974     11.941
REMARK  2 active torsions:
REMARK  status: ('A' for Active; 'I' for Inactive)
REMARK    1  A    between atoms: C5_5  and  N6_21 
REMARK    2  A    between atoms: C18_14  and  N17_19 
ROOT
HETATM    1  O1  MIQ B 502       4.395  -5.528  18.364  1.00142.91    -0.171 OA
HETATM    2  C2  MIQ B 502       5.509  -5.109  19.096  1.00141.17     0.195 A 
HETATM    3  C3  MIQ B 502       6.015  -3.638  19.242  1.00141.71     0.035 A 
HETATM    4  C4  MIQ B 502       5.536  -2.338  18.715  1.00142.86     0.046 A 
HETATM    5  C5  MIQ B 502       6.224  -1.140  19.031  1.00139.53     0.031 A 
HETATM    6  C12 MIQ B 502       7.407  -1.187  19.879  1.00139.38     0.030 A 
HETATM    7  C13 MIQ B 502       7.866  -2.433  20.385  1.00141.18     0.019 A 
HETATM    8  C14 MIQ B 502       7.138  -3.688  20.052  1.00138.77     0.033 A 
HETATM    9  C15 MIQ B 502       7.330  -5.198  20.410  1.00142.10     0.195 A 
HETATM   10  N17 MIQ B 502       6.346  -5.844  19.806  1.00139.42    -0.288 N 
HETATM   11  O16 MIQ B 502       8.337  -5.747  21.205  1.00148.93    -0.171 OA
ENDROOT
BRANCH  10  12
HETATM   12  C18 MIQ B 502       6.215  -7.286  19.905  1.00139.82     0.187 C 
HETATM   13  C19 MIQ B 502       6.036  -7.838  18.486  1.00140.06     0.247 C 
HETATM   14  O25 MIQ B 502       6.800  -7.523  17.644  1.00143.95    -0.271 OA
HETATM   15  N20 MIQ B 502       4.956  -8.742  18.148  1.00140.02    -0.296 N 
HETATM   16  H13 MIQ B 502       4.846  -9.091  17.216  1.00142.77     0.171 HD
HETATM   17  C21 MIQ B 502       4.029  -9.105  19.190  1.00142.22     0.224 C 
HETATM   18  C22 MIQ B 502       3.730  -8.046  20.234  1.00139.52     0.106 C 
HETATM   19  O24 MIQ B 502       3.532 -10.176  19.229  1.00146.13    -0.273 OA
HETATM   20  C23 MIQ B 502       5.064  -7.652  20.842  1.00139.15     0.045 C 
ENDBRANCH  10  12
BRANCH   5  21
HETATM   21  N6  MIQ B 502       5.752   0.125  18.496  1.00140.95    -0.377 N 
HETATM   22  C7  MIQ B 502       5.770   0.320  17.057  1.00142.12     0.149 C 
HETATM   23  C8  MIQ B 502       5.885   1.792  16.684  1.00144.10     0.187 C 
HETATM   24  O9  MIQ B 502       4.989   2.602  17.385  1.00148.65    -0.388 OA
HETATM   25  C10 MIQ B 502       4.264   2.088  18.463  1.00147.44     0.187 C 
HETATM   26  C11 MIQ B 502       4.890   0.975  19.298  1.00144.08     0.149 C 
ENDBRANCH   5  21
TORSDOF 2
ENDMDL
MODEL 7
REMARK VINA RESULT:      -6.0      2.642      8.658
REMARK  2 active torsions:
REMARK  status: ('A' for Active; 'I' for Inactive)
REMARK    1  A    between atoms: C5_5  and  N6_21 
REMARK    2  A    between atoms: C18_14  and  N17_19 
ROOT
HETATM    1  O1  MIQ B 502       8.107   1.093  20.564  1.00142.91    -0.171 OA
HETATM    2  C2  MIQ B 502       7.434   1.102  19.340  1.00141.17     0.195 A 
HETATM    3  C3  MIQ B 502       7.406   2.277  18.312  1.00141.71     0.035 A 
HETATM    4  C4  MIQ B 502       8.017   3.627  18.290  1.00142.86     0.046 A 
HETATM    5  C5  MIQ B 502       7.805   4.492  17.187  1.00139.53     0.031 A 
HETATM    6  C12 MIQ B 502       6.983   4.051  16.070  1.00139.38     0.030 A 
HETATM    7  C13 MIQ B 502       6.398   2.756  16.090  1.00141.18     0.019 A 
HETATM    8  C14 MIQ B 502       6.626   1.851  17.249  1.00138.77     0.033 A 
HETATM    9  C15 MIQ B 502       6.168   0.403  17.620  1.00142.10     0.195 A 
HETATM   10  N17 MIQ B 502       6.703   0.142  18.801  1.00139.42    -0.288 N 
HETATM   11  O16 MIQ B 502       5.357  -0.439  16.856  1.00148.93    -0.171 OA
ENDROOT
BRANCH  10  12
HETATM   12  C18 MIQ B 502       6.475  -1.125  19.472  1.00139.82     0.187 C 
HETATM   13  C19 MIQ B 502       6.803  -2.246  18.479  1.00140.06     0.247 C 
HETATM   14  O25 MIQ B 502       7.837  -2.228  17.911  1.00143.95    -0.271 OA
HETATM   15  N20 MIQ B 502       5.880  -3.332  18.222  1.00140.02    -0.296 N 
HETATM   16  H13 MIQ B 502       6.103  -4.055  17.566  1.00142.77     0.171 HD
HETATM   17  C21 MIQ B 502       4.620  -3.327  18.919  1.00142.22     0.224 C 
HETATM   18  C22 MIQ B 502       4.010  -1.970  19.213  1.00139.52     0.106 C 
HETATM   19  O24 MIQ B 502       4.093  -4.331  19.251  1.00146.13    -0.273 OA
HETATM   20  C23 MIQ B 502       5.046  -1.194  20.007  1.00139.15     0.045 C 
ENDBRANCH  10  12
BRANCH   5  21
HETATM   21  N6  MIQ B 502       8.398   5.817  17.186  1.00140.95    -0.377 N 
HETATM   22  C7  MIQ B 502       7.937   6.784  16.204  1.00142.12     0.149 C 
HETATM   23  C8  MIQ B 502       9.006   7.820  15.880  1.00144.10     0.187 C 
HETATM   24  O9  MIQ B 502       9.598   8.365  17.022  1.00148.65    -0.388 OA
HETATM   25  C10 MIQ B 502       9.357   7.805  18.279  1.00147.44     0.187 C 
HETATM   26  C11 MIQ B 502       9.080   6.308  18.371  1.00144.08     0.149 C 
ENDBRANCH   5  21
TORSDOF 2
ENDMDL
MODEL 8
REMARK VINA RESULT:      -5.9     21.197     23.621
REMARK  2 active torsions:
REMARK  status: ('A' for Active; 'I' for Inactive)
REMARK    1  A    between atoms: C5_5  and  N6_21 
REMARK    2  A    between atoms: C18_14  and  N17_19 
ROOT
HETATM    1  O1  MIQ B 502      25.564   7.569   2.682  1.00142.91    -0.171 OA
HETATM    2  C2  MIQ B 502      24.694   6.586   2.204  1.00141.17     0.195 A 
HETATM    3  C3  MIQ B 502      24.973   5.050   2.161  1.00141.71     0.035 A 
HETATM    4  C4  MIQ B 502      26.124   4.211   2.571  1.00142.86     0.046 A 
HETATM    5  C5  MIQ B 502      26.081   2.804   2.404  1.00139.53     0.031 A 
HETATM    6  C12 MIQ B 502      24.899   2.181   1.826  1.00139.38     0.030 A 
HETATM    7  C13 MIQ B 502      23.795   2.984   1.434  1.00141.18     0.019 A 
HETATM    8  C14 MIQ B 502      23.845   4.461   1.614  1.00138.77     0.033 A 
HETATM    9  C15 MIQ B 502      22.859   5.638   1.317  1.00142.10     0.195 A 
HETATM   10  N17 MIQ B 502      23.481   6.740   1.703  1.00139.42    -0.288 N 
HETATM   11  O16 MIQ B 502      21.585   5.540   0.755  1.00148.93    -0.171 OA
ENDROOT
BRANCH  10  12
HETATM   12  C18 MIQ B 502      22.864   8.046   1.561  1.00139.82     0.187 C 
HETATM   13  C19 MIQ B 502      21.432   7.949   2.099  1.00140.06     0.247 C 
HETATM   14  O25 MIQ B 502      21.249   7.490   3.171  1.00143.95    -0.271 OA
HETATM   15  N20 MIQ B 502      20.294   8.410   1.331  1.00140.02    -0.296 N 
HETATM   16  H13 MIQ B 502      19.363   8.334   1.691  1.00142.77     0.171 HD
HETATM   17  C21 MIQ B 502      20.541   8.956   0.021  1.00142.22     0.224 C 
HETATM   18  C22 MIQ B 502      21.693   8.356  -0.761  1.00139.52     0.106 C 
HETATM   19  O24 MIQ B 502      19.881   9.833  -0.417  1.00146.13    -0.273 OA
HETATM   20  C23 MIQ B 502      22.930   8.510   0.106  1.00139.15     0.045 C 
ENDBRANCH  10  12
BRANCH   5  21
HETATM   21  N6  MIQ B 502      27.222   1.996   2.796  1.00140.95    -0.377 N 
HETATM   22  C7  MIQ B 502      28.367   1.933   1.905  1.00142.12     0.149 C 
HETATM   23  C8  MIQ B 502      29.151   0.637   2.077  1.00144.10     0.187 C 
HETATM   24  O9  MIQ B 502      29.417   0.337   3.414  1.00148.65    -0.388 OA
HETATM   25  C10 MIQ B 502      28.801   1.061   4.439  1.00147.44     0.187 C 
HETATM   26  C11 MIQ B 502      27.411   1.636   4.191  1.00144.08     0.149 C 
ENDBRANCH   5  21
TORSDOF 2
ENDMDL
MODEL 9
REMARK VINA RESULT:      -5.8      5.851     11.832
REMARK  2 active torsions:
REMARK  status: ('A' for Active; 'I' for Inactive)
REMARK    1  A    between atoms: C5_5  and  N6_21 
REMARK    2  A    between atoms: C18_14  and  N17_19 
ROOT
HETATM    1  O1  MIQ B 502       7.992  -4.745  20.930  1.00142.91    -0.171 OA
HETATM    2  C2  MIQ B 502       6.996  -4.603  19.962  1.00141.17     0.195 A 
HETATM    3  C3  MIQ B 502       6.608  -3.282  19.224  1.00141.71     0.035 A 
HETATM    4  C4  MIQ B 502       7.114  -1.890  19.293  1.00142.86     0.046 A 
HETATM    5  C5  MIQ B 502       6.547  -0.880  18.476  1.00139.53     0.031 A 
HETATM    6  C12 MIQ B 502       5.462  -1.213  17.564  1.00139.38     0.030 A 
HETATM    7  C13 MIQ B 502       4.977  -2.547  17.497  1.00141.18     0.019 A 
HETATM    8  C14 MIQ B 502       5.578  -3.604  18.355  1.00138.77     0.033 A 
HETATM    9  C15 MIQ B 502       5.326  -5.134  18.554  1.00142.10     0.195 A 
HETATM   10  N17 MIQ B 502       6.192  -5.531  19.472  1.00139.42    -0.288 N 
HETATM   11  O16 MIQ B 502       4.375  -5.916  17.896  1.00148.93    -0.171 OA
ENDROOT
BRANCH  10  12
HETATM   12  C18 MIQ B 502       6.236  -6.909  19.926  1.00139.82     0.187 C 
HETATM   13  C19 MIQ B 502       6.225  -7.810  18.685  1.00140.06     0.247 C 
HETATM   14  O25 MIQ B 502       6.999  -7.607  17.818  1.00143.95    -0.271 OA
HETATM   15  N20 MIQ B 502       5.292  -8.911  18.550  1.00140.02    -0.296 N 
HETATM   16  H13 MIQ B 502       5.291  -9.488  17.732  1.00142.77     0.171 HD
HETATM   17  C21 MIQ B 502       4.351  -9.132  19.616  1.00142.22     0.224 C 
HETATM   18  C22 MIQ B 502       3.851  -7.903  20.350  1.00139.52     0.106 C 
HETATM   19  O24 MIQ B 502       3.991 -10.220  19.907  1.00146.13    -0.273 OA
HETATM   20  C23 MIQ B 502       5.080  -7.190  20.884  1.00139.15     0.045 C 
ENDBRANCH  10  12
BRANCH   5  21
HETATM   21  N6  MIQ B 502       7.042   0.482  18.565  1.00140.95    -0.377 N 
HETATM   22  C7  MIQ B 502       6.397   1.509  17.765  1.00142.12     0.149 C 
HETATM   23  C8  MIQ B 502       7.343   2.659  17.447  1.00144.10     0.187 C 
HETATM   24  O9  MIQ B 502       8.033   3.122  18.568  1.00148.65    -0.388 OA
HETATM   25  C10 MIQ B 502       7.991   2.409  19.769  1.00147.44     0.187 C 
HETATM   26  C11 MIQ B 502       7.830   0.894  19.713  1.00144.08     0.149 C 
ENDBRANCH   5  21
TORSDOF 2
ENDMDL
