MODEL 1
REMARK VINA RESULT:      -8.5      0.000      0.000
REMARK  2 active torsions:
REMARK  status: ('A' for Active; 'I' for Inactive)
REMARK    1  A    between atoms: C5_5  and  N6_21 
REMARK    2  A    between atoms: C18_14  and  N17_19 
ROOT
HETATM    1  O1  MIQ B 502      -3.822  -3.891  -3.542  1.00142.91    -0.171 OA
HETATM    2  C2  MIQ B 502      -5.081  -4.418  -3.243  1.00141.17     0.195 A 
HETATM    3  C3  MIQ B 502      -5.478  -5.172  -1.934  1.00141.71     0.035 A 
HETATM    4  C4  MIQ B 502      -4.737  -5.537  -0.703  1.00142.86     0.046 A 
HETATM    5  C5  MIQ B 502      -5.387  -6.239   0.343  1.00139.53     0.031 A 
HETATM    6  C12 MIQ B 502      -6.790  -6.602   0.207  1.00139.38     0.030 A 
HETATM    7  C13 MIQ B 502      -7.501  -6.251  -0.972  1.00141.18     0.019 A 
HETATM    8  C14 MIQ B 502      -6.815  -5.512  -2.066  1.00138.77     0.033 A 
HETATM    9  C15 MIQ B 502      -7.249  -4.966  -3.466  1.00142.10     0.195 A 
HETATM   10  N17 MIQ B 502      -6.177  -4.389  -3.982  1.00139.42    -0.288 N 
HETATM   11  O16 MIQ B 502      -8.514  -5.072  -4.048  1.00148.93    -0.171 OA
ENDROOT
BRANCH  10  12
HETATM   12  C18 MIQ B 502      -6.205  -3.778  -5.297  1.00139.82     0.187 C 
HETATM   13  C19 MIQ B 502      -7.258  -2.663  -5.273  1.00140.06     0.247 C 
HETATM   14  O25 MIQ B 502      -7.222  -1.856  -4.413  1.00143.95    -0.271 OA
HETATM   15  N20 MIQ B 502      -8.294  -2.568  -6.281  1.00140.02    -0.296 N 
HETATM   16  H13 MIQ B 502      -8.979  -1.839  -6.250  1.00142.77     0.171 HD
HETATM   17  C21 MIQ B 502      -8.323  -3.571  -7.314  1.00142.22     0.224 C 
HETATM   18  C22 MIQ B 502      -7.880  -4.967  -6.921  1.00139.52     0.106 C 
HETATM   19  O24 MIQ B 502      -8.670  -3.315  -8.414  1.00146.13    -0.273 OA
HETATM   20  C23 MIQ B 502      -6.473  -4.834  -6.369  1.00139.15     0.045 C 
ENDBRANCH  10  12
BRANCH   5  21
HETATM   21  N6  MIQ B 502      -4.645  -6.604   1.536  1.00140.95    -0.377 N 
HETATM   22  C7  MIQ B 502      -5.386  -6.949   2.737  1.00142.12     0.149 C 
HETATM   23  C8  MIQ B 502      -4.580  -6.677   4.001  1.00144.10     0.187 C 
HETATM   24  O9  MIQ B 502      -3.280  -7.183   3.936  1.00148.65    -0.388 OA
HETATM   25  C10 MIQ B 502      -2.767  -7.663   2.728  1.00147.44     0.187 C 
HETATM   26  C11 MIQ B 502      -3.265  -7.043   1.426  1.00144.08     0.149 C 
ENDBRANCH   5  21
TORSDOF 2
ENDMDL
MODEL 2
REMARK VINA RESULT:      -7.8      1.733      2.394
REMARK  2 active torsions:
REMARK  status: ('A' for Active; 'I' for Inactive)
REMARK    1  A    between atoms: C5_5  and  N6_21 
REMARK    2  A    between atoms: C18_14  and  N17_19 
ROOT
HETATM    1  O1  MIQ B 502      -6.434  -7.298  -4.643  1.00142.91    -0.171 OA
HETATM    2  C2  MIQ B 502      -6.656  -5.967  -4.282  1.00141.17     0.195 A 
HETATM    3  C3  MIQ B 502      -6.535  -5.370  -2.844  1.00141.71     0.035 A 
HETATM    4  C4  MIQ B 502      -6.180  -5.949  -1.526  1.00142.86     0.046 A 
HETATM    5  C5  MIQ B 502      -6.153  -5.132  -0.368  1.00139.53     0.031 A 
HETATM    6  C12 MIQ B 502      -6.476  -3.716  -0.475  1.00139.38     0.030 A 
HETATM    7  C13 MIQ B 502      -6.814  -3.160  -1.738  1.00141.18     0.019 A 
HETATM    8  C14 MIQ B 502      -6.838  -4.022  -2.951  1.00138.77     0.033 A 
HETATM    9  C15 MIQ B 502      -7.149  -3.782  -4.464  1.00142.10     0.195 A 
HETATM   10  N17 MIQ B 502      -7.000  -4.954  -5.058  1.00139.42    -0.288 N 
HETATM   11  O16 MIQ B 502      -7.513  -2.573  -5.061  1.00148.93    -0.171 OA
ENDROOT
BRANCH  10  12
HETATM   12  C18 MIQ B 502      -7.227  -5.115  -6.483  1.00139.82     0.187 C 
HETATM   13  C19 MIQ B 502      -6.346  -4.095  -7.215  1.00140.06     0.247 C 
HETATM   14  O25 MIQ B 502      -5.197  -4.035  -6.955  1.00143.95    -0.271 OA
HETATM   15  N20 MIQ B 502      -6.885  -3.204  -8.222  1.00140.02    -0.296 N 
HETATM   16  H13 MIQ B 502      -6.301  -2.538  -8.688  1.00142.77     0.171 HD
HETATM   17  C21 MIQ B 502      -8.293  -3.289  -8.513  1.00142.22     0.224 C 
HETATM   18  C22 MIQ B 502      -9.208  -3.644  -7.357  1.00139.52     0.106 C 
HETATM   19  O24 MIQ B 502      -8.711  -3.098  -9.602  1.00146.13    -0.273 OA
HETATM   20  C23 MIQ B 502      -8.713  -4.968  -6.805  1.00139.15     0.045 C 
ENDBRANCH  10  12
BRANCH   5  21
HETATM   21  N6  MIQ B 502      -5.819  -5.716   0.918  1.00140.95    -0.377 N 
HETATM   22  C7  MIQ B 502      -5.771  -7.163   1.033  1.00142.12     0.149 C 
HETATM   23  C8  MIQ B 502      -6.055  -7.631   2.455  1.00144.10     0.187 C 
HETATM   24  O9  MIQ B 502      -5.320  -6.932   3.414  1.00148.65    -0.388 OA
HETATM   25  C10 MIQ B 502      -4.603  -5.786   3.059  1.00147.44     0.187 C 
HETATM   26  C11 MIQ B 502      -5.128  -4.921   1.919  1.00144.08     0.149 C 
ENDBRANCH   5  21
TORSDOF 2
ENDMDL
MODEL 3
REMARK VINA RESULT:      -7.8     27.512     28.871
REMARK  2 active torsions:
REMARK  status: ('A' for Active; 'I' for Inactive)
REMARK    1  A    between atoms: C5_5  and  N6_21 
REMARK    2  A    between atoms: C18_14  and  N17_19 
ROOT
HETATM    1  O1  MIQ B 502      10.519 -12.276  19.796  1.00142.91    -0.171 OA
HETATM    2  C2  MIQ B 502      10.603 -13.540  19.209  1.00141.17     0.195 A 
HETATM    3  C3  MIQ B 502       9.464 -14.607  19.148  1.00141.71     0.035 A 
HETATM    4  C4  MIQ B 502       8.065 -14.632  19.635  1.00142.86     0.046 A 
HETATM    5  C5  MIQ B 502       7.252 -15.775  19.423  1.00139.53     0.031 A 
HETATM    6  C12 MIQ B 502       7.797 -16.928  18.722  1.00139.38     0.030 A 
HETATM    7  C13 MIQ B 502       9.138 -16.904  18.254  1.00141.18     0.019 A 
HETATM    8  C14 MIQ B 502       9.986 -15.701  18.477  1.00138.77     0.033 A 
HETATM    9  C15 MIQ B 502      11.457 -15.311  18.119  1.00142.10     0.195 A 
HETATM   10  N17 MIQ B 502      11.636 -14.089  18.592  1.00139.42    -0.288 N 
HETATM   11  O16 MIQ B 502      12.389 -16.099  17.441  1.00148.93    -0.171 OA
ENDROOT
BRANCH  10  12
HETATM   12  C18 MIQ B 502      12.907 -13.402  18.454  1.00139.82     0.187 C 
HETATM   13  C19 MIQ B 502      13.308 -12.878  19.838  1.00140.06     0.247 C 
HETATM   14  O25 MIQ B 502      13.304 -13.618  20.757  1.00143.95    -0.271 OA
HETATM   15  N20 MIQ B 502      13.697 -11.499  20.050  1.00140.02    -0.296 N 
HETATM   16  H13 MIQ B 502      13.950 -11.168  20.960  1.00142.77     0.171 HD
HETATM   17  C21 MIQ B 502      13.684 -10.613  18.914  1.00142.22     0.224 C 
HETATM   18  C22 MIQ B 502      12.619 -10.867  17.864  1.00139.52     0.106 C 
HETATM   19  O24 MIQ B 502      14.468  -9.735  18.806  1.00146.13    -0.273 OA
HETATM   20  C23 MIQ B 502      12.805 -12.300  17.401  1.00139.15     0.045 C 
ENDBRANCH  10  12
BRANCH   5  21
HETATM   21  N6  MIQ B 502       5.888 -15.791  19.919  1.00140.95    -0.377 N 
HETATM   22  C7  MIQ B 502       5.277 -17.072  20.228  1.00142.12     0.149 C 
HETATM   23  C8  MIQ B 502       3.759 -17.024  20.102  1.00144.10     0.187 C 
HETATM   24  O9  MIQ B 502       3.195 -15.922  20.748  1.00148.65    -0.388 OA
HETATM   25  C10 MIQ B 502       4.008 -14.893  21.232  1.00147.44     0.187 C 
HETATM   26  C11 MIQ B 502       5.315 -14.593  20.506  1.00144.08     0.149 C 
ENDBRANCH   5  21
TORSDOF 2
ENDMDL
MODEL 4
REMARK VINA RESULT:      -7.7     27.173     29.181
REMARK  2 active torsions:
REMARK  status: ('A' for Active; 'I' for Inactive)
REMARK    1  A    between atoms: C5_5  and  N6_21 
REMARK    2  A    between atoms: C18_14  and  N17_19 
ROOT
HETATM    1  O1  MIQ B 502      14.045 -15.253  15.745  1.00142.91    -0.171 OA
HETATM    2  C2  MIQ B 502      12.911 -15.350  16.554  1.00141.17     0.195 A 
HETATM    3  C3  MIQ B 502      12.117 -16.656  16.876  1.00141.71     0.035 A 
HETATM    4  C4  MIQ B 502      12.283 -18.074  16.479  1.00142.86     0.046 A 
HETATM    5  C5  MIQ B 502      11.378 -19.060  16.946  1.00139.53     0.031 A 
HETATM    6  C12 MIQ B 502      10.280 -18.676  17.822  1.00139.38     0.030 A 
HETATM    7  C13 MIQ B 502      10.121 -17.317  18.204  1.00141.18     0.019 A 
HETATM    8  C14 MIQ B 502      11.076 -16.287  17.713  1.00138.77     0.033 A 
HETATM    9  C15 MIQ B 502      11.225 -14.743  17.911  1.00142.10     0.195 A 
HETATM   10  N17 MIQ B 502      12.287 -14.385  17.208  1.00139.42    -0.288 N 
HETATM   11  O16 MIQ B 502      10.400 -13.915  18.674  1.00148.93    -0.171 OA
ENDROOT
BRANCH  10  12
HETATM   12  C18 MIQ B 502      12.723 -13.003  17.145  1.00139.82     0.187 C 
HETATM   13  C19 MIQ B 502      12.925 -12.510  18.583  1.00140.06     0.247 C 
HETATM   14  O25 MIQ B 502      13.587 -13.147  19.323  1.00143.95    -0.271 OA
HETATM   15  N20 MIQ B 502      12.329 -11.278  19.059  1.00140.02    -0.296 N 
HETATM   16  H13 MIQ B 502      12.463 -10.971  20.002  1.00142.77     0.171 HD
HETATM   17  C21 MIQ B 502      11.517 -10.523  18.140  1.00142.22     0.224 C 
HETATM   18  C22 MIQ B 502      10.719 -11.318  17.124  1.00139.52     0.106 C 
HETATM   19  O24 MIQ B 502      11.480  -9.342  18.175  1.00146.13    -0.273 OA
HETATM   20  C23 MIQ B 502      11.718 -12.164  16.357  1.00139.15     0.045 C 
ENDBRANCH  10  12
BRANCH   5  21
HETATM   21  N6  MIQ B 502      11.543 -20.443  16.537  1.00140.95    -0.377 N 
HETATM   22  C7  MIQ B 502      11.040 -20.847  15.235  1.00142.12     0.149 C 
HETATM   23  C8  MIQ B 502      10.689 -22.329  15.196  1.00144.10     0.187 C 
HETATM   24  O9  MIQ B 502      11.695 -23.140  15.725  1.00148.65    -0.388 OA
HETATM   25  C10 MIQ B 502      12.772 -22.574  16.412  1.00147.44     0.187 C 
HETATM   26  C11 MIQ B 502      12.548 -21.274  17.177  1.00144.08     0.149 C 
ENDBRANCH   5  21
TORSDOF 2
ENDMDL
MODEL 5
REMARK VINA RESULT:      -7.7      1.840      2.547
REMARK  2 active torsions:
REMARK  status: ('A' for Active; 'I' for Inactive)
REMARK    1  A    between atoms: C5_5  and  N6_21 
REMARK    2  A    between atoms: C18_14  and  N17_19 
ROOT
HETATM    1  O1  MIQ B 502      -3.972  -5.416  -3.699  1.00142.91    -0.171 OA
HETATM    2  C2  MIQ B 502      -5.265  -5.561  -3.193  1.00141.17     0.195 A 
HETATM    3  C3  MIQ B 502      -5.645  -5.952  -1.729  1.00141.71     0.035 A 
HETATM    4  C4  MIQ B 502      -4.848  -6.264  -0.519  1.00142.86     0.046 A 
HETATM    5  C5  MIQ B 502      -5.495  -6.592   0.700  1.00139.53     0.031 A 
HETATM    6  C12 MIQ B 502      -6.949  -6.621   0.761  1.00139.38     0.030 A 
HETATM    7  C13 MIQ B 502      -7.713  -6.321  -0.399  1.00141.18     0.019 A 
HETATM    8  C14 MIQ B 502      -7.029  -5.975  -1.675  1.00138.77     0.033 A 
HETATM    9  C15 MIQ B 502      -7.511  -5.595  -3.113  1.00142.10     0.195 A 
HETATM   10  N17 MIQ B 502      -6.415  -5.396  -3.825  1.00139.42    -0.288 N 
HETATM   11  O16 MIQ B 502      -8.833  -5.491  -3.551  1.00148.93    -0.171 OA
ENDROOT
BRANCH  10  12
HETATM   12  C18 MIQ B 502      -6.479  -5.038  -5.230  1.00139.82     0.187 C 
HETATM   13  C19 MIQ B 502      -5.780  -6.146  -6.027  1.00140.06     0.247 C 
HETATM   14  O25 MIQ B 502      -6.089  -7.270  -5.845  1.00143.95    -0.271 OA
HETATM   15  N20 MIQ B 502      -4.752  -5.852  -7.005  1.00140.02    -0.296 N 
HETATM   16  H13 MIQ B 502      -4.299  -6.585  -7.514  1.00142.77     0.171 HD
HETATM   17  C21 MIQ B 502      -4.385  -4.473  -7.203  1.00142.22     0.224 C 
HETATM   18  C22 MIQ B 502      -4.446  -3.571  -5.985  1.00139.52     0.106 C 
HETATM   19  O24 MIQ B 502      -4.057  -4.067  -8.263  1.00146.13    -0.273 OA
HETATM   20  C23 MIQ B 502      -5.865  -3.657  -5.455  1.00139.15     0.045 C 
ENDBRANCH  10  12
BRANCH   5  21
HETATM   21  N6  MIQ B 502      -4.702  -6.909   1.874  1.00140.95    -0.377 N 
HETATM   22  C7  MIQ B 502      -3.264  -7.047   1.724  1.00142.12     0.149 C 
HETATM   23  C8  MIQ B 502      -2.667  -7.966   2.782  1.00144.10     0.187 C 
HETATM   24  O9  MIQ B 502      -3.107  -7.667   4.073  1.00148.65    -0.388 OA
HETATM   25  C10 MIQ B 502      -4.158  -6.768   4.272  1.00147.44     0.187 C 
HETATM   26  C11 MIQ B 502      -5.238  -6.660   3.200  1.00144.08     0.149 C 
ENDBRANCH   5  21
TORSDOF 2
ENDMDL
MODEL 6
REMARK VINA RESULT:      -7.6     21.151     22.606
REMARK  2 active torsions:
REMARK  status: ('A' for Active; 'I' for Inactive)
REMARK    1  A    between atoms: C5_5  and  N6_21 
REMARK    2  A    between atoms: C18_14  and  N17_19 
ROOT
HETATM    1  O1  MIQ B 502      14.028  -9.874  10.920  1.00142.91    -0.171 OA
HETATM    2  C2  MIQ B 502      12.959  -9.037  10.591  1.00141.17     0.195 A 
HETATM    3  C3  MIQ B 502      11.671  -8.808  11.444  1.00141.71     0.035 A 
HETATM    4  C4  MIQ B 502      11.203  -9.340  12.746  1.00142.86     0.046 A 
HETATM    5  C5  MIQ B 502       9.954  -8.934  13.279  1.00139.53     0.031 A 
HETATM    6  C12 MIQ B 502       9.127  -7.988  12.542  1.00139.38     0.030 A 
HETATM    7  C13 MIQ B 502       9.576  -7.477  11.295  1.00141.18     0.019 A 
HETATM    8  C14 MIQ B 502      10.890  -7.906  10.741  1.00138.77     0.033 A 
HETATM    9  C15 MIQ B 502      11.698  -7.572   9.445  1.00142.10     0.195 A 
HETATM   10  N17 MIQ B 502      12.815  -8.276   9.520  1.00139.42    -0.288 N 
HETATM   11  O16 MIQ B 502      11.313  -6.707   8.419  1.00148.93    -0.171 OA
ENDROOT
BRANCH  10  12
HETATM   12  C18 MIQ B 502      13.813  -8.228   8.467  1.00139.82     0.187 C 
HETATM   13  C19 MIQ B 502      14.165  -6.755   8.224  1.00140.06     0.247 C 
HETATM   14  O25 MIQ B 502      14.459  -6.074   9.142  1.00143.95    -0.271 OA
HETATM   15  N20 MIQ B 502      14.153  -6.175   6.897  1.00140.02    -0.296 N 
HETATM   16  H13 MIQ B 502      14.378  -5.211   6.753  1.00142.77     0.171 HD
HETATM   17  C21 MIQ B 502      13.780  -7.024   5.794  1.00142.22     0.224 C 
HETATM   18  C22 MIQ B 502      12.747  -8.097   6.079  1.00139.52     0.106 C 
HETATM   19  O24 MIQ B 502      14.261  -6.891   4.723  1.00146.13    -0.273 OA
HETATM   20  C23 MIQ B 502      13.300  -8.938   7.215  1.00139.15     0.045 C 
ENDBRANCH  10  12
BRANCH   5  21
HETATM   21  N6  MIQ B 502       9.501  -9.474  14.548  1.00140.95    -0.377 N 
HETATM   22  C7  MIQ B 502      10.379 -10.378  15.270  1.00142.12     0.149 C 
HETATM   23  C8  MIQ B 502       9.600 -11.331  16.168  1.00144.10     0.187 C 
HETATM   24  O9  MIQ B 502       8.640 -10.681  16.947  1.00148.65    -0.388 OA
HETATM   25  C10 MIQ B 502       8.322  -9.342  16.706  1.00147.44     0.187 C 
HETATM   26  C11 MIQ B 502       8.439  -8.809  15.282  1.00144.08     0.149 C 
ENDBRANCH   5  21
TORSDOF 2
ENDMDL
MODEL 7
REMARK VINA RESULT:      -7.5     25.428     28.316
REMARK  2 active torsions:
REMARK  status: ('A' for Active; 'I' for Inactive)
REMARK    1  A    between atoms: C5_5  and  N6_21 
REMARK    2  A    between atoms: C18_14  and  N17_19 
ROOT
HETATM    1  O1  MIQ B 502       7.787 -16.225  18.130  1.00142.91    -0.171 OA
HETATM    2  C2  MIQ B 502       9.062 -15.842  17.706  1.00141.17     0.195 A 
HETATM    3  C3  MIQ B 502      10.205 -16.799  17.240  1.00141.71     0.035 A 
HETATM    4  C4  MIQ B 502      10.309 -18.271  17.102  1.00142.86     0.046 A 
HETATM    5  C5  MIQ B 502      11.510 -18.865  16.639  1.00139.53     0.031 A 
HETATM    6  C12 MIQ B 502      12.647 -18.022  16.296  1.00139.38     0.030 A 
HETATM    7  C13 MIQ B 502      12.547 -16.611  16.426  1.00141.18     0.019 A 
HETATM    8  C14 MIQ B 502      11.282 -15.993  16.911  1.00138.77     0.033 A 
HETATM    9  C15 MIQ B 502      10.805 -14.527  17.174  1.00142.10     0.195 A 
HETATM   10  N17 MIQ B 502       9.558 -14.621  17.606  1.00139.42    -0.288 N 
HETATM   11  O16 MIQ B 502      11.549 -13.361  16.991  1.00148.93    -0.171 OA
ENDROOT
BRANCH  10  12
HETATM   12  C18 MIQ B 502       8.792 -13.444  17.968  1.00139.82     0.187 C 
HETATM   13  C19 MIQ B 502       8.764 -12.511  16.751  1.00140.06     0.247 C 
HETATM   14  O25 MIQ B 502       8.438 -12.942  15.703  1.00143.95    -0.271 OA
HETATM   15  N20 MIQ B 502       9.120 -11.111  16.854  1.00140.02    -0.296 N 
HETATM   16  H13 MIQ B 502       9.104 -10.514  16.051  1.00142.77     0.171 HD
HETATM   17  C21 MIQ B 502       9.524 -10.610  18.143  1.00142.22     0.224 C 
HETATM   18  C22 MIQ B 502      10.276 -11.572  19.042  1.00139.52     0.106 C 
HETATM   19  O24 MIQ B 502       9.275  -9.506  18.482  1.00146.13    -0.273 OA
HETATM   20  C23 MIQ B 502       9.383 -12.788  19.215  1.00139.15     0.045 C 
ENDBRANCH  10  12
BRANCH   5  21
HETATM   21  N6  MIQ B 502      11.603 -20.309  16.524  1.00140.95    -0.377 N 
HETATM   22  C7  MIQ B 502      11.128 -20.940  15.305  1.00142.12     0.149 C 
HETATM   23  C8  MIQ B 502      10.684 -22.378  15.545  1.00144.10     0.187 C 
HETATM   24  O9  MIQ B 502      11.614 -23.118  16.277  1.00148.65    -0.388 OA
HETATM   25  C10 MIQ B 502      12.697 -22.485  16.892  1.00147.44     0.187 C 
HETATM   26  C11 MIQ B 502      12.526 -21.046  17.369  1.00144.08     0.149 C 
ENDBRANCH   5  21
TORSDOF 2
ENDMDL
MODEL 8
REMARK VINA RESULT:      -7.4      1.746      2.544
REMARK  2 active torsions:
REMARK  status: ('A' for Active; 'I' for Inactive)
REMARK    1  A    between atoms: C5_5  and  N6_21 
REMARK    2  A    between atoms: C18_14  and  N17_19 
ROOT
HETATM    1  O1  MIQ B 502      -5.169  -5.846  -3.506  1.00142.91    -0.171 OA
HETATM    2  C2  MIQ B 502      -5.646  -5.087  -2.435  1.00141.17     0.195 A 
HETATM    3  C3  MIQ B 502      -5.304  -5.305  -0.926  1.00141.71     0.035 A 
HETATM    4  C4  MIQ B 502      -4.450  -6.278  -0.205  1.00142.86     0.046 A 
HETATM    5  C5  MIQ B 502      -4.334  -6.222   1.207  1.00139.53     0.031 A 
HETATM    6  C12 MIQ B 502      -5.057  -5.201   1.951  1.00139.38     0.030 A 
HETATM    7  C13 MIQ B 502      -5.875  -4.267   1.260  1.00141.18     0.019 A 
HETATM    8  C14 MIQ B 502      -5.992  -4.330  -0.223  1.00138.77     0.033 A 
HETATM    9  C15 MIQ B 502      -6.765  -3.502  -1.300  1.00142.10     0.195 A 
HETATM   10  N17 MIQ B 502      -6.463  -4.049  -2.467  1.00139.42    -0.288 N 
HETATM   11  O16 MIQ B 502      -7.604  -2.410  -1.072  1.00148.93    -0.171 OA
ENDROOT
BRANCH  10  12
HETATM   12  C18 MIQ B 502      -7.021  -3.543  -3.707  1.00139.82     0.187 C 
HETATM   13  C19 MIQ B 502      -7.728  -4.707  -4.411  1.00140.06     0.247 C 
HETATM   14  O25 MIQ B 502      -8.509  -5.355  -3.809  1.00143.95    -0.271 OA
HETATM   15  N20 MIQ B 502      -7.469  -5.031  -5.799  1.00140.02    -0.296 N 
HETATM   16  H13 MIQ B 502      -7.932  -5.798  -6.245  1.00142.77     0.171 HD
HETATM   17  C21 MIQ B 502      -6.504  -4.232  -6.509  1.00142.22     0.224 C 
HETATM   18  C22 MIQ B 502      -5.334  -3.701  -5.704  1.00139.52     0.106 C 
HETATM   19  O24 MIQ B 502      -6.623  -3.999  -7.662  1.00146.13    -0.273 OA
HETATM   20  C23 MIQ B 502      -5.927  -2.900  -4.559  1.00139.15     0.045 C 
ENDBRANCH  10  12
BRANCH   5  21
HETATM   21  N6  MIQ B 502      -3.506  -7.191   1.901  1.00140.95    -0.377 N 
HETATM   22  C7  MIQ B 502      -2.409  -7.812   1.179  1.00142.12     0.149 C 
HETATM   23  C8  MIQ B 502      -2.063  -9.185   1.740  1.00144.10     0.187 C 
HETATM   24  O9  MIQ B 502      -1.939  -9.188   3.131  1.00148.65    -0.388 OA
HETATM   25  C10 MIQ B 502      -2.335  -8.076   3.879  1.00147.44     0.187 C 
HETATM   26  C11 MIQ B 502      -3.475  -7.211   3.353  1.00144.08     0.149 C 
ENDBRANCH   5  21
TORSDOF 2
ENDMDL
MODEL 9
REMARK VINA RESULT:      -7.4     21.710     23.933
REMARK  2 active torsions:
REMARK  status: ('A' for Active; 'I' for Inactive)
REMARK    1  A    between atoms: C5_5  and  N6_21 
REMARK    2  A    between atoms: C18_14  and  N17_19 
ROOT
HETATM    1  O1  MIQ B 502       9.519  -7.819  10.103  1.00142.91    -0.171 OA
HETATM    2  C2  MIQ B 502      10.623  -8.259  10.837  1.00141.17     0.195 A 
HETATM    3  C3  MIQ B 502      12.107  -8.275  10.350  1.00141.71     0.035 A 
HETATM    4  C4  MIQ B 502      12.770  -7.870   9.087  1.00142.86     0.046 A 
HETATM    5  C5  MIQ B 502      14.173  -8.006   8.939  1.00139.53     0.031 A 
HETATM    6  C12 MIQ B 502      14.967  -8.546  10.034  1.00139.38     0.030 A 
HETATM    7  C13 MIQ B 502      14.332  -8.934  11.244  1.00141.18     0.019 A 
HETATM    8  C14 MIQ B 502      12.859  -8.786  11.396  1.00138.77     0.033 A 
HETATM    9  C15 MIQ B 502      11.835  -9.089  12.538  1.00142.10     0.195 A 
HETATM   10  N17 MIQ B 502      10.649  -8.739  12.069  1.00139.42    -0.288 N 
HETATM   11  O16 MIQ B 502      12.121  -9.623  13.796  1.00148.93    -0.171 OA
ENDROOT
BRANCH  10  12
HETATM   12  C18 MIQ B 502       9.444  -8.897  12.861  1.00139.82     0.187 C 
HETATM   13  C19 MIQ B 502       9.670  -8.187  14.202  1.00140.06     0.247 C 
HETATM   14  O25 MIQ B 502      10.057  -7.073  14.206  1.00143.95    -0.271 OA
HETATM   15  N20 MIQ B 502       9.416  -8.845  15.467  1.00140.02    -0.296 N 
HETATM   16  H13 MIQ B 502       9.573  -8.373  16.335  1.00142.77     0.171 HD
HETATM   17  C21 MIQ B 502       8.954 -10.209  15.436  1.00142.22     0.224 C 
HETATM   18  C22 MIQ B 502       9.473 -11.079  14.308  1.00139.52     0.106 C 
HETATM   19  O24 MIQ B 502       8.203 -10.626  16.249  1.00146.13    -0.273 OA
HETATM   20  C23 MIQ B 502       9.099 -10.377  13.015  1.00139.15     0.045 C 
ENDBRANCH  10  12
BRANCH   5  21
HETATM   21  N6  MIQ B 502      14.807  -7.620   7.692  1.00140.95    -0.377 N 
HETATM   22  C7  MIQ B 502      13.983  -7.501   6.501  1.00142.12     0.149 C 
HETATM   23  C8  MIQ B 502      14.785  -7.734   5.228  1.00144.10     0.187 C 
HETATM   24  O9  MIQ B 502      15.981  -7.015   5.200  1.00148.65    -0.388 OA
HETATM   25  C10 MIQ B 502      16.441  -6.360   6.346  1.00147.44     0.187 C 
HETATM   26  C11 MIQ B 502      16.095  -6.948   7.710  1.00144.08     0.149 C 
ENDBRANCH   5  21
TORSDOF 2
ENDMDL
