MODEL 1
REMARK VINA RESULT:      -7.9      0.000      0.000
REMARK  2 active torsions:
REMARK  status: ('A' for Active; 'I' for Inactive)
REMARK    1  A    between atoms: C5_5  and  N6_21 
REMARK    2  A    between atoms: C18_14  and  N17_19 
ROOT
HETATM    1  O1  MIQ B 502       6.554  -2.956 -12.733  1.00142.91    -0.171 OA
HETATM    2  C2  MIQ B 502       6.657  -4.017 -13.635  1.00141.17     0.195 A 
HETATM    3  C3  MIQ B 502       5.500  -4.973 -14.070  1.00141.71     0.035 A 
HETATM    4  C4  MIQ B 502       4.065  -5.064 -13.713  1.00142.86     0.046 A 
HETATM    5  C5  MIQ B 502       3.245  -6.067 -14.290  1.00139.53     0.031 A 
HETATM    6  C12 MIQ B 502       3.818  -7.012 -15.237  1.00139.38     0.030 A 
HETATM    7  C13 MIQ B 502       5.195  -6.925 -15.579  1.00141.18     0.019 A 
HETATM    8  C14 MIQ B 502       6.050  -5.869 -14.973  1.00138.77     0.033 A 
HETATM    9  C15 MIQ B 502       7.555  -5.466 -15.100  1.00142.10     0.195 A 
HETATM   10  N17 MIQ B 502       7.724  -4.426 -14.300  1.00139.42    -0.288 N 
HETATM   11  O16 MIQ B 502       8.521  -6.083 -15.896  1.00148.93    -0.171 OA
ENDROOT
BRANCH  10  12
HETATM   12  C18 MIQ B 502       9.018  -3.788 -14.149  1.00139.82     0.187 C 
HETATM   13  C19 MIQ B 502       9.359  -3.769 -12.654  1.00140.06     0.247 C 
HETATM   14  O25 MIQ B 502       9.287  -4.770 -12.034  1.00143.95    -0.271 OA
HETATM   15  N20 MIQ B 502       9.774  -2.556 -11.981  1.00140.02    -0.296 N 
HETATM   16  H13 MIQ B 502       9.988  -2.555 -11.003  1.00142.77     0.171 HD
HETATM   17  C21 MIQ B 502       9.845  -1.344 -12.756  1.00142.22     0.224 C 
HETATM   18  C22 MIQ B 502       8.831  -1.191 -13.874  1.00139.52     0.106 C 
HETATM   19  O24 MIQ B 502      10.657  -0.515 -12.535  1.00146.13    -0.273 OA
HETATM   20  C23 MIQ B 502       9.002  -2.396 -14.780  1.00139.15     0.045 C 
ENDBRANCH  10  12
BRANCH   5  21
HETATM   21  N6  MIQ B 502       1.844  -6.153 -13.921  1.00140.95    -0.377 N 
HETATM   22  C7  MIQ B 502       1.323  -5.211 -12.945  1.00142.12     0.149 C 
HETATM   23  C8  MIQ B 502       0.124  -5.775 -12.194  1.00144.10     0.187 C 
HETATM   24  O9  MIQ B 502      -0.829  -6.344 -13.041  1.00148.65    -0.388 OA
HETATM   25  C10 MIQ B 502      -0.541  -6.551 -14.393  1.00147.44     0.187 C 
HETATM   26  C11 MIQ B 502       0.903  -6.831 -14.796  1.00144.08     0.149 C 
ENDBRANCH   5  21
TORSDOF 2
ENDMDL
MODEL 2
REMARK VINA RESULT:      -7.5      2.202      8.053
REMARK  2 active torsions:
REMARK  status: ('A' for Active; 'I' for Inactive)
REMARK    1  A    between atoms: C5_5  and  N6_21 
REMARK    2  A    between atoms: C18_14  and  N17_19 
ROOT
HETATM    1  O1  MIQ B 502       2.688  -4.659 -13.635  1.00142.91    -0.171 OA
HETATM    2  C2  MIQ B 502       3.526  -5.729 -13.314  1.00141.17     0.195 A 
HETATM    3  C3  MIQ B 502       5.071  -5.656 -13.096  1.00141.71     0.035 A 
HETATM    4  C4  MIQ B 502       6.057  -4.550 -13.147  1.00142.86     0.046 A 
HETATM    5  C5  MIQ B 502       7.429  -4.801 -12.895  1.00139.53     0.031 A 
HETATM    6  C12 MIQ B 502       7.871  -6.152 -12.584  1.00139.38     0.030 A 
HETATM    7  C13 MIQ B 502       6.927  -7.213 -12.533  1.00141.18     0.019 A 
HETATM    8  C14 MIQ B 502       5.487  -6.943 -12.797  1.00138.77     0.033 A 
HETATM    9  C15 MIQ B 502       4.192  -7.820 -12.829  1.00142.10     0.195 A 
HETATM   10  N17 MIQ B 502       3.201  -6.996 -13.126  1.00139.42    -0.288 N 
HETATM   11  O16 MIQ B 502       4.107  -9.193 -12.593  1.00148.93    -0.171 OA
ENDROOT
BRANCH  10  12
HETATM   12  C18 MIQ B 502       1.836  -7.470 -13.258  1.00139.82     0.187 C 
HETATM   13  C19 MIQ B 502       1.355  -7.125 -14.673  1.00140.06     0.247 C 
HETATM   14  O25 MIQ B 502       2.020  -7.432 -15.598  1.00143.95    -0.271 OA
HETATM   15  N20 MIQ B 502       0.103  -6.435 -14.907  1.00140.02    -0.296 N 
HETATM   16  H13 MIQ B 502      -0.196  -6.209 -15.835  1.00142.77     0.171 HD
HETATM   17  C21 MIQ B 502      -0.685  -6.061 -13.761  1.00142.22     0.224 C 
HETATM   18  C22 MIQ B 502       0.075  -5.685 -12.504  1.00139.52     0.106 C 
HETATM   19  O24 MIQ B 502      -1.866  -6.054 -13.800  1.00146.13    -0.273 OA
HETATM   20  C23 MIQ B 502       0.957  -6.872 -12.162  1.00139.15     0.045 C 
ENDBRANCH  10  12
BRANCH   5  21
HETATM   21  N6  MIQ B 502       8.386  -3.711 -12.963  1.00140.95    -0.377 N 
HETATM   22  C7  MIQ B 502       8.032  -2.523 -13.721  1.00142.12     0.149 C 
HETATM   23  C8  MIQ B 502       9.263  -1.795 -14.244  1.00144.10     0.187 C 
HETATM   24  O9  MIQ B 502      10.242  -1.609 -13.266  1.00148.65    -0.388 OA
HETATM   25  C10 MIQ B 502      10.138  -2.253 -12.030  1.00147.44     0.187 C 
HETATM   26  C11 MIQ B 502       9.440  -3.608 -11.970  1.00144.08     0.149 C 
ENDBRANCH   5  21
TORSDOF 2
ENDMDL
MODEL 3
REMARK VINA RESULT:      -7.3      1.767      2.297
REMARK  2 active torsions:
REMARK  status: ('A' for Active; 'I' for Inactive)
REMARK    1  A    between atoms: C5_5  and  N6_21 
REMARK    2  A    between atoms: C18_14  and  N17_19 
ROOT
HETATM    1  O1  MIQ B 502       6.651  -3.685 -14.128  1.00142.91    -0.171 OA
HETATM    2  C2  MIQ B 502       6.587  -4.964 -13.572  1.00141.17     0.195 A 
HETATM    3  C3  MIQ B 502       5.295  -5.819 -13.373  1.00141.71     0.035 A 
HETATM    4  C4  MIQ B 502       3.863  -5.588 -13.677  1.00142.86     0.046 A 
HETATM    5  C5  MIQ B 502       2.896  -6.580 -13.373  1.00139.53     0.031 A 
HETATM    6  C12 MIQ B 502       3.314  -7.832 -12.760  1.00139.38     0.030 A 
HETATM    7  C13 MIQ B 502       4.687  -8.055 -12.470  1.00141.18     0.019 A 
HETATM    8  C14 MIQ B 502       5.698  -7.011 -12.793  1.00138.77     0.033 A 
HETATM    9  C15 MIQ B 502       7.249  -6.896 -12.631  1.00142.10     0.195 A 
HETATM   10  N17 MIQ B 502       7.579  -5.708 -13.112  1.00139.42    -0.288 N 
HETATM   11  O16 MIQ B 502       8.106  -7.853 -12.087  1.00148.93    -0.171 OA
ENDROOT
BRANCH  10  12
HETATM   12  C18 MIQ B 502       8.954  -5.245 -13.111  1.00139.82     0.187 C 
HETATM   13  C19 MIQ B 502       8.964  -3.809 -12.574  1.00140.06     0.247 C 
HETATM   14  O25 MIQ B 502       8.418  -3.570 -11.556  1.00143.95    -0.271 OA
HETATM   15  N20 MIQ B 502       9.631  -2.734 -13.281  1.00140.02    -0.296 N 
HETATM   16  H13 MIQ B 502       9.624  -1.799 -12.923  1.00142.77     0.171 HD
HETATM   17  C21 MIQ B 502      10.281  -3.048 -14.527  1.00142.22     0.224 C 
HETATM   18  C22 MIQ B 502       9.639  -4.128 -15.377  1.00139.52     0.106 C 
HETATM   19  O24 MIQ B 502      11.268  -2.494 -14.865  1.00146.13    -0.273 OA
HETATM   20  C23 MIQ B 502       9.558  -5.370 -14.508  1.00139.15     0.045 C 
ENDBRANCH  10  12
BRANCH   5  21
HETATM   21  N6  MIQ B 502       1.495  -6.333 -13.663  1.00140.95    -0.377 N 
HETATM   22  C7  MIQ B 502       0.727  -7.379 -14.316  1.00142.12     0.149 C 
HETATM   23  C8  MIQ B 502      -0.441  -6.813 -15.113  1.00144.10     0.187 C 
HETATM   24  O9  MIQ B 502      -1.192  -5.883 -14.390  1.00148.65    -0.388 OA
HETATM   25  C10 MIQ B 502      -0.728  -5.397 -13.165  1.00147.44     0.187 C 
HETATM   26  C11 MIQ B 502       0.778  -5.295 -12.944  1.00144.08     0.149 C 
ENDBRANCH   5  21
TORSDOF 2
ENDMDL
MODEL 4
REMARK VINA RESULT:      -7.2      2.521      8.586
REMARK  2 active torsions:
REMARK  status: ('A' for Active; 'I' for Inactive)
REMARK    1  A    between atoms: C5_5  and  N6_21 
REMARK    2  A    between atoms: C18_14  and  N17_19 
ROOT
HETATM    1  O1  MIQ B 502       9.608  -6.391 -12.155  1.00142.91    -0.171 OA
HETATM    2  C2  MIQ B 502       8.845  -5.368 -12.723  1.00141.17     0.195 A 
HETATM    3  C3  MIQ B 502       9.201  -3.847 -12.727  1.00141.71     0.035 A 
HETATM    4  C4  MIQ B 502      10.342  -3.066 -12.194  1.00142.86     0.046 A 
HETATM    5  C5  MIQ B 502      10.386  -1.658 -12.359  1.00139.53     0.031 A 
HETATM    6  C12 MIQ B 502       9.305  -0.978 -13.058  1.00139.38     0.030 A 
HETATM    7  C13 MIQ B 502       8.212  -1.728 -13.571  1.00141.18     0.019 A 
HETATM    8  C14 MIQ B 502       8.171  -3.205 -13.396  1.00138.77     0.033 A 
HETATM    9  C15 MIQ B 502       7.172  -4.334 -13.810  1.00142.10     0.195 A 
HETATM   10  N17 MIQ B 502       7.694  -5.465 -13.364  1.00139.42    -0.288 N 
HETATM   11  O16 MIQ B 502       5.972  -4.174 -14.505  1.00148.93    -0.171 OA
ENDROOT
BRANCH  10  12
HETATM   12  C18 MIQ B 502       7.021  -6.737 -13.556  1.00139.82     0.187 C 
HETATM   13  C19 MIQ B 502       6.622  -6.837 -15.033  1.00140.06     0.247 C 
HETATM   14  O25 MIQ B 502       7.435  -6.640 -15.864  1.00143.95    -0.271 OA
HETATM   15  N20 MIQ B 502       5.272  -7.173 -15.438  1.00140.02    -0.296 N 
HETATM   16  H13 MIQ B 502       5.022  -7.229 -16.406  1.00142.77     0.171 HD
HETATM   17  C21 MIQ B 502       4.294  -7.399 -14.405  1.00142.22     0.224 C 
HETATM   18  C22 MIQ B 502       4.441  -6.580 -13.137  1.00139.52     0.106 C 
HETATM   19  O24 MIQ B 502       3.425  -8.189 -14.539  1.00146.13    -0.273 OA
HETATM   20  C23 MIQ B 502       5.834  -6.859 -12.602  1.00139.15     0.045 C 
ENDBRANCH  10  12
BRANCH   5  21
HETATM   21  N6  MIQ B 502      11.502  -0.904 -11.819  1.00140.95    -0.377 N 
HETATM   22  C7  MIQ B 502      11.313   0.508 -11.535  1.00142.12     0.149 C 
HETATM   23  C8  MIQ B 502      12.622   1.284 -11.607  1.00144.10     0.187 C 
HETATM   24  O9  MIQ B 502      13.658   0.667 -10.904  1.00148.65    -0.388 OA
HETATM   25  C10 MIQ B 502      13.505  -0.632 -10.411  1.00147.44     0.187 C 
HETATM   26  C11 MIQ B 502      12.601  -1.597 -11.170  1.00144.08     0.149 C 
ENDBRANCH   5  21
TORSDOF 2
ENDMDL
MODEL 5
REMARK VINA RESULT:      -7.1      1.851      2.530
REMARK  2 active torsions:
REMARK  status: ('A' for Active; 'I' for Inactive)
REMARK    1  A    between atoms: C5_5  and  N6_21 
REMARK    2  A    between atoms: C18_14  and  N17_19 
ROOT
HETATM    1  O1  MIQ B 502       6.732  -2.444 -13.733  1.00142.91    -0.171 OA
HETATM    2  C2  MIQ B 502       6.920  -3.790 -13.412  1.00141.17     0.195 A 
HETATM    3  C3  MIQ B 502       5.815  -4.893 -13.375  1.00141.71     0.035 A 
HETATM    4  C4  MIQ B 502       4.357  -4.884 -13.642  1.00142.86     0.046 A 
HETATM    5  C5  MIQ B 502       3.599  -6.076 -13.525  1.00139.53     0.031 A 
HETATM    6  C12 MIQ B 502       4.258  -7.316 -13.140  1.00139.38     0.030 A 
HETATM    7  C13 MIQ B 502       5.655  -7.326 -12.885  1.00141.18     0.019 A 
HETATM    8  C14 MIQ B 502       6.446  -6.071 -13.012  1.00138.77     0.033 A 
HETATM    9  C15 MIQ B 502       7.953  -5.698 -12.823  1.00142.10     0.195 A 
HETATM   10  N17 MIQ B 502       8.044  -4.404 -13.084  1.00139.42    -0.288 N 
HETATM   11  O16 MIQ B 502       8.987  -6.559 -12.451  1.00148.93    -0.171 OA
ENDROOT
BRANCH  10  12
HETATM   12  C18 MIQ B 502       9.310  -3.701 -12.992  1.00139.82     0.187 C 
HETATM   13  C19 MIQ B 502      10.342  -4.485 -13.812  1.00140.06     0.247 C 
HETATM   14  O25 MIQ B 502      10.086  -4.788 -14.923  1.00143.95    -0.271 OA
HETATM   15  N20 MIQ B 502      11.628  -4.862 -13.261  1.00140.02    -0.296 N 
HETATM   16  H13 MIQ B 502      12.290  -5.380 -13.804  1.00142.77     0.171 HD
HETATM   17  C21 MIQ B 502      11.913  -4.491 -11.899  1.00142.22     0.224 C 
HETATM   18  C22 MIQ B 502      10.740  -4.471 -10.938  1.00139.52     0.106 C 
HETATM   19  O24 MIQ B 502      13.007  -4.210 -11.551  1.00146.13    -0.273 OA
HETATM   20  C23 MIQ B 502       9.714  -3.521 -11.530  1.00139.15     0.045 C 
ENDBRANCH  10  12
BRANCH   5  21
HETATM   21  N6  MIQ B 502       2.169  -6.049 -13.775  1.00140.95    -0.377 N 
HETATM   22  C7  MIQ B 502       1.569  -7.159 -14.496  1.00142.12     0.149 C 
HETATM   23  C8  MIQ B 502       0.302  -6.741 -15.231  1.00144.10     0.187 C 
HETATM   24  O9  MIQ B 502      -0.574  -6.006 -14.429  1.00148.65    -0.388 OA
HETATM   25  C10 MIQ B 502      -0.165  -5.541 -13.177  1.00147.44     0.187 C 
HETATM   26  C11 MIQ B 502       1.307  -5.203 -12.969  1.00144.08     0.149 C 
ENDBRANCH   5  21
TORSDOF 2
ENDMDL
MODEL 6
REMARK VINA RESULT:      -7.0      2.346      3.142
REMARK  2 active torsions:
REMARK  status: ('A' for Active; 'I' for Inactive)
REMARK    1  A    between atoms: C5_5  and  N6_21 
REMARK    2  A    between atoms: C18_14  and  N17_19 
ROOT
HETATM    1  O1  MIQ B 502       6.782  -4.369 -12.571  1.00142.91    -0.171 OA
HETATM    2  C2  MIQ B 502       6.571  -5.317 -13.575  1.00141.17     0.195 A 
HETATM    3  C3  MIQ B 502       5.189  -5.879 -14.037  1.00141.71     0.035 A 
HETATM    4  C4  MIQ B 502       3.792  -5.622 -13.614  1.00142.86     0.046 A 
HETATM    5  C5  MIQ B 502       2.717  -6.304 -14.239  1.00139.53     0.031 A 
HETATM    6  C12 MIQ B 502       2.989  -7.261 -15.302  1.00139.38     0.030 A 
HETATM    7  C13 MIQ B 502       4.328  -7.506 -15.709  1.00141.18     0.019 A 
HETATM    8  C14 MIQ B 502       5.452  -6.786 -15.051  1.00138.77     0.033 A 
HETATM    9  C15 MIQ B 502       7.007  -6.786 -15.220  1.00142.10     0.195 A 
HETATM   10  N17 MIQ B 502       7.471  -5.921 -14.333  1.00139.42    -0.288 N 
HETATM   11  O16 MIQ B 502       7.749  -7.549 -16.122  1.00148.93    -0.171 OA
ENDROOT
BRANCH  10  12
HETATM   12  C18 MIQ B 502       8.893  -5.670 -14.192  1.00139.82     0.187 C 
HETATM   13  C19 MIQ B 502       9.456  -5.372 -15.588  1.00140.06     0.247 C 
HETATM   14  O25 MIQ B 502       8.929  -4.558 -16.260  1.00143.95    -0.271 OA
HETATM   15  N20 MIQ B 502      10.622  -6.060 -16.103  1.00140.02    -0.296 N 
HETATM   16  H13 MIQ B 502      10.976  -5.862 -17.018  1.00142.77     0.171 HD
HETATM   17  C21 MIQ B 502      11.241  -7.057 -15.268  1.00142.22     0.224 C 
HETATM   18  C22 MIQ B 502      10.320  -7.858 -14.367  1.00139.52     0.106 C 
HETATM   19  O24 MIQ B 502      12.409  -7.237 -15.283  1.00146.13    -0.273 OA
HETATM   20  C23 MIQ B 502       9.576  -6.852 -13.508  1.00139.15     0.045 C 
ENDBRANCH  10  12
BRANCH   5  21
HETATM   21  N6  MIQ B 502       1.355  -6.054 -13.805  1.00140.95    -0.377 N 
HETATM   22  C7  MIQ B 502       1.134  -5.116 -12.717  1.00142.12     0.149 C 
HETATM   23  C8  MIQ B 502      -0.153  -5.417 -11.960  1.00144.10     0.187 C 
HETATM   24  O9  MIQ B 502      -1.246  -5.620 -12.805  1.00148.65    -0.388 OA
HETATM   25  C10 MIQ B 502      -1.060  -5.753 -14.183  1.00147.44     0.187 C 
HETATM   26  C11 MIQ B 502       0.244  -6.362 -14.688  1.00144.08     0.149 C 
ENDBRANCH   5  21
TORSDOF 2
ENDMDL
MODEL 7
REMARK VINA RESULT:      -6.9      3.091      9.446
REMARK  2 active torsions:
REMARK  status: ('A' for Active; 'I' for Inactive)
REMARK    1  A    between atoms: C5_5  and  N6_21 
REMARK    2  A    between atoms: C18_14  and  N17_19 
ROOT
HETATM    1  O1  MIQ B 502      10.786  -5.584 -12.313  1.00142.91    -0.171 OA
HETATM    2  C2  MIQ B 502      10.114  -4.389 -12.579  1.00141.17     0.195 A 
HETATM    3  C3  MIQ B 502      10.651  -2.948 -12.303  1.00141.71     0.035 A 
HETATM    4  C4  MIQ B 502      11.914  -2.423 -11.732  1.00142.86     0.046 A 
HETATM    5  C5  MIQ B 502      12.118  -1.026 -11.607  1.00139.53     0.031 A 
HETATM    6  C12 MIQ B 502      11.080  -0.102 -12.041  1.00139.38     0.030 A 
HETATM    7  C13 MIQ B 502       9.869  -0.605 -12.590  1.00141.18     0.019 A 
HETATM    8  C14 MIQ B 502       9.662  -2.073 -12.722  1.00138.77     0.033 A 
HETATM    9  C15 MIQ B 502       8.505  -2.976 -13.261  1.00142.10     0.195 A 
HETATM   10  N17 MIQ B 502       8.916  -4.224 -13.113  1.00139.42    -0.288 N 
HETATM   11  O16 MIQ B 502       7.286  -2.546 -13.788  1.00148.93    -0.171 OA
ENDROOT
BRANCH  10  12
HETATM   12  C18 MIQ B 502       8.081  -5.347 -13.497  1.00139.82     0.187 C 
HETATM   13  C19 MIQ B 502       7.743  -5.191 -14.985  1.00140.06     0.247 C 
HETATM   14  O25 MIQ B 502       8.615  -5.006 -15.757  1.00143.95    -0.271 OA
HETATM   15  N20 MIQ B 502       6.381  -5.270 -15.471  1.00140.02    -0.296 N 
HETATM   16  H13 MIQ B 502       6.172  -5.160 -16.444  1.00142.77     0.171 HD
HETATM   17  C21 MIQ B 502       5.332  -5.487 -14.507  1.00142.22     0.224 C 
HETATM   18  C22 MIQ B 502       5.531  -4.873 -13.135  1.00139.52     0.106 C 
HETATM   19  O24 MIQ B 502       4.368  -6.116 -14.774  1.00146.13    -0.273 OA
HETATM   20  C23 MIQ B 502       6.844  -5.421 -12.604  1.00139.15     0.045 C 
ENDBRANCH  10  12
BRANCH   5  21
HETATM   21  N6  MIQ B 502      13.353  -0.526 -11.032  1.00140.95    -0.377 N 
HETATM   22  C7  MIQ B 502      14.497  -1.419 -10.959  1.00142.12     0.149 C 
HETATM   23  C8  MIQ B 502      15.441  -1.044  -9.825  1.00144.10     0.187 C 
HETATM   24  O9  MIQ B 502      15.746   0.319  -9.800  1.00148.65    -0.388 OA
HETATM   25  C10 MIQ B 502      15.042   1.216 -10.607  1.00147.44     0.187 C 
HETATM   26  C11 MIQ B 502      13.589   0.905 -10.949  1.00144.08     0.149 C 
ENDBRANCH   5  21
TORSDOF 2
ENDMDL
MODEL 8
REMARK VINA RESULT:      -6.9      2.113      2.833
REMARK  2 active torsions:
REMARK  status: ('A' for Active; 'I' for Inactive)
REMARK    1  A    between atoms: C5_5  and  N6_21 
REMARK    2  A    between atoms: C18_14  and  N17_19 
ROOT
HETATM    1  O1  MIQ B 502       7.117  -1.656 -13.842  1.00142.91    -0.171 OA
HETATM    2  C2  MIQ B 502       7.713  -2.875 -13.513  1.00141.17     0.195 A 
HETATM    3  C3  MIQ B 502       6.970  -4.225 -13.255  1.00141.71     0.035 A 
HETATM    4  C4  MIQ B 502       5.542  -4.622 -13.274  1.00142.86     0.046 A 
HETATM    5  C5  MIQ B 502       5.166  -5.959 -12.992  1.00139.53     0.031 A 
HETATM    6  C12 MIQ B 502       6.190  -6.948 -12.683  1.00139.38     0.030 A 
HETATM    7  C13 MIQ B 502       7.559  -6.568 -12.666  1.00141.18     0.019 A 
HETATM    8  C14 MIQ B 502       7.948  -5.163 -12.965  1.00138.77     0.033 A 
HETATM    9  C15 MIQ B 502       9.305  -4.391 -13.044  1.00142.10     0.195 A 
HETATM   10  N17 MIQ B 502       8.998  -3.143 -13.359  1.00139.42    -0.288 N 
HETATM   11  O16 MIQ B 502      10.579  -4.917 -12.824  1.00148.93    -0.171 OA
ENDROOT
BRANCH  10  12
HETATM   12  C18 MIQ B 502      10.022  -2.125 -13.504  1.00139.82     0.187 C 
HETATM   13  C19 MIQ B 502      11.085  -2.665 -14.469  1.00140.06     0.247 C 
HETATM   14  O25 MIQ B 502      10.748  -3.102 -15.512  1.00143.95    -0.271 OA
HETATM   15  N20 MIQ B 502      12.495  -2.648 -14.139  1.00140.02    -0.296 N 
HETATM   16  H13 MIQ B 502      13.179  -3.009 -14.775  1.00142.77     0.171 HD
HETATM   17  C21 MIQ B 502      12.881  -2.119 -12.856  1.00142.22     0.224 C 
HETATM   18  C22 MIQ B 502      11.916  -2.343 -11.709  1.00139.52     0.106 C 
HETATM   19  O24 MIQ B 502      13.899  -1.536 -12.710  1.00146.13    -0.273 OA
HETATM   20  C23 MIQ B 502      10.589  -1.743 -12.138  1.00139.15     0.045 C 
ENDBRANCH  10  12
BRANCH   5  21
HETATM   21  N6  MIQ B 502       3.763  -6.330 -12.999  1.00140.95    -0.377 N 
HETATM   22  C7  MIQ B 502       2.811  -5.436 -13.635  1.00142.12     0.149 C 
HETATM   23  C8  MIQ B 502       1.415  -5.576 -13.041  1.00144.10     0.187 C 
HETATM   24  O9  MIQ B 502       1.003  -6.905 -12.931  1.00148.65    -0.388 OA
HETATM   25  C10 MIQ B 502       1.910  -7.947 -13.138  1.00147.44     0.187 C 
HETATM   26  C11 MIQ B 502       3.378  -7.716 -12.794  1.00144.08     0.149 C 
ENDBRANCH   5  21
TORSDOF 2
ENDMDL
MODEL 9
REMARK VINA RESULT:      -6.8      1.839      3.098
REMARK  2 active torsions:
REMARK  status: ('A' for Active; 'I' for Inactive)
REMARK    1  A    between atoms: C5_5  and  N6_21 
REMARK    2  A    between atoms: C18_14  and  N17_19 
ROOT
HETATM    1  O1  MIQ B 502       8.668  -6.157 -15.834  1.00142.91    -0.171 OA
HETATM    2  C2  MIQ B 502       7.695  -5.505 -15.073  1.00141.17     0.195 A 
HETATM    3  C3  MIQ B 502       6.188  -5.903 -14.967  1.00141.71     0.035 A 
HETATM    4  C4  MIQ B 502       5.376  -6.987 -15.569  1.00142.86     0.046 A 
HETATM    5  C5  MIQ B 502       3.993  -7.094 -15.274  1.00139.53     0.031 A 
HETATM    6  C12 MIQ B 502       3.369  -6.134 -14.375  1.00139.38     0.030 A 
HETATM    7  C13 MIQ B 502       4.148  -5.096 -13.797  1.00141.18     0.019 A 
HETATM    8  C14 MIQ B 502       5.600  -4.989 -14.108  1.00138.77     0.033 A 
HETATM    9  C15 MIQ B 502       6.748  -4.019 -13.678  1.00142.10     0.195 A 
HETATM   10  N17 MIQ B 502       7.837  -4.445 -14.297  1.00139.42    -0.288 N 
HETATM   11  O16 MIQ B 502       6.639  -2.925 -12.818  1.00148.93    -0.171 OA
ENDROOT
BRANCH  10  12
HETATM   12  C18 MIQ B 502       9.110  -3.766 -14.142  1.00139.82     0.187 C 
HETATM   13  C19 MIQ B 502       9.436  -3.719 -12.645  1.00140.06     0.247 C 
HETATM   14  O25 MIQ B 502       9.389  -4.714 -12.013  1.00143.95    -0.271 OA
HETATM   15  N20 MIQ B 502       9.808  -2.485 -11.983  1.00140.02    -0.296 N 
HETATM   16  H13 MIQ B 502      10.013  -2.467 -11.003  1.00142.77     0.171 HD
HETATM   17  C21 MIQ B 502       9.849  -1.282 -12.772  1.00142.22     0.224 C 
HETATM   18  C22 MIQ B 502       8.841  -1.172 -13.900  1.00139.52     0.106 C 
HETATM   19  O24 MIQ B 502      10.633  -0.425 -12.553  1.00146.13    -0.273 OA
HETATM   20  C23 MIQ B 502       9.056  -2.383 -14.790  1.00139.15     0.045 C 
ENDBRANCH  10  12
BRANCH   5  21
HETATM   21  N6  MIQ B 502       3.206  -8.152 -15.882  1.00140.95    -0.377 N 
HETATM   22  C7  MIQ B 502       3.896  -9.319 -16.404  1.00142.12     0.149 C 
HETATM   23  C8  MIQ B 502       3.113  -9.989 -17.526  1.00144.10     0.187 C 
HETATM   24  O9  MIQ B 502       1.768 -10.184 -17.208  1.00148.65    -0.388 OA
HETATM   25  C10 MIQ B 502       1.217  -9.593 -16.068  1.00147.44     0.187 C 
HETATM   26  C11 MIQ B 502       1.788  -8.263 -15.587  1.00144.08     0.149 C 
ENDBRANCH   5  21
TORSDOF 2
ENDMDL
