MODEL 1
REMARK VINA RESULT:      -6.3      0.000      0.000
REMARK  2 active torsions:
REMARK  status: ('A' for Active; 'I' for Inactive)
REMARK    1  A    between atoms: C5_5  and  N6_21 
REMARK    2  A    between atoms: C18_14  and  N17_19 
ROOT
HETATM    1  O1  MIQ B 502      -2.023 -21.696 -15.143  1.00142.91    -0.171 OA
HETATM    2  C2  MIQ B 502      -2.405 -20.526 -14.484  1.00141.17     0.195 A 
HETATM    3  C3  MIQ B 502      -1.894 -20.042 -13.090  1.00141.71     0.035 A 
HETATM    4  C4  MIQ B 502      -0.935 -20.600 -12.107  1.00142.86     0.046 A 
HETATM    5  C5  MIQ B 502      -0.667 -19.912 -10.897  1.00139.53     0.031 A 
HETATM    6  C12 MIQ B 502      -1.339 -18.651 -10.619  1.00139.38     0.030 A 
HETATM    7  C13 MIQ B 502      -2.258 -18.115 -11.561  1.00141.18     0.019 A 
HETATM    8  C14 MIQ B 502      -2.533 -18.841 -12.832  1.00138.77     0.033 A 
HETATM    9  C15 MIQ B 502      -3.446 -18.576 -14.073  1.00142.10     0.195 A 
HETATM   10  N17 MIQ B 502      -3.255 -19.598 -14.891  1.00139.42    -0.288 N 
HETATM   11  O16 MIQ B 502      -4.291 -17.483 -14.271  1.00148.93    -0.171 OA
ENDROOT
BRANCH  10  12
HETATM   12  C18 MIQ B 502      -3.961 -19.698 -16.155  1.00139.82     0.187 C 
HETATM   13  C19 MIQ B 502      -4.623 -21.080 -16.213  1.00140.06     0.247 C 
HETATM   14  O25 MIQ B 502      -5.289 -21.438 -15.307  1.00143.95    -0.271 OA
HETATM   15  N20 MIQ B 502      -4.458 -21.959 -17.352  1.00140.02    -0.296 N 
HETATM   16  H13 MIQ B 502      -4.891 -22.862 -17.375  1.00142.77     0.171 HD
HETATM   17  C21 MIQ B 502      -3.632 -21.504 -18.441  1.00142.22     0.224 C 
HETATM   18  C22 MIQ B 502      -2.447 -20.631 -18.078  1.00139.52     0.106 C 
HETATM   19  O24 MIQ B 502      -3.872 -21.795 -19.561  1.00146.13    -0.273 OA
HETATM   20  C23 MIQ B 502      -3.005 -19.440 -17.319  1.00139.15     0.045 C 
ENDBRANCH  10  12
BRANCH   5  21
HETATM   21  N6  MIQ B 502       0.263 -20.477  -9.936  1.00140.95    -0.377 N 
HETATM   22  C7  MIQ B 502      -0.149 -20.578  -8.547  1.00142.12     0.149 C 
HETATM   23  C8  MIQ B 502       1.043 -20.555  -7.598  1.00144.10     0.187 C 
HETATM   24  O9  MIQ B 502       2.062 -21.428  -7.983  1.00148.65    -0.388 OA
HETATM   25  C10 MIQ B 502       2.028 -22.046  -9.236  1.00147.44     0.187 C 
HETATM   26  C11 MIQ B 502       1.361 -21.311 -10.394  1.00144.08     0.149 C 
ENDBRANCH   5  21
TORSDOF 2
ENDMDL
MODEL 2
REMARK VINA RESULT:      -6.2     22.920     25.108
REMARK  2 active torsions:
REMARK  status: ('A' for Active; 'I' for Inactive)
REMARK    1  A    between atoms: C5_5  and  N6_21 
REMARK    2  A    between atoms: C18_14  and  N17_19 
ROOT
HETATM    1  O1  MIQ B 502     -13.007  -1.128  -8.443  1.00142.91    -0.171 OA
HETATM    2  C2  MIQ B 502     -13.720   0.051  -8.671  1.00141.17     0.195 A 
HETATM    3  C3  MIQ B 502     -13.213   1.296  -9.466  1.00141.71     0.035 A 
HETATM    4  C4  MIQ B 502     -11.947   1.611 -10.169  1.00142.86     0.046 A 
HETATM    5  C5  MIQ B 502     -11.778   2.860 -10.817  1.00139.53     0.031 A 
HETATM    6  C12 MIQ B 502     -12.856   3.838 -10.793  1.00139.38     0.030 A 
HETATM    7  C13 MIQ B 502     -14.071   3.537 -10.120  1.00141.18     0.019 A 
HETATM    8  C14 MIQ B 502     -14.243   2.223  -9.443  1.00138.77     0.033 A 
HETATM    9  C15 MIQ B 502     -15.396   1.548  -8.630  1.00142.10     0.195 A 
HETATM   10  N17 MIQ B 502     -14.946   0.354  -8.280  1.00139.42    -0.288 N 
HETATM   11  O16 MIQ B 502     -16.644   2.100  -8.334  1.00148.93    -0.171 OA
ENDROOT
BRANCH  10  12
HETATM   12  C18 MIQ B 502     -15.753  -0.558  -7.491  1.00139.82     0.187 C 
HETATM   13  C19 MIQ B 502     -14.954  -0.921  -6.233  1.00140.06     0.247 C 
HETATM   14  O25 MIQ B 502     -14.494  -0.057  -5.574  1.00143.95    -0.271 OA
HETATM   15  N20 MIQ B 502     -14.753  -2.296  -5.827  1.00140.02    -0.296 N 
HETATM   16  H13 MIQ B 502     -14.223  -2.520  -5.007  1.00142.77     0.171 HD
HETATM   17  C21 MIQ B 502     -15.315  -3.333  -6.653  1.00142.22     0.224 C 
HETATM   18  C22 MIQ B 502     -15.364  -3.063  -8.145  1.00139.52     0.106 C 
HETATM   19  O24 MIQ B 502     -15.722  -4.341  -6.189  1.00146.13    -0.273 OA
HETATM   20  C23 MIQ B 502     -16.147  -1.776  -8.325  1.00139.15     0.045 C 
ENDBRANCH  10  12
BRANCH   5  21
HETATM   21  N6  MIQ B 502     -10.527   3.160 -11.489  1.00140.95    -0.377 N 
HETATM   22  C7  MIQ B 502      -9.929   2.139 -12.332  1.00142.12     0.149 C 
HETATM   23  C8  MIQ B 502      -8.417   2.298 -12.433  1.00144.10     0.187 C 
HETATM   24  O9  MIQ B 502      -8.026   3.609 -12.714  1.00148.65    -0.388 OA
HETATM   25  C10 MIQ B 502      -8.955   4.651 -12.660  1.00147.44     0.187 C 
HETATM   26  C11 MIQ B 502     -10.120   4.541 -11.683  1.00144.08     0.149 C 
ENDBRANCH   5  21
TORSDOF 2
ENDMDL
MODEL 3
REMARK VINA RESULT:      -5.9     16.072     18.137
REMARK  2 active torsions:
REMARK  status: ('A' for Active; 'I' for Inactive)
REMARK    1  A    between atoms: C5_5  and  N6_21 
REMARK    2  A    between atoms: C18_14  and  N17_19 
ROOT
HETATM    1  O1  MIQ B 502     -18.227 -18.366 -10.799  1.00142.91    -0.171 OA
HETATM    2  C2  MIQ B 502     -18.834 -18.428 -12.056  1.00141.17     0.195 A 
HETATM    3  C3  MIQ B 502     -18.627 -17.421 -13.231  1.00141.71     0.035 A 
HETATM    4  C4  MIQ B 502     -17.806 -16.198 -13.392  1.00142.86     0.046 A 
HETATM    5  C5  MIQ B 502     -17.826 -15.476 -14.612  1.00139.53     0.031 A 
HETATM    6  C12 MIQ B 502     -18.658 -15.941 -15.713  1.00139.38     0.030 A 
HETATM    7  C13 MIQ B 502     -19.445 -17.114 -15.559  1.00141.18     0.019 A 
HETATM    8  C14 MIQ B 502     -19.418 -17.869 -14.277  1.00138.77     0.033 A 
HETATM    9  C15 MIQ B 502     -20.119 -19.163 -13.748  1.00142.10     0.195 A 
HETATM   10  N17 MIQ B 502     -19.686 -19.332 -12.509  1.00139.42    -0.288 N 
HETATM   11  O16 MIQ B 502     -21.020 -19.969 -14.444  1.00148.93    -0.171 OA
ENDROOT
BRANCH  10  12
HETATM   12  C18 MIQ B 502     -20.144 -20.440 -11.691  1.00139.82     0.187 C 
HETATM   13  C19 MIQ B 502     -20.737 -19.856 -10.403  1.00140.06     0.247 C 
HETATM   14  O25 MIQ B 502     -21.545 -19.000 -10.476  1.00143.95    -0.271 OA
HETATM   15  N20 MIQ B 502     -20.336 -20.332  -9.094  1.00140.02    -0.296 N 
HETATM   16  H13 MIQ B 502     -20.726 -19.938  -8.261  1.00142.77     0.171 HD
HETATM   17  C21 MIQ B 502     -19.341 -21.371  -9.030  1.00142.22     0.224 C 
HETATM   18  C22 MIQ B 502     -18.273 -21.359 -10.107  1.00139.52     0.106 C 
HETATM   19  O24 MIQ B 502     -19.361 -22.194  -8.182  1.00146.13    -0.273 OA
HETATM   20  C23 MIQ B 502     -19.001 -21.421 -11.437  1.00139.15     0.045 C 
ENDBRANCH  10  12
BRANCH   5  21
HETATM   21  N6  MIQ B 502     -17.028 -14.271 -14.751  1.00140.95    -0.377 N 
HETATM   22  C7  MIQ B 502     -16.577 -13.886 -16.077  1.00142.12     0.149 C 
HETATM   23  C8  MIQ B 502     -15.297 -13.062 -16.025  1.00144.10     0.187 C 
HETATM   24  O9  MIQ B 502     -15.354 -12.027 -15.089  1.00148.65    -0.388 OA
HETATM   25  C10 MIQ B 502     -16.406 -11.960 -14.172  1.00147.44     0.187 C 
HETATM   26  C11 MIQ B 502     -17.054 -13.260 -13.709  1.00144.08     0.149 C 
ENDBRANCH   5  21
TORSDOF 2
ENDMDL
MODEL 4
REMARK VINA RESULT:      -5.9     15.915     18.843
REMARK  2 active torsions:
REMARK  status: ('A' for Active; 'I' for Inactive)
REMARK    1  A    between atoms: C5_5  and  N6_21 
REMARK    2  A    between atoms: C18_14  and  N17_19 
ROOT
HETATM    1  O1  MIQ B 502     -17.105 -14.734 -14.103  1.00142.91    -0.171 OA
HETATM    2  C2  MIQ B 502     -18.196 -14.571 -14.960  1.00141.17     0.195 A 
HETATM    3  C3  MIQ B 502     -19.483 -15.455 -14.993  1.00141.71     0.035 A 
HETATM    4  C4  MIQ B 502     -19.931 -16.632 -14.212  1.00142.86     0.046 A 
HETATM    5  C5  MIQ B 502     -21.186 -17.235 -14.480  1.00139.53     0.031 A 
HETATM    6  C12 MIQ B 502     -22.039 -16.693 -15.528  1.00139.38     0.030 A 
HETATM    7  C13 MIQ B 502     -21.611 -15.564 -16.276  1.00141.18     0.019 A 
HETATM    8  C14 MIQ B 502     -20.293 -14.934 -15.989  1.00138.77     0.033 A 
HETATM    9  C15 MIQ B 502     -19.505 -13.718 -16.577  1.00142.10     0.195 A 
HETATM   10  N17 MIQ B 502     -18.372 -13.654 -15.897  1.00139.42    -0.288 N 
HETATM   11  O16 MIQ B 502     -19.916 -12.876 -17.611  1.00148.93    -0.171 OA
ENDROOT
BRANCH  10  12
HETATM   12  C18 MIQ B 502     -17.371 -12.644 -16.185  1.00139.82     0.187 C 
HETATM   13  C19 MIQ B 502     -16.042 -13.362 -16.448  1.00140.06     0.247 C 
HETATM   14  O25 MIQ B 502     -16.011 -14.247 -17.227  1.00143.95    -0.271 OA
HETATM   15  N20 MIQ B 502     -14.820 -12.981 -15.770  1.00140.02    -0.296 N 
HETATM   16  H13 MIQ B 502     -13.961 -13.462 -15.946  1.00142.77     0.171 HD
HETATM   17  C21 MIQ B 502     -14.886 -11.904 -14.816  1.00142.22     0.224 C 
HETATM   18  C22 MIQ B 502     -16.174 -11.773 -14.025  1.00139.52     0.106 C 
HETATM   19  O24 MIQ B 502     -13.983 -11.158 -14.663  1.00146.13    -0.273 OA
HETATM   20  C23 MIQ B 502     -17.292 -11.633 -15.042  1.00139.15     0.045 C 
ENDBRANCH  10  12
BRANCH   5  21
HETATM   21  N6  MIQ B 502     -21.606 -18.396 -13.717  1.00140.95    -0.377 N 
HETATM   22  C7  MIQ B 502     -20.778 -19.590 -13.757  1.00142.12     0.149 C 
HETATM   23  C8  MIQ B 502     -21.589 -20.853 -13.495  1.00144.10     0.187 C 
HETATM   24  O9  MIQ B 502     -22.422 -20.742 -12.380  1.00148.65    -0.388 OA
HETATM   25  C10 MIQ B 502     -22.618 -19.504 -11.763  1.00147.44     0.187 C 
HETATM   26  C11 MIQ B 502     -22.543 -18.243 -12.618  1.00144.08     0.149 C 
ENDBRANCH   5  21
TORSDOF 2
ENDMDL
MODEL 5
REMARK VINA RESULT:      -5.8      1.863      7.869
REMARK  2 active torsions:
REMARK  status: ('A' for Active; 'I' for Inactive)
REMARK    1  A    between atoms: C5_5  and  N6_21 
REMARK    2  A    between atoms: C18_14  and  N17_19 
ROOT
HETATM    1  O1  MIQ B 502      -1.558 -21.959 -11.578  1.00142.91    -0.171 OA
HETATM    2  C2  MIQ B 502      -1.931 -20.658 -11.922  1.00141.17     0.195 A 
HETATM    3  C3  MIQ B 502      -2.564 -20.207 -13.277  1.00141.71     0.035 A 
HETATM    4  C4  MIQ B 502      -2.942 -20.930 -14.515  1.00142.86     0.046 A 
HETATM    5  C5  MIQ B 502      -3.514 -20.229 -15.607  1.00139.53     0.031 A 
HETATM    6  C12 MIQ B 502      -3.730 -18.793 -15.511  1.00139.38     0.030 A 
HETATM    7  C13 MIQ B 502      -3.368 -18.100 -14.324  1.00141.18     0.019 A 
HETATM    8  C14 MIQ B 502      -2.771 -18.841 -13.180  1.00138.77     0.033 A 
HETATM    9  C15 MIQ B 502      -2.264 -18.441 -11.756  1.00142.10     0.195 A 
HETATM   10  N17 MIQ B 502      -1.836 -19.559 -11.193  1.00139.42    -0.288 N 
HETATM   11  O16 MIQ B 502      -2.263 -17.161 -11.198  1.00148.93    -0.171 OA
ENDROOT
BRANCH  10  12
HETATM   12  C18 MIQ B 502      -1.274 -19.567  -9.855  1.00139.82     0.187 C 
HETATM   13  C19 MIQ B 502       0.108 -20.228  -9.932  1.00140.06     0.247 C 
HETATM   14  O25 MIQ B 502       0.885 -19.848 -10.734  1.00143.95    -0.271 OA
HETATM   15  N20 MIQ B 502       0.489 -21.306  -9.042  1.00140.02    -0.296 N 
HETATM   16  H13 MIQ B 502       1.391 -21.734  -9.106  1.00142.77     0.171 HD
HETATM   17  C21 MIQ B 502      -0.481 -21.760  -8.079  1.00142.22     0.224 C 
HETATM   18  C22 MIQ B 502      -1.937 -21.707  -8.500  1.00139.52     0.106 C 
HETATM   19  O24 MIQ B 502      -0.156 -22.148  -7.011  1.00146.13    -0.273 OA
HETATM   20  C23 MIQ B 502      -2.223 -20.267  -8.884  1.00139.15     0.045 C 
ENDBRANCH  10  12
BRANCH   5  21
HETATM   21  N6  MIQ B 502      -3.866 -20.947 -16.819  1.00140.95    -0.377 N 
HETATM   22  C7  MIQ B 502      -4.983 -21.874 -16.777  1.00142.12     0.149 C 
HETATM   23  C8  MIQ B 502      -4.848 -22.976 -17.820  1.00144.10     0.187 C 
HETATM   24  O9  MIQ B 502      -4.525 -22.488 -19.088  1.00148.65    -0.388 OA
HETATM   25  C10 MIQ B 502      -4.150 -21.152 -19.257  1.00147.44     0.187 C 
HETATM   26  C11 MIQ B 502      -3.433 -20.445 -18.111  1.00144.08     0.149 C 
ENDBRANCH   5  21
TORSDOF 2
ENDMDL
MODEL 6
REMARK VINA RESULT:      -5.8      2.190      7.943
REMARK  2 active torsions:
REMARK  status: ('A' for Active; 'I' for Inactive)
REMARK    1  A    between atoms: C5_5  and  N6_21 
REMARK    2  A    between atoms: C18_14  and  N17_19 
ROOT
HETATM    1  O1  MIQ B 502      -2.109 -21.437 -12.897  1.00142.91    -0.171 OA
HETATM    2  C2  MIQ B 502      -2.269 -20.467 -13.889  1.00141.17     0.195 A 
HETATM    3  C3  MIQ B 502      -3.011 -20.655 -15.251  1.00141.71     0.035 A 
HETATM    4  C4  MIQ B 502      -3.718 -21.797 -15.877  1.00142.86     0.046 A 
HETATM    5  C5  MIQ B 502      -4.308 -21.659 -17.158  1.00139.53     0.031 A 
HETATM    6  C12 MIQ B 502      -4.219 -20.387 -17.862  1.00139.38     0.030 A 
HETATM    7  C13 MIQ B 502      -3.542 -19.291 -17.261  1.00141.18     0.019 A 
HETATM    8  C14 MIQ B 502      -2.926 -19.442 -15.914  1.00138.77     0.033 A 
HETATM    9  C15 MIQ B 502      -2.129 -18.495 -14.959  1.00142.10     0.195 A 
HETATM   10  N17 MIQ B 502      -1.844 -19.215 -13.886  1.00139.42    -0.288 N 
HETATM   11  O16 MIQ B 502      -1.787 -17.163 -15.196  1.00148.93    -0.171 OA
ENDROOT
BRANCH  10  12
HETATM   12  C18 MIQ B 502      -1.087 -18.659 -12.780  1.00139.82     0.187 C 
HETATM   13  C19 MIQ B 502       0.128 -19.564 -12.543  1.00140.06     0.247 C 
HETATM   14  O25 MIQ B 502       0.822 -19.846 -13.454  1.00143.95    -0.271 OA
HETATM   15  N20 MIQ B 502       0.452 -20.079 -11.229  1.00140.02    -0.296 N 
HETATM   16  H13 MIQ B 502       1.245 -20.675 -11.089  1.00142.77     0.171 HD
HETATM   17  C21 MIQ B 502      -0.416 -19.730 -10.134  1.00142.22     0.224 C 
HETATM   18  C22 MIQ B 502      -1.889 -19.567 -10.458  1.00139.52     0.106 C 
HETATM   19  O24 MIQ B 502       0.002 -19.572  -9.040  1.00146.13    -0.273 OA
HETATM   20  C23 MIQ B 502      -1.977 -18.513 -11.547  1.00139.15     0.045 C 
ENDBRANCH  10  12
BRANCH   5  21
HETATM   21  N6  MIQ B 502      -4.985 -22.790 -17.766  1.00140.95    -0.377 N 
HETATM   22  C7  MIQ B 502      -5.193 -22.784 -19.204  1.00142.12     0.149 C 
HETATM   23  C8  MIQ B 502      -6.402 -23.618 -19.607  1.00144.10     0.187 C 
HETATM   24  O9  MIQ B 502      -6.418 -24.879 -19.006  1.00148.65    -0.388 OA
HETATM   25  C10 MIQ B 502      -5.521 -25.184 -17.979  1.00147.44     0.187 C 
HETATM   26  C11 MIQ B 502      -5.050 -24.059 -17.064  1.00144.08     0.149 C 
ENDBRANCH   5  21
TORSDOF 2
ENDMDL
MODEL 7
REMARK VINA RESULT:      -5.8      2.240      7.629
REMARK  2 active torsions:
REMARK  status: ('A' for Active; 'I' for Inactive)
REMARK    1  A    between atoms: C5_5  and  N6_21 
REMARK    2  A    between atoms: C18_14  and  N17_19 
ROOT
HETATM    1  O1  MIQ B 502      -1.255 -21.317 -12.955  1.00142.91    -0.171 OA
HETATM    2  C2  MIQ B 502      -2.218 -20.512 -13.567  1.00141.17     0.195 A 
HETATM    3  C3  MIQ B 502      -2.518 -20.436 -15.098  1.00141.71     0.035 A 
HETATM    4  C4  MIQ B 502      -1.947 -21.119 -16.284  1.00142.86     0.046 A 
HETATM    5  C5  MIQ B 502      -2.442 -20.835 -17.582  1.00139.53     0.031 A 
HETATM    6  C12 MIQ B 502      -3.517 -19.868 -17.750  1.00139.38     0.030 A 
HETATM    7  C13 MIQ B 502      -4.065 -19.214 -16.614  1.00141.18     0.019 A 
HETATM    8  C14 MIQ B 502      -3.544 -19.518 -15.253  1.00138.77     0.033 A 
HETATM    9  C15 MIQ B 502      -3.883 -19.021 -13.810  1.00142.10     0.195 A 
HETATM   10  N17 MIQ B 502      -3.063 -19.669 -12.998  1.00139.42    -0.288 N 
HETATM   11  O16 MIQ B 502      -4.852 -18.081 -13.455  1.00148.93    -0.171 OA
ENDROOT
BRANCH  10  12
HETATM   12  C18 MIQ B 502      -3.083 -19.446 -11.565  1.00139.82     0.187 C 
HETATM   13  C19 MIQ B 502      -1.666 -19.046 -11.135  1.00140.06     0.247 C 
HETATM   14  O25 MIQ B 502      -1.113 -18.176 -11.708  1.00143.95    -0.271 OA
HETATM   15  N20 MIQ B 502      -0.987 -19.704 -10.037  1.00140.02    -0.296 N 
HETATM   16  H13 MIQ B 502      -0.060 -19.439  -9.770  1.00142.77     0.171 HD
HETATM   17  C21 MIQ B 502      -1.678 -20.770  -9.359  1.00142.22     0.224 C 
HETATM   18  C22 MIQ B 502      -2.601 -21.629 -10.202  1.00139.52     0.106 C 
HETATM   19  O24 MIQ B 502      -1.536 -20.961  -8.201  1.00146.13    -0.273 OA
HETATM   20  C23 MIQ B 502      -3.604 -20.685 -10.840  1.00139.15     0.045 C 
ENDBRANCH  10  12
BRANCH   5  21
HETATM   21  N6  MIQ B 502      -1.864 -21.500 -18.735  1.00140.95    -0.377 N 
HETATM   22  C7  MIQ B 502      -0.467 -21.253 -19.051  1.00142.12     0.149 C 
HETATM   23  C8  MIQ B 502      -0.177 -21.447 -20.534  1.00144.10     0.187 C 
HETATM   24  O9  MIQ B 502      -0.702 -22.638 -21.039  1.00148.65    -0.388 OA
HETATM   25  C10 MIQ B 502      -1.585 -23.403 -20.274  1.00147.44     0.187 C 
HETATM   26  C11 MIQ B 502      -2.495 -22.690 -19.279  1.00144.08     0.149 C 
ENDBRANCH   5  21
TORSDOF 2
ENDMDL
MODEL 8
REMARK VINA RESULT:      -5.7     22.860     25.312
REMARK  2 active torsions:
REMARK  status: ('A' for Active; 'I' for Inactive)
REMARK    1  A    between atoms: C5_5  and  N6_21 
REMARK    2  A    between atoms: C18_14  and  N17_19 
ROOT
HETATM    1  O1  MIQ B 502      -9.939   2.173 -11.500  1.00142.91    -0.171 OA
HETATM    2  C2  MIQ B 502     -11.142   2.809 -11.184  1.00141.17     0.195 A 
HETATM    3  C3  MIQ B 502     -12.307   2.208 -10.334  1.00141.71     0.035 A 
HETATM    4  C4  MIQ B 502     -12.504   0.909  -9.649  1.00142.86     0.046 A 
HETATM    5  C5  MIQ B 502     -13.701   0.649  -8.935  1.00139.53     0.031 A 
HETATM    6  C12 MIQ B 502     -14.740   1.666  -8.873  1.00139.38     0.030 A 
HETATM    7  C13 MIQ B 502     -14.551   2.913  -9.528  1.00141.18     0.019 A 
HETATM    8  C14 MIQ B 502     -13.292   3.181 -10.275  1.00138.77     0.033 A 
HETATM    9  C15 MIQ B 502     -12.735   4.392 -11.093  1.00142.10     0.195 A 
HETATM   10  N17 MIQ B 502     -11.540   4.023 -11.523  1.00139.42    -0.288 N 
HETATM   11  O16 MIQ B 502     -13.375   5.611 -11.322  1.00148.93    -0.171 OA
ENDROOT
BRANCH  10  12
HETATM   12  C18 MIQ B 502     -10.724   4.902 -12.340  1.00139.82     0.187 C 
HETATM   13  C19 MIQ B 502     -10.284   4.114 -13.579  1.00140.06     0.247 C 
HETATM   14  O25 MIQ B 502     -11.095   3.545 -14.219  1.00143.95    -0.271 OA
HETATM   15  N20 MIQ B 502      -8.896   4.051 -13.991  1.00140.02    -0.296 N 
HETATM   16  H13 MIQ B 502      -8.620   3.528 -14.799  1.00142.77     0.171 HD
HETATM   17  C21 MIQ B 502      -7.922   4.745 -13.188  1.00142.22     0.224 C 
HETATM   18  C22 MIQ B 502      -8.188   4.805 -11.696  1.00139.52     0.106 C 
HETATM   19  O24 MIQ B 502      -6.967   5.246 -13.671  1.00146.13    -0.273 OA
HETATM   20  C23 MIQ B 502      -9.552   5.449 -11.527  1.00139.15     0.045 C 
ENDBRANCH  10  12
BRANCH   5  21
HETATM   21  N6  MIQ B 502     -13.887  -0.634  -8.282  1.00140.95    -0.377 N 
HETATM   22  C7  MIQ B 502     -12.766  -1.557  -8.232  1.00142.12     0.149 C 
HETATM   23  C8  MIQ B 502     -13.226  -3.006  -8.137  1.00144.10     0.187 C 
HETATM   24  O9  MIQ B 502     -14.205  -3.202  -7.161  1.00148.65    -0.388 OA
HETATM   25  C10 MIQ B 502     -14.817  -2.109  -6.543  1.00147.44     0.187 C 
HETATM   26  C11 MIQ B 502     -14.973  -0.816  -7.336  1.00144.08     0.149 C 
ENDBRANCH   5  21
TORSDOF 2
ENDMDL
MODEL 9
REMARK VINA RESULT:      -5.7     16.534     18.074
REMARK  2 active torsions:
REMARK  status: ('A' for Active; 'I' for Inactive)
REMARK    1  A    between atoms: C5_5  and  N6_21 
REMARK    2  A    between atoms: C18_14  and  N17_19 
ROOT
HETATM    1  O1  MIQ B 502     -17.162 -15.593 -13.453  1.00142.91    -0.171 OA
HETATM    2  C2  MIQ B 502     -18.371 -15.885 -14.089  1.00141.17     0.195 A 
HETATM    3  C3  MIQ B 502     -19.240 -17.165 -13.875  1.00141.71     0.035 A 
HETATM    4  C4  MIQ B 502     -19.092 -18.365 -13.018  1.00142.86     0.046 A 
HETATM    5  C5  MIQ B 502     -20.074 -19.388 -13.041  1.00139.53     0.031 A 
HETATM    6  C12 MIQ B 502     -21.234 -19.256 -13.911  1.00139.38     0.030 A 
HETATM    7  C13 MIQ B 502     -21.377 -18.105 -14.732  1.00141.18     0.019 A 
HETATM    8  C14 MIQ B 502     -20.344 -17.034 -14.702  1.00138.77     0.033 A 
HETATM    9  C15 MIQ B 502     -20.159 -15.664 -15.433  1.00142.10     0.195 A 
HETATM   10  N17 MIQ B 502     -19.024 -15.158 -14.980  1.00139.42    -0.288 N 
HETATM   11  O16 MIQ B 502     -21.019 -15.097 -16.375  1.00148.93    -0.171 OA
ENDROOT
BRANCH  10  12
HETATM   12  C18 MIQ B 502     -18.519 -13.884 -15.456  1.00139.82     0.187 C 
HETATM   13  C19 MIQ B 502     -17.086 -14.106 -15.956  1.00140.06     0.247 C 
HETATM   14  O25 MIQ B 502     -16.872 -14.978 -16.720  1.00143.95    -0.271 OA
HETATM   15  N20 MIQ B 502     -15.987 -13.269 -15.519  1.00140.02    -0.296 N 
HETATM   16  H13 MIQ B 502     -15.055 -13.428 -15.848  1.00142.77     0.171 HD
HETATM   17  C21 MIQ B 502     -16.273 -12.218 -14.577  1.00142.22     0.224 C 
HETATM   18  C22 MIQ B 502     -17.366 -12.490 -13.562  1.00139.52     0.106 C 
HETATM   19  O24 MIQ B 502     -15.686 -11.192 -14.600  1.00146.13    -0.273 OA
HETATM   20  C23 MIQ B 502     -18.615 -12.829 -14.355  1.00139.15     0.045 C 
ENDBRANCH  10  12
BRANCH   5  21
HETATM   21  N6  MIQ B 502     -19.909 -20.565 -12.207  1.00140.95    -0.377 N 
HETATM   22  C7  MIQ B 502     -18.987 -20.498 -11.086  1.00142.12     0.149 C 
HETATM   23  C8  MIQ B 502     -18.431 -21.870 -10.725  1.00144.10     0.187 C 
HETATM   24  O9  MIQ B 502     -19.421 -22.849 -10.626  1.00148.65    -0.388 OA
HETATM   25  C10 MIQ B 502     -20.724 -22.584 -11.056  1.00147.44     0.187 C 
HETATM   26  C11 MIQ B 502     -20.928 -21.599 -12.203  1.00144.08     0.149 C 
ENDBRANCH   5  21
TORSDOF 2
ENDMDL
