MODEL 1
REMARK VINA RESULT:      -6.4      0.000      0.000
REMARK  2 active torsions:
REMARK  status: ('A' for Active; 'I' for Inactive)
REMARK    1  A    between atoms: C5_5  and  N6_21 
REMARK    2  A    between atoms: C18_14  and  N17_19 
ROOT
HETATM    1  O1  MIQ B 502       8.105  12.713  -4.285  1.00142.91    -0.171 OA
HETATM    2  C2  MIQ B 502       8.564  12.314  -5.542  1.00141.17     0.195 A 
HETATM    3  C3  MIQ B 502       9.935  11.632  -5.849  1.00141.71     0.035 A 
HETATM    4  C4  MIQ B 502      11.082  11.222  -5.003  1.00142.86     0.046 A 
HETATM    5  C5  MIQ B 502      12.219  10.607  -5.586  1.00139.53     0.031 A 
HETATM    6  C12 MIQ B 502      12.259  10.377  -7.023  1.00139.38     0.030 A 
HETATM    7  C13 MIQ B 502      11.159  10.768  -7.834  1.00141.18     0.019 A 
HETATM    8  C14 MIQ B 502       9.967  11.411  -7.216  1.00138.77     0.033 A 
HETATM    9  C15 MIQ B 502       8.608  11.959  -7.761  1.00142.10     0.195 A 
HETATM   10  N17 MIQ B 502       7.951  12.418  -6.709  1.00139.42    -0.288 N 
HETATM   11  O16 MIQ B 502       8.180  11.962  -9.090  1.00148.93    -0.171 OA
ENDROOT
BRANCH  10  12
HETATM   12  C18 MIQ B 502       6.639  13.023  -6.840  1.00139.82     0.187 C 
HETATM   13  C19 MIQ B 502       5.770  12.078  -7.679  1.00140.06     0.247 C 
HETATM   14  O25 MIQ B 502       5.702  10.940  -7.379  1.00143.95    -0.271 OA
HETATM   15  N20 MIQ B 502       5.024  12.546  -8.829  1.00140.02    -0.296 N 
HETATM   16  H13 MIQ B 502       4.466  11.918  -9.373  1.00142.77     0.171 HD
HETATM   17  C21 MIQ B 502       5.131  13.938  -9.182  1.00142.22     0.224 C 
HETATM   18  C22 MIQ B 502       6.467  14.607  -8.918  1.00139.52     0.106 C 
HETATM   19  O24 MIQ B 502       4.221  14.530  -9.649  1.00146.13    -0.273 OA
HETATM   20  C23 MIQ B 502       6.756  14.424  -7.439  1.00139.15     0.045 C 
ENDBRANCH  10  12
BRANCH   5  21
HETATM   21  N6  MIQ B 502      13.340  10.225  -4.748  1.00140.95    -0.377 N 
HETATM   22  C7  MIQ B 502      14.537   9.704  -5.385  1.00142.12     0.149 C 
HETATM   23  C8  MIQ B 502      15.320   8.782  -4.458  1.00144.10     0.187 C 
HETATM   24  O9  MIQ B 502      15.509   9.324  -3.185  1.00148.65    -0.388 OA
HETATM   25  C10 MIQ B 502      14.827  10.482  -2.800  1.00147.44     0.187 C 
HETATM   26  C11 MIQ B 502      13.449  10.749  -3.397  1.00144.08     0.149 C 
ENDBRANCH   5  21
TORSDOF 2
ENDMDL
MODEL 2
REMARK VINA RESULT:      -6.2      4.275      8.757
REMARK  2 active torsions:
REMARK  status: ('A' for Active; 'I' for Inactive)
REMARK    1  A    between atoms: C5_5  and  N6_21 
REMARK    2  A    between atoms: C18_14  and  N17_19 
ROOT
HETATM    1  O1  MIQ B 502       7.924  16.117  -8.068  1.00142.91    -0.171 OA
HETATM    2  C2  MIQ B 502       7.714  14.827  -7.578  1.00141.17     0.195 A 
HETATM    3  C3  MIQ B 502       6.538  13.874  -7.963  1.00141.71     0.035 A 
HETATM    4  C4  MIQ B 502       5.380  14.003  -8.880  1.00142.86     0.046 A 
HETATM    5  C5  MIQ B 502       4.458  12.936  -9.024  1.00139.53     0.031 A 
HETATM    6  C12 MIQ B 502       4.650  11.708  -8.267  1.00139.38     0.030 A 
HETATM    7  C13 MIQ B 502       5.760  11.583  -7.389  1.00141.18     0.019 A 
HETATM    8  C14 MIQ B 502       6.727  12.705  -7.244  1.00138.77     0.033 A 
HETATM    9  C15 MIQ B 502       8.028  12.934  -6.407  1.00142.10     0.195 A 
HETATM   10  N17 MIQ B 502       8.447  14.151  -6.710  1.00139.42    -0.288 N 
HETATM   11  O16 MIQ B 502       8.620  12.033  -5.520  1.00148.93    -0.171 OA
ENDROOT
BRANCH  10  12
HETATM   12  C18 MIQ B 502       9.638  14.715  -6.101  1.00139.82     0.187 C 
HETATM   13  C19 MIQ B 502       9.227  16.003  -5.376  1.00140.06     0.247 C 
HETATM   14  O25 MIQ B 502       8.319  15.976  -4.625  1.00143.95    -0.271 OA
HETATM   15  N20 MIQ B 502       9.928  17.254  -5.585  1.00140.02    -0.296 N 
HETATM   16  H13 MIQ B 502       9.646  18.089  -5.111  1.00142.77     0.171 HD
HETATM   17  C21 MIQ B 502      11.027  17.263  -6.515  1.00142.22     0.224 C 
HETATM   18  C22 MIQ B 502      10.916  16.337  -7.711  1.00139.52     0.106 C 
HETATM   19  O24 MIQ B 502      11.971  17.956  -6.350  1.00146.13    -0.273 OA
HETATM   20  C23 MIQ B 502      10.720  14.938  -7.156  1.00139.15     0.045 C 
ENDBRANCH  10  12
BRANCH   5  21
HETATM   21  N6  MIQ B 502       3.320  13.082  -9.914  1.00140.95    -0.377 N 
HETATM   22  C7  MIQ B 502       2.127  12.296  -9.651  1.00142.12     0.149 C 
HETATM   23  C8  MIQ B 502       1.323  12.042 -10.920  1.00144.10     0.187 C 
HETATM   24  O9  MIQ B 502       1.121  13.198 -11.676  1.00148.65    -0.388 OA
HETATM   25  C10 MIQ B 502       1.809  14.374 -11.368  1.00147.44     0.187 C 
HETATM   26  C11 MIQ B 502       3.198  14.266 -10.747  1.00144.08     0.149 C 
ENDBRANCH   5  21
TORSDOF 2
ENDMDL
MODEL 3
REMARK VINA RESULT:      -6.2      1.987      2.745
REMARK  2 active torsions:
REMARK  status: ('A' for Active; 'I' for Inactive)
REMARK    1  A    between atoms: C5_5  and  N6_21 
REMARK    2  A    between atoms: C18_14  and  N17_19 
ROOT
HETATM    1  O1  MIQ B 502       8.898  11.338  -5.196  1.00142.91    -0.171 OA
HETATM    2  C2  MIQ B 502       9.819  12.184  -5.817  1.00141.17     0.195 A 
HETATM    3  C3  MIQ B 502      11.375  12.083  -5.719  1.00141.71     0.035 A 
HETATM    4  C4  MIQ B 502      12.294  11.157  -5.016  1.00142.86     0.046 A 
HETATM    5  C5  MIQ B 502      13.698  11.323  -5.121  1.00139.53     0.031 A 
HETATM    6  C12 MIQ B 502      14.239  12.409  -5.926  1.00139.38     0.030 A 
HETATM    7  C13 MIQ B 502      13.358  13.297  -6.601  1.00141.18     0.019 A 
HETATM    8  C14 MIQ B 502      11.885  13.116  -6.489  1.00138.77     0.033 A 
HETATM    9  C15 MIQ B 502      10.639  13.862  -7.068  1.00142.10     0.195 A 
HETATM   10  N17 MIQ B 502       9.580  13.219  -6.603  1.00139.42    -0.288 N 
HETATM   11  O16 MIQ B 502      10.648  14.980  -7.903  1.00148.93    -0.171 OA
ENDROOT
BRANCH  10  12
HETATM   12  C18 MIQ B 502       8.232  13.648  -6.926  1.00139.82     0.187 C 
HETATM   13  C19 MIQ B 502       7.454  13.777  -5.610  1.00140.06     0.247 C 
HETATM   14  O25 MIQ B 502       7.917  14.407  -4.727  1.00143.95    -0.271 OA
HETATM   15  N20 MIQ B 502       6.162  13.150  -5.423  1.00140.02    -0.296 N 
HETATM   16  H13 MIQ B 502       5.667  13.236  -4.557  1.00142.77     0.171 HD
HETATM   17  C21 MIQ B 502       5.622  12.377  -6.512  1.00142.22     0.224 C 
HETATM   18  C22 MIQ B 502       6.620  11.635  -7.380  1.00139.52     0.106 C 
HETATM   19  O24 MIQ B 502       4.460  12.329  -6.720  1.00146.13    -0.273 OA
HETATM   20  C23 MIQ B 502       7.587  12.676  -7.913  1.00139.15     0.045 C 
ENDBRANCH  10  12
BRANCH   5  21
HETATM   21  N6  MIQ B 502      14.586  10.418  -4.415  1.00140.95    -0.377 N 
HETATM   22  C7  MIQ B 502      14.407  10.245  -2.984  1.00142.12     0.149 C 
HETATM   23  C8  MIQ B 502      15.703   9.837  -2.294  1.00144.10     0.187 C 
HETATM   24  O9  MIQ B 502      16.359   8.790  -2.944  1.00148.65    -0.388 OA
HETATM   25  C10 MIQ B 502      15.941   8.371  -4.210  1.00147.44     0.187 C 
HETATM   26  C11 MIQ B 502      15.314   9.397  -5.148  1.00144.08     0.149 C 
ENDBRANCH   5  21
TORSDOF 2
ENDMDL
MODEL 4
REMARK VINA RESULT:      -6.2      2.415      8.034
REMARK  2 active torsions:
REMARK  status: ('A' for Active; 'I' for Inactive)
REMARK    1  A    between atoms: C5_5  and  N6_21 
REMARK    2  A    between atoms: C18_14  and  N17_19 
ROOT
HETATM    1  O1  MIQ B 502      10.808   9.950  -5.726  1.00142.91    -0.171 OA
HETATM    2  C2  MIQ B 502      10.766  11.268  -6.185  1.00141.17     0.195 A 
HETATM    3  C3  MIQ B 502       9.479  12.099  -6.491  1.00141.71     0.035 A 
HETATM    4  C4  MIQ B 502       8.030  11.801  -6.402  1.00142.86     0.046 A 
HETATM    5  C5  MIQ B 502       7.073  12.786  -6.756  1.00139.53     0.031 A 
HETATM    6  C12 MIQ B 502       7.518  14.096  -7.208  1.00139.38     0.030 A 
HETATM    7  C13 MIQ B 502       8.908  14.382  -7.292  1.00141.18     0.019 A 
HETATM    8  C14 MIQ B 502       9.907  13.345  -6.917  1.00138.77     0.033 A 
HETATM    9  C15 MIQ B 502      11.469  13.289  -6.875  1.00142.10     0.195 A 
HETATM   10  N17 MIQ B 502      11.780  12.076  -6.448  1.00139.42    -0.288 N 
HETATM   11  O16 MIQ B 502      12.352  14.313  -7.222  1.00148.93    -0.171 OA
ENDROOT
BRANCH  10  12
HETATM   12  C18 MIQ B 502      13.160  11.656  -6.299  1.00139.82     0.187 C 
HETATM   13  C19 MIQ B 502      13.316  10.301  -7.001  1.00140.06     0.247 C 
HETATM   14  O25 MIQ B 502      12.936  10.182  -8.112  1.00143.95    -0.271 OA
HETATM   15  N20 MIQ B 502      13.921   9.163  -6.341  1.00140.02    -0.296 N 
HETATM   16  H13 MIQ B 502      14.010   8.283  -6.808  1.00142.77     0.171 HD
HETATM   17  C21 MIQ B 502      14.367   9.331  -4.981  1.00142.22     0.224 C 
HETATM   18  C22 MIQ B 502      13.558  10.273  -4.111  1.00139.52     0.106 C 
HETATM   19  O24 MIQ B 502      15.319   8.765  -4.569  1.00146.13    -0.273 OA
HETATM   20  C23 MIQ B 502      13.547  11.614  -4.821  1.00139.15     0.045 C 
ENDBRANCH  10  12
BRANCH   5  21
HETATM   21  N6  MIQ B 502       5.657  12.476  -6.679  1.00140.95    -0.377 N 
HETATM   22  C7  MIQ B 502       5.071  11.642  -7.714  1.00142.12     0.149 C 
HETATM   23  C8  MIQ B 502       3.584  11.918  -7.893  1.00144.10     0.187 C 
HETATM   24  O9  MIQ B 502       2.887  11.946  -6.683  1.00148.65    -0.388 OA
HETATM   25  C10 MIQ B 502       3.578  11.949  -5.469  1.00147.44     0.187 C 
HETATM   26  C11 MIQ B 502       4.954  12.603  -5.414  1.00144.08     0.149 C 
ENDBRANCH   5  21
TORSDOF 2
ENDMDL
MODEL 5
REMARK VINA RESULT:      -6.2      3.140      8.906
REMARK  2 active torsions:
REMARK  status: ('A' for Active; 'I' for Inactive)
REMARK    1  A    between atoms: C5_5  and  N6_21 
REMARK    2  A    between atoms: C18_14  and  N17_19 
ROOT
HETATM    1  O1  MIQ B 502       8.117  11.964  -8.406  1.00142.91    -0.171 OA
HETATM    2  C2  MIQ B 502       7.058  12.188  -7.524  1.00141.17     0.195 A 
HETATM    3  C3  MIQ B 502       5.543  11.948  -7.822  1.00141.71     0.035 A 
HETATM    4  C4  MIQ B 502       4.804  11.455  -9.008  1.00142.86     0.046 A 
HETATM    5  C5  MIQ B 502       3.391  11.342  -8.975  1.00139.53     0.031 A 
HETATM    6  C12 MIQ B 502       2.664  11.713  -7.770  1.00139.38     0.030 A 
HETATM    7  C13 MIQ B 502       3.373  12.185  -6.632  1.00141.18     0.019 A 
HETATM    8  C14 MIQ B 502       4.856  12.299  -6.671  1.00138.77     0.033 A 
HETATM    9  C15 MIQ B 502       5.951  12.757  -5.653  1.00142.10     0.195 A 
HETATM   10  N17 MIQ B 502       7.108  12.632  -6.280  1.00139.42    -0.288 N 
HETATM   11  O16 MIQ B 502       5.742  13.209  -4.349  1.00148.93    -0.171 OA
ENDROOT
BRANCH  10  12
HETATM   12  C18 MIQ B 502       8.360  12.987  -5.637  1.00139.82     0.187 C 
HETATM   13  C19 MIQ B 502       9.137  13.898  -6.596  1.00140.06     0.247 C 
HETATM   14  O25 MIQ B 502       8.597  14.839  -7.060  1.00143.95    -0.271 OA
HETATM   15  N20 MIQ B 502      10.518  13.638  -6.946  1.00140.02    -0.296 N 
HETATM   16  H13 MIQ B 502      11.012  14.237  -7.578  1.00142.77     0.171 HD
HETATM   17  C21 MIQ B 502      11.151  12.478  -6.375  1.00142.22     0.224 C 
HETATM   18  C22 MIQ B 502      10.269  11.267  -6.140  1.00139.52     0.106 C 
HETATM   19  O24 MIQ B 502      12.301  12.473  -6.100  1.00146.13    -0.273 OA
HETATM   20  C23 MIQ B 502       9.132  11.728  -5.246  1.00139.15     0.045 C 
ENDBRANCH  10  12
BRANCH   5  21
HETATM   21  N6  MIQ B 502       2.678  10.872 -10.149  1.00140.95    -0.377 N 
HETATM   22  C7  MIQ B 502       2.022  11.849 -11.002  1.00142.12     0.149 C 
HETATM   23  C8  MIQ B 502       0.842  11.247 -11.753  1.00144.10     0.187 C 
HETATM   24  O9  MIQ B 502       1.151  10.031 -12.367  1.00148.65    -0.388 OA
HETATM   25  C10 MIQ B 502       2.356   9.382 -12.084  1.00147.44     0.187 C 
HETATM   26  C11 MIQ B 502       2.975   9.562 -10.702  1.00144.08     0.149 C 
ENDBRANCH   5  21
TORSDOF 2
ENDMDL
MODEL 6
REMARK VINA RESULT:      -6.2      2.145      3.371
REMARK  2 active torsions:
REMARK  status: ('A' for Active; 'I' for Inactive)
REMARK    1  A    between atoms: C5_5  and  N6_21 
REMARK    2  A    between atoms: C18_14  and  N17_19 
ROOT
HETATM    1  O1  MIQ B 502       6.474  10.963  -9.307  1.00142.91    -0.171 OA
HETATM    2  C2  MIQ B 502       6.833  11.559  -8.096  1.00141.17     0.195 A 
HETATM    3  C3  MIQ B 502       8.225  11.460  -7.395  1.00141.71     0.035 A 
HETATM    4  C4  MIQ B 502       9.495  10.778  -7.743  1.00142.86     0.046 A 
HETATM    5  C5  MIQ B 502      10.619  10.875  -6.885  1.00139.53     0.031 A 
HETATM    6  C12 MIQ B 502      10.525  11.650  -5.656  1.00139.38     0.030 A 
HETATM    7  C13 MIQ B 502       9.309  12.304  -5.323  1.00141.18     0.019 A 
HETATM    8  C14 MIQ B 502       8.132  12.201  -6.229  1.00138.77     0.033 A 
HETATM    9  C15 MIQ B 502       6.674  12.764  -6.205  1.00142.10     0.195 A 
HETATM   10  N17 MIQ B 502       6.093  12.319  -7.307  1.00139.42    -0.288 N 
HETATM   11  O16 MIQ B 502       6.105  13.570  -5.217  1.00148.93    -0.171 OA
ENDROOT
BRANCH  10  12
HETATM   12  C18 MIQ B 502       4.710  12.635  -7.614  1.00139.82     0.187 C 
HETATM   13  C19 MIQ B 502       3.939  11.313  -7.710  1.00140.06     0.247 C 
HETATM   14  O25 MIQ B 502       4.027  10.530  -6.832  1.00143.95    -0.271 OA
HETATM   15  N20 MIQ B 502       3.098  10.999  -8.847  1.00140.02    -0.296 N 
HETATM   16  H13 MIQ B 502       2.605  10.130  -8.901  1.00142.77     0.171 HD
HETATM   17  C21 MIQ B 502       3.015  11.967  -9.911  1.00142.22     0.224 C 
HETATM   18  C22 MIQ B 502       4.263  12.781 -10.190  1.00139.52     0.106 C 
HETATM   19  O24 MIQ B 502       2.020  12.120 -10.531  1.00146.13    -0.273 OA
HETATM   20  C23 MIQ B 502       4.627  13.473  -8.889  1.00139.15     0.045 C 
ENDBRANCH  10  12
BRANCH   5  21
HETATM   21  N6  MIQ B 502      11.851  10.190  -7.231  1.00140.95    -0.377 N 
HETATM   22  C7  MIQ B 502      12.572   9.486  -6.184  1.00142.12     0.149 C 
HETATM   23  C8  MIQ B 502      14.062   9.388  -6.486  1.00144.10     0.187 C 
HETATM   24  O9  MIQ B 502      14.325   8.956  -7.787  1.00148.65    -0.388 OA
HETATM   25  C10 MIQ B 502      13.295   8.868  -8.726  1.00147.44     0.187 C 
HETATM   26  C11 MIQ B 502      12.121   9.836  -8.613  1.00144.08     0.149 C 
ENDBRANCH   5  21
TORSDOF 2
ENDMDL
MODEL 7
REMARK VINA RESULT:      -6.1      7.008     10.583
REMARK  2 active torsions:
REMARK  status: ('A' for Active; 'I' for Inactive)
REMARK    1  A    between atoms: C5_5  and  N6_21 
REMARK    2  A    between atoms: C18_14  and  N17_19 
ROOT
HETATM    1  O1  MIQ B 502       8.575  17.592  -8.186  1.00142.91    -0.171 OA
HETATM    2  C2  MIQ B 502       9.877  17.968  -8.521  1.00141.17     0.195 A 
HETATM    3  C3  MIQ B 502      10.287  19.197  -9.394  1.00141.71     0.035 A 
HETATM    4  C4  MIQ B 502       9.517  20.260 -10.082  1.00142.86     0.046 A 
HETATM    5  C5  MIQ B 502      10.188  21.269 -10.818  1.00139.53     0.031 A 
HETATM    6  C12 MIQ B 502      11.642  21.260 -10.897  1.00139.38     0.030 A 
HETATM    7  C13 MIQ B 502      12.380  20.242 -10.236  1.00141.18     0.019 A 
HETATM    8  C14 MIQ B 502      11.670  19.186  -9.464  1.00138.77     0.033 A 
HETATM    9  C15 MIQ B 502      12.122  17.944  -8.628  1.00142.10     0.195 A 
HETATM   10  N17 MIQ B 502      11.012  17.385  -8.176  1.00139.42    -0.288 N 
HETATM   11  O16 MIQ B 502      13.433  17.516  -8.409  1.00148.93    -0.171 OA
ENDROOT
BRANCH  10  12
HETATM   12  C18 MIQ B 502      11.046  16.183  -7.363  1.00139.82     0.187 C 
HETATM   13  C19 MIQ B 502      10.106  15.157  -8.006  1.00140.06     0.247 C 
HETATM   14  O25 MIQ B 502      10.217  14.914  -9.155  1.00143.95    -0.271 OA
HETATM   15  N20 MIQ B 502       9.086  14.470  -7.240  1.00140.02    -0.296 N 
HETATM   16  H13 MIQ B 502       8.474  13.807  -7.673  1.00142.77     0.171 HD
HETATM   17  C21 MIQ B 502       8.963  14.791  -5.841  1.00142.22     0.224 C 
HETATM   18  C22 MIQ B 502       9.269  16.221  -5.440  1.00139.52     0.106 C 
HETATM   19  O24 MIQ B 502       8.645  13.976  -5.046  1.00146.13    -0.273 OA
HETATM   20  C23 MIQ B 502      10.681  16.509  -5.916  1.00139.15     0.045 C 
ENDBRANCH  10  12
BRANCH   5  21
HETATM   21  N6  MIQ B 502       9.420  22.296 -11.499  1.00140.95    -0.377 N 
HETATM   22  C7  MIQ B 502       7.970  22.242 -11.427  1.00142.12     0.149 C 
HETATM   23  C8  MIQ B 502       7.316  22.909 -12.630  1.00144.10     0.187 C 
HETATM   24  O9  MIQ B 502       7.853  24.166 -12.913  1.00148.65    -0.388 OA
HETATM   25  C10 MIQ B 502       9.017  24.599 -12.272  1.00147.44     0.187 C 
HETATM   26  C11 MIQ B 502      10.048  23.558 -11.851  1.00144.08     0.149 C 
ENDBRANCH   5  21
TORSDOF 2
ENDMDL
MODEL 8
REMARK VINA RESULT:      -6.1      2.224      8.321
REMARK  2 active torsions:
REMARK  status: ('A' for Active; 'I' for Inactive)
REMARK    1  A    between atoms: C5_5  and  N6_21 
REMARK    2  A    between atoms: C18_14  and  N17_19 
ROOT
HETATM    1  O1  MIQ B 502       8.889  12.141  -4.567  1.00142.91    -0.171 OA
HETATM    2  C2  MIQ B 502       9.048  11.813  -5.915  1.00141.17     0.195 A 
HETATM    3  C3  MIQ B 502       7.940  11.869  -7.014  1.00141.71     0.035 A 
HETATM    4  C4  MIQ B 502       6.508  12.252  -6.999  1.00142.86     0.046 A 
HETATM    5  C5  MIQ B 502       5.739  12.201  -8.190  1.00139.53     0.031 A 
HETATM    6  C12 MIQ B 502       6.362  11.771  -9.433  1.00139.38     0.030 A 
HETATM    7  C13 MIQ B 502       7.735  11.406  -9.449  1.00141.18     0.019 A 
HETATM    8  C14 MIQ B 502       8.537  11.463  -8.196  1.00138.77     0.033 A 
HETATM    9  C15 MIQ B 502      10.025  11.153  -7.829  1.00142.10     0.195 A 
HETATM   10  N17 MIQ B 502      10.140  11.400  -6.534  1.00139.42    -0.288 N 
HETATM   11  O16 MIQ B 502      11.024  10.704  -8.695  1.00148.93    -0.171 OA
ENDROOT
BRANCH  10  12
HETATM   12  C18 MIQ B 502      11.397  11.204  -5.835  1.00139.82     0.187 C 
HETATM   13  C19 MIQ B 502      12.471  12.017  -6.568  1.00140.06     0.247 C 
HETATM   14  O25 MIQ B 502      12.271  13.155  -6.804  1.00143.95    -0.271 OA
HETATM   15  N20 MIQ B 502      13.730  11.427  -6.974  1.00140.02    -0.296 N 
HETATM   16  H13 MIQ B 502      14.421  11.966  -7.458  1.00142.77     0.171 HD
HETATM   17  C21 MIQ B 502      13.947  10.033  -6.684  1.00142.22     0.224 C 
HETATM   18  C22 MIQ B 502      12.728   9.131  -6.724  1.00139.52     0.106 C 
HETATM   19  O24 MIQ B 502      15.021   9.615  -6.423  1.00146.13    -0.273 OA
HETATM   20  C23 MIQ B 502      11.728   9.715  -5.743  1.00139.15     0.045 C 
ENDBRANCH  10  12
BRANCH   5  21
HETATM   21  N6  MIQ B 502       4.334  12.564  -8.157  1.00140.95    -0.377 N 
HETATM   22  C7  MIQ B 502       3.725  13.090  -9.366  1.00142.12     0.149 C 
HETATM   23  C8  MIQ B 502       2.537  13.992  -9.058  1.00144.10     0.187 C 
HETATM   24  O9  MIQ B 502       1.650  13.428  -8.139  1.00148.65    -0.388 OA
HETATM   25  C10 MIQ B 502       1.996  12.268  -7.441  1.00147.44     0.187 C 
HETATM   26  C11 MIQ B 502       3.468  12.018  -7.127  1.00144.08     0.149 C 
ENDBRANCH   5  21
TORSDOF 2
ENDMDL
MODEL 9
REMARK VINA RESULT:      -6.1      4.350      5.427
REMARK  2 active torsions:
REMARK  status: ('A' for Active; 'I' for Inactive)
REMARK    1  A    between atoms: C5_5  and  N6_21 
REMARK    2  A    between atoms: C18_14  and  N17_19 
ROOT
HETATM    1  O1  MIQ B 502       5.397  13.931  -9.730  1.00142.91    -0.171 OA
HETATM    2  C2  MIQ B 502       5.393  13.394  -8.441  1.00141.17     0.195 A 
HETATM    3  C3  MIQ B 502       6.455  13.663  -7.327  1.00141.71     0.035 A 
HETATM    4  C4  MIQ B 502       7.685  14.488  -7.270  1.00142.86     0.046 A 
HETATM    5  C5  MIQ B 502       8.463  14.533  -6.085  1.00139.53     0.031 A 
HETATM    6  C12 MIQ B 502       8.050  13.765  -4.919  1.00139.38     0.030 A 
HETATM    7  C13 MIQ B 502       6.870  12.975  -4.974  1.00141.18     0.019 A 
HETATM    8  C14 MIQ B 502       6.056  12.933  -6.219  1.00138.77     0.033 A 
HETATM    9  C15 MIQ B 502       4.739  12.207  -6.648  1.00142.10     0.195 A 
HETATM   10  N17 MIQ B 502       4.512  12.571  -7.899  1.00139.42    -0.288 N 
HETATM   11  O16 MIQ B 502       3.966  11.349  -5.865  1.00148.93    -0.171 OA
ENDROOT
BRANCH  10  12
HETATM   12  C18 MIQ B 502       3.367  12.072  -8.637  1.00139.82     0.187 C 
HETATM   13  C19 MIQ B 502       3.867  11.583 -10.002  1.00140.06     0.247 C 
HETATM   14  O25 MIQ B 502       4.780  10.837 -10.047  1.00143.95    -0.271 OA
HETATM   15  N20 MIQ B 502       3.246  12.007 -11.240  1.00140.02    -0.296 N 
HETATM   16  H13 MIQ B 502       3.586  11.686 -12.125  1.00142.77     0.171 HD
HETATM   17  C21 MIQ B 502       2.140  12.927 -11.159  1.00142.22     0.224 C 
HETATM   18  C22 MIQ B 502       2.179  13.942 -10.033  1.00139.52     0.106 C 
HETATM   19  O24 MIQ B 502       1.245  12.886 -11.929  1.00146.13    -0.273 OA
HETATM   20  C23 MIQ B 502       2.291  13.151  -8.742  1.00139.15     0.045 C 
ENDBRANCH  10  12
BRANCH   5  21
HETATM   21  N6  MIQ B 502       9.673  15.334  -6.048  1.00140.95    -0.377 N 
HETATM   22  C7  MIQ B 502      10.709  15.074  -7.033  1.00142.12     0.149 C 
HETATM   23  C8  MIQ B 502      12.089  15.470  -6.524  1.00144.10     0.187 C 
HETATM   24  O9  MIQ B 502      12.114  16.745  -5.955  1.00148.65    -0.388 OA
HETATM   25  C10 MIQ B 502      10.922  17.428  -5.699  1.00147.44     0.187 C 
HETATM   26  C11 MIQ B 502       9.673  16.618  -5.368  1.00144.08     0.149 C 
ENDBRANCH   5  21
TORSDOF 2
ENDMDL
