MODEL 1
REMARK VINA RESULT:      -6.4      0.000      0.000
REMARK  2 active torsions:
REMARK  status: ('A' for Active; 'I' for Inactive)
REMARK    1  A    between atoms: C5_5  and  N6_21 
REMARK    2  A    between atoms: C18_14  and  N17_19 
ROOT
HETATM    1  O1  MIQ B 502     -19.687 -17.937   8.512  1.00142.91    -0.171 OA
HETATM    2  C2  MIQ B 502     -18.856 -16.903   8.075  1.00141.17     0.195 A 
HETATM    3  C3  MIQ B 502     -17.308 -16.821   8.266  1.00141.71     0.035 A 
HETATM    4  C4  MIQ B 502     -16.311 -17.714   8.901  1.00142.86     0.046 A 
HETATM    5  C5  MIQ B 502     -14.938 -17.360   8.917  1.00139.53     0.031 A 
HETATM    6  C12 MIQ B 502     -14.507 -16.112   8.303  1.00139.38     0.030 A 
HETATM    7  C13 MIQ B 502     -15.462 -15.256   7.693  1.00141.18     0.019 A 
HETATM    8  C14 MIQ B 502     -16.902 -15.634   7.678  1.00138.77     0.033 A 
HETATM    9  C15 MIQ B 502     -18.205 -14.976   7.118  1.00142.10     0.195 A 
HETATM   10  N17 MIQ B 502     -19.191 -15.805   7.418  1.00139.42    -0.288 N 
HETATM   11  O16 MIQ B 502     -18.303 -13.759   6.441  1.00148.93    -0.171 OA
ENDROOT
BRANCH  10  12
HETATM   12  C18 MIQ B 502     -20.566 -15.508   7.063  1.00139.82     0.187 C 
HETATM   13  C19 MIQ B 502     -20.587 -15.088   5.588  1.00140.06     0.247 C 
HETATM   14  O25 MIQ B 502     -20.064 -15.776   4.785  1.00143.95    -0.271 OA
HETATM   15  N20 MIQ B 502     -21.238 -13.870   5.150  1.00140.02    -0.296 N 
HETATM   16  H13 MIQ B 502     -21.239 -13.604   4.185  1.00142.77     0.171 HD
HETATM   17  C21 MIQ B 502     -21.861 -13.041   6.150  1.00142.22     0.224 C 
HETATM   18  C22 MIQ B 502     -21.202 -13.008   7.515  1.00139.52     0.106 C 
HETATM   19  O24 MIQ B 502     -22.841 -12.423   5.917  1.00146.13    -0.273 OA
HETATM   20  C23 MIQ B 502     -21.140 -14.446   7.999  1.00139.15     0.045 C 
ENDBRANCH  10  12
BRANCH   5  21
HETATM   21  N6  MIQ B 502     -13.974 -18.237   9.556  1.00140.95    -0.377 N 
HETATM   22  C7  MIQ B 502     -13.285 -19.223   8.741  1.00142.12     0.149 C 
HETATM   23  C8  MIQ B 502     -12.844 -20.429   9.560  1.00144.10     0.187 C 
HETATM   24  O9  MIQ B 502     -12.195 -20.075  10.744  1.00148.65    -0.388 OA
HETATM   25  C10 MIQ B 502     -12.196 -18.748  11.182  1.00147.44     0.187 C 
HETATM   26  C11 MIQ B 502     -13.389 -17.865  10.832  1.00144.08     0.149 C 
ENDBRANCH   5  21
TORSDOF 2
ENDMDL
MODEL 2
REMARK VINA RESULT:      -6.2      3.480      7.961
REMARK  2 active torsions:
REMARK  status: ('A' for Active; 'I' for Inactive)
REMARK    1  A    between atoms: C5_5  and  N6_21 
REMARK    2  A    between atoms: C18_14  and  N17_19 
ROOT
HETATM    1  O1  MIQ B 502     -16.925 -18.952  10.656  1.00142.91    -0.171 OA
HETATM    2  C2  MIQ B 502     -17.451 -17.959   9.827  1.00141.17     0.195 A 
HETATM    3  C3  MIQ B 502     -18.920 -17.428   9.842  1.00141.71     0.035 A 
HETATM    4  C4  MIQ B 502     -20.115 -17.760  10.653  1.00142.86     0.046 A 
HETATM    5  C5  MIQ B 502     -21.343 -17.087  10.429  1.00139.53     0.031 A 
HETATM    6  C12 MIQ B 502     -21.428 -16.064   9.397  1.00139.38     0.030 A 
HETATM    7  C13 MIQ B 502     -20.282 -15.745   8.620  1.00141.18     0.019 A 
HETATM    8  C14 MIQ B 502     -18.995 -16.453   8.861  1.00138.77     0.033 A 
HETATM    9  C15 MIQ B 502     -17.565 -16.378   8.234  1.00142.10     0.195 A 
HETATM   10  N17 MIQ B 502     -16.835 -17.271   8.882  1.00139.42    -0.288 N 
HETATM   11  O16 MIQ B 502     -17.149 -15.539   7.198  1.00148.93    -0.171 OA
ENDROOT
BRANCH  10  12
HETATM   12  C18 MIQ B 502     -15.439 -17.491   8.551  1.00139.82     0.187 C 
HETATM   13  C19 MIQ B 502     -15.254 -18.989   8.278  1.00140.06     0.247 C 
HETATM   14  O25 MIQ B 502     -15.977 -19.529   7.519  1.00143.95    -0.271 OA
HETATM   15  N20 MIQ B 502     -14.211 -19.759   8.923  1.00140.02    -0.296 N 
HETATM   16  H13 MIQ B 502     -14.105 -20.738   8.741  1.00142.77     0.171 HD
HETATM   17  C21 MIQ B 502     -13.347 -19.079   9.854  1.00142.22     0.224 C 
HETATM   18  C22 MIQ B 502     -13.969 -17.960  10.667  1.00139.52     0.106 C 
HETATM   19  O24 MIQ B 502     -12.210 -19.377   9.972  1.00146.13    -0.273 OA
HETATM   20  C23 MIQ B 502     -14.539 -16.968   9.669  1.00139.15     0.045 C 
ENDBRANCH  10  12
BRANCH   5  21
HETATM   21  N6  MIQ B 502     -22.509 -17.433  11.221  1.00140.95    -0.377 N 
HETATM   22  C7  MIQ B 502     -22.324 -17.763  12.623  1.00142.12     0.149 C 
HETATM   23  C8  MIQ B 502     -23.420 -18.686  13.140  1.00144.10     0.187 C 
HETATM   24  O9  MIQ B 502     -24.702 -18.255  12.793  1.00148.65    -0.388 OA
HETATM   25  C10 MIQ B 502     -24.875 -17.218  11.873  1.00147.44     0.187 C 
HETATM   26  C11 MIQ B 502     -23.833 -17.037  10.774  1.00144.08     0.149 C 
ENDBRANCH   5  21
TORSDOF 2
ENDMDL
MODEL 3
REMARK VINA RESULT:      -6.2      1.625      2.373
REMARK  2 active torsions:
REMARK  status: ('A' for Active; 'I' for Inactive)
REMARK    1  A    between atoms: C5_5  and  N6_21 
REMARK    2  A    between atoms: C18_14  and  N17_19 
ROOT
HETATM    1  O1  MIQ B 502     -19.700 -17.756   8.065  1.00142.91    -0.171 OA
HETATM    2  C2  MIQ B 502     -18.876 -16.693   7.690  1.00141.17     0.195 A 
HETATM    3  C3  MIQ B 502     -17.339 -16.581   7.948  1.00141.71     0.035 A 
HETATM    4  C4  MIQ B 502     -16.349 -17.469   8.601  1.00142.86     0.046 A 
HETATM    5  C5  MIQ B 502     -14.986 -17.085   8.683  1.00139.53     0.031 A 
HETATM    6  C12 MIQ B 502     -14.560 -15.811   8.121  1.00139.38     0.030 A 
HETATM    7  C13 MIQ B 502     -15.509 -14.960   7.494  1.00141.18     0.019 A 
HETATM    8  C14 MIQ B 502     -16.938 -15.370   7.409  1.00138.77     0.033 A 
HETATM    9  C15 MIQ B 502     -18.232 -14.726   6.812  1.00142.10     0.195 A 
HETATM   10  N17 MIQ B 502     -19.209 -15.585   7.050  1.00139.42    -0.288 N 
HETATM   11  O16 MIQ B 502     -18.330 -13.494   6.164  1.00148.93    -0.171 OA
ENDROOT
BRANCH  10  12
HETATM   12  C18 MIQ B 502     -20.575 -15.309   6.645  1.00139.82     0.187 C 
HETATM   13  C19 MIQ B 502     -21.466 -15.438   7.886  1.00140.06     0.247 C 
HETATM   14  O25 MIQ B 502     -21.172 -14.856   8.869  1.00143.95    -0.271 OA
HETATM   15  N20 MIQ B 502     -22.665 -16.251   7.885  1.00140.02    -0.296 N 
HETATM   16  H13 MIQ B 502     -23.235 -16.332   8.704  1.00142.77     0.171 HD
HETATM   17  C21 MIQ B 502     -22.997 -16.961   6.677  1.00142.22     0.224 C 
HETATM   18  C22 MIQ B 502     -21.836 -17.457   5.837  1.00139.52     0.106 C 
HETATM   19  O24 MIQ B 502     -24.120 -17.141   6.355  1.00146.13    -0.273 OA
HETATM   20  C23 MIQ B 502     -20.991 -16.241   5.507  1.00139.15     0.045 C 
ENDBRANCH  10  12
BRANCH   5  21
HETATM   21  N6  MIQ B 502     -14.029 -17.957   9.339  1.00140.95    -0.377 N 
HETATM   22  C7  MIQ B 502     -13.942 -17.928  10.789  1.00142.12     0.149 C 
HETATM   23  C8  MIQ B 502     -12.563 -18.342  11.284  1.00144.10     0.187 C 
HETATM   24  O9  MIQ B 502     -12.098 -19.513  10.682  1.00148.65    -0.388 OA
HETATM   25  C10 MIQ B 502     -12.770 -20.060   9.586  1.00147.44     0.187 C 
HETATM   26  C11 MIQ B 502     -13.508 -19.118   8.639  1.00144.08     0.149 C 
ENDBRANCH   5  21
TORSDOF 2
ENDMDL
MODEL 4
REMARK VINA RESULT:      -6.2      3.439      4.524
REMARK  2 active torsions:
REMARK  status: ('A' for Active; 'I' for Inactive)
REMARK    1  A    between atoms: C5_5  and  N6_21 
REMARK    2  A    between atoms: C18_14  and  N17_19 
ROOT
HETATM    1  O1  MIQ B 502     -20.334 -18.184  11.710  1.00142.91    -0.171 OA
HETATM    2  C2  MIQ B 502     -20.084 -17.395  10.585  1.00141.17     0.195 A 
HETATM    3  C3  MIQ B 502     -18.732 -17.298   9.808  1.00141.71     0.035 A 
HETATM    4  C4  MIQ B 502     -17.409 -17.943   9.982  1.00142.86     0.046 A 
HETATM    5  C5  MIQ B 502     -16.346 -17.648   9.091  1.00139.53     0.031 A 
HETATM    6  C12 MIQ B 502     -16.557 -16.707   8.000  1.00139.38     0.030 A 
HETATM    7  C13 MIQ B 502     -17.826 -16.090   7.833  1.00141.18     0.019 A 
HETATM    8  C14 MIQ B 502     -18.939 -16.406   8.769  1.00138.77     0.033 A 
HETATM    9  C15 MIQ B 502     -20.427 -15.946   8.902  1.00142.10     0.195 A 
HETATM   10  N17 MIQ B 502     -20.916 -16.587   9.951  1.00139.42    -0.288 N 
HETATM   11  O16 MIQ B 502     -21.099 -15.040   8.079  1.00148.93    -0.171 OA
ENDROOT
BRANCH  10  12
HETATM   12  C18 MIQ B 502     -22.285 -16.391  10.388  1.00139.82     0.187 C 
HETATM   13  C19 MIQ B 502     -22.250 -15.958  11.859  1.00140.06     0.247 C 
HETATM   14  O25 MIQ B 502     -21.553 -15.061  12.179  1.00143.95    -0.271 OA
HETATM   15  N20 MIQ B 502     -23.053 -16.616  12.869  1.00140.02    -0.296 N 
HETATM   16  H13 MIQ B 502     -23.016 -16.328  13.827  1.00142.77     0.171 HD
HETATM   17  C21 MIQ B 502     -23.888 -17.715  12.456  1.00142.22     0.224 C 
HETATM   18  C22 MIQ B 502     -23.362 -18.584  11.330  1.00139.52     0.106 C 
HETATM   19  O24 MIQ B 502     -24.933 -17.923  12.967  1.00146.13    -0.273 OA
HETATM   20  C23 MIQ B 502     -23.105 -17.659  10.154  1.00139.15     0.045 C 
ENDBRANCH  10  12
BRANCH   5  21
HETATM   21  N6  MIQ B 502     -15.050 -18.275   9.282  1.00140.95    -0.377 N 
HETATM   22  C7  MIQ B 502     -14.640 -18.625  10.631  1.00142.12     0.149 C 
HETATM   23  C8  MIQ B 502     -13.124 -18.650  10.776  1.00144.10     0.187 C 
HETATM   24  O9  MIQ B 502     -12.492 -19.363   9.756  1.00148.65    -0.388 OA
HETATM   25  C10 MIQ B 502     -13.211 -19.779   8.632  1.00147.44     0.187 C 
HETATM   26  C11 MIQ B 502     -14.391 -18.932   8.167  1.00144.08     0.149 C 
ENDBRANCH   5  21
TORSDOF 2
ENDMDL
MODEL 5
REMARK VINA RESULT:      -6.1      1.952      8.303
REMARK  2 active torsions:
REMARK  status: ('A' for Active; 'I' for Inactive)
REMARK    1  A    between atoms: C5_5  and  N6_21 
REMARK    2  A    between atoms: C18_14  and  N17_19 
ROOT
HETATM    1  O1  MIQ B 502     -18.615 -18.376  10.072  1.00142.91    -0.171 OA
HETATM    2  C2  MIQ B 502     -17.774 -17.587   9.283  1.00141.17     0.195 A 
HETATM    3  C3  MIQ B 502     -18.204 -16.359   8.419  1.00141.71     0.035 A 
HETATM    4  C4  MIQ B 502     -19.504 -15.690   8.174  1.00142.86     0.046 A 
HETATM    5  C5  MIQ B 502     -19.580 -14.564   7.316  1.00139.53     0.031 A 
HETATM    6  C12 MIQ B 502     -18.374 -14.063   6.672  1.00139.38     0.030 A 
HETATM    7  C13 MIQ B 502     -17.127 -14.704   6.907  1.00141.18     0.019 A 
HETATM    8  C14 MIQ B 502     -17.053 -15.884   7.811  1.00138.77     0.033 A 
HETATM    9  C15 MIQ B 502     -15.902 -16.822   8.302  1.00142.10     0.195 A 
HETATM   10  N17 MIQ B 502     -16.469 -17.705   9.108  1.00139.42    -0.288 N 
HETATM   11  O16 MIQ B 502     -14.553 -16.742   7.954  1.00148.93    -0.171 OA
ENDROOT
BRANCH  10  12
HETATM   12  C18 MIQ B 502     -15.696 -18.755   9.744  1.00139.82     0.187 C 
HETATM   13  C19 MIQ B 502     -14.412 -18.123  10.295  1.00140.06     0.247 C 
HETATM   14  O25 MIQ B 502     -14.489 -17.160  10.972  1.00143.95    -0.271 OA
HETATM   15  N20 MIQ B 502     -13.105 -18.678  10.011  1.00140.02    -0.296 N 
HETATM   16  H13 MIQ B 502     -12.274 -18.252  10.370  1.00142.77     0.171 HD
HETATM   17  C21 MIQ B 502     -13.036 -19.847   9.173  1.00142.22     0.224 C 
HETATM   18  C22 MIQ B 502     -14.078 -19.962   8.076  1.00139.52     0.106 C 
HETATM   19  O24 MIQ B 502     -12.212 -20.678   9.337  1.00146.13    -0.273 OA
HETATM   20  C23 MIQ B 502     -15.432 -19.892   8.759  1.00139.15     0.045 C 
ENDBRANCH  10  12
BRANCH   5  21
HETATM   21  N6  MIQ B 502     -20.862 -13.927   7.074  1.00140.95    -0.377 N 
HETATM   22  C7  MIQ B 502     -21.405 -13.049   8.096  1.00142.12     0.149 C 
HETATM   23  C8  MIQ B 502     -22.925 -12.980   8.038  1.00144.10     0.187 C 
HETATM   24  O9  MIQ B 502     -23.411 -12.766   6.746  1.00148.65    -0.388 OA
HETATM   25  C10 MIQ B 502     -22.555 -12.852   5.645  1.00147.44     0.187 C 
HETATM   26  C11 MIQ B 502     -21.366 -13.804   5.718  1.00144.08     0.149 C 
ENDBRANCH   5  21
TORSDOF 2
ENDMDL
MODEL 6
REMARK VINA RESULT:      -6.0      3.361      8.525
REMARK  2 active torsions:
REMARK  status: ('A' for Active; 'I' for Inactive)
REMARK    1  A    between atoms: C5_5  and  N6_21 
REMARK    2  A    between atoms: C18_14  and  N17_19 
ROOT
HETATM    1  O1  MIQ B 502     -16.234 -16.402   8.383  1.00142.91    -0.171 OA
HETATM    2  C2  MIQ B 502     -16.691 -17.555   9.025  1.00141.17     0.195 A 
HETATM    3  C3  MIQ B 502     -18.062 -17.722   9.755  1.00141.71     0.035 A 
HETATM    4  C4  MIQ B 502     -19.212 -16.815   9.984  1.00142.86     0.046 A 
HETATM    5  C5  MIQ B 502     -20.348 -17.266  10.702  1.00139.53     0.031 A 
HETATM    6  C12 MIQ B 502     -20.385 -18.627  11.216  1.00139.38     0.030 A 
HETATM    7  C13 MIQ B 502     -19.283 -19.497  10.996  1.00141.18     0.019 A 
HETATM    8  C14 MIQ B 502     -18.094 -19.020  10.239  1.00138.77     0.033 A 
HETATM    9  C15 MIQ B 502     -16.736 -19.662   9.807  1.00142.10     0.195 A 
HETATM   10  N17 MIQ B 502     -16.081 -18.722   9.145  1.00139.42    -0.288 N 
HETATM   11  O16 MIQ B 502     -16.305 -20.963  10.071  1.00148.93    -0.171 OA
ENDROOT
BRANCH  10  12
HETATM   12  C18 MIQ B 502     -14.758 -18.961   8.601  1.00139.82     0.187 C 
HETATM   13  C19 MIQ B 502     -14.831 -20.218   7.726  1.00140.06     0.247 C 
HETATM   14  O25 MIQ B 502     -15.668 -20.296   6.898  1.00143.95    -0.271 OA
HETATM   15  N20 MIQ B 502     -13.896 -21.314   7.883  1.00140.02    -0.296 N 
HETATM   16  H13 MIQ B 502     -13.959 -22.132   7.310  1.00142.77     0.171 HD
HETATM   17  C21 MIQ B 502     -12.891 -21.200   8.908  1.00142.22     0.224 C 
HETATM   18  C22 MIQ B 502     -13.283 -20.453  10.168  1.00139.52     0.106 C 
HETATM   19  O24 MIQ B 502     -11.812 -21.663   8.769  1.00146.13    -0.273 OA
HETATM   20  C23 MIQ B 502     -13.732 -19.071   9.728  1.00139.15     0.045 C 
ENDBRANCH  10  12
BRANCH   5  21
HETATM   21  N6  MIQ B 502     -21.461 -16.362  10.931  1.00140.95    -0.377 N 
HETATM   22  C7  MIQ B 502     -22.098 -16.362  12.237  1.00142.12     0.149 C 
HETATM   23  C8  MIQ B 502     -23.551 -15.911  12.161  1.00144.10     0.187 C 
HETATM   24  O9  MIQ B 502     -23.719 -14.743  11.415  1.00148.65    -0.388 OA
HETATM   25  C10 MIQ B 502     -22.664 -14.231  10.655  1.00147.44     0.187 C 
HETATM   26  C11 MIQ B 502     -21.644 -15.204  10.074  1.00144.08     0.149 C 
ENDBRANCH   5  21
TORSDOF 2
ENDMDL
MODEL 7
REMARK VINA RESULT:      -5.9      2.335      8.136
REMARK  2 active torsions:
REMARK  status: ('A' for Active; 'I' for Inactive)
REMARK    1  A    between atoms: C5_5  and  N6_21 
REMARK    2  A    between atoms: C18_14  and  N17_19 
ROOT
HETATM    1  O1  MIQ B 502     -16.069 -19.573   9.130  1.00142.91    -0.171 OA
HETATM    2  C2  MIQ B 502     -15.836 -18.233   8.816  1.00141.17     0.195 A 
HETATM    3  C3  MIQ B 502     -16.799 -17.289   8.027  1.00141.71     0.035 A 
HETATM    4  C4  MIQ B 502     -18.137 -17.478   7.417  1.00142.86     0.046 A 
HETATM    5  C5  MIQ B 502     -18.778 -16.404   6.749  1.00139.53     0.031 A 
HETATM    6  C12 MIQ B 502     -18.118 -15.109   6.663  1.00139.38     0.030 A 
HETATM    7  C13 MIQ B 502     -16.836 -14.928   7.249  1.00141.18     0.019 A 
HETATM    8  C14 MIQ B 502     -16.169 -16.058   7.951  1.00138.77     0.033 A 
HETATM    9  C15 MIQ B 502     -14.807 -16.238   8.698  1.00142.10     0.195 A 
HETATM   10  N17 MIQ B 502     -14.782 -17.493   9.115  1.00139.42    -0.288 N 
HETATM   11  O16 MIQ B 502     -13.820 -15.268   8.881  1.00148.93    -0.171 OA
ENDROOT
BRANCH  10  12
HETATM   12  C18 MIQ B 502     -13.646 -18.027   9.844  1.00139.82     0.187 C 
HETATM   13  C19 MIQ B 502     -13.200 -19.313   9.137  1.00140.06     0.247 C 
HETATM   14  O25 MIQ B 502     -13.007 -19.293   7.974  1.00143.95    -0.271 OA
HETATM   15  N20 MIQ B 502     -13.002 -20.552   9.860  1.00140.02    -0.296 N 
HETATM   16  H13 MIQ B 502     -12.717 -21.386   9.387  1.00142.77     0.171 HD
HETATM   17  C21 MIQ B 502     -13.254 -20.553  11.279  1.00142.22     0.224 C 
HETATM   18  C22 MIQ B 502     -14.362 -19.644  11.774  1.00139.52     0.106 C 
HETATM   19  O24 MIQ B 502     -12.623 -21.226  12.018  1.00146.13    -0.273 OA
HETATM   20  C23 MIQ B 502     -14.010 -18.242  11.312  1.00139.15     0.045 C 
ENDBRANCH  10  12
BRANCH   5  21
HETATM   21  N6  MIQ B 502     -20.081 -16.607   6.143  1.00140.95    -0.377 N 
HETATM   22  C7  MIQ B 502     -20.179 -17.470   4.978  1.00142.12     0.149 C 
HETATM   23  C8  MIQ B 502     -21.366 -17.103   4.097  1.00144.10     0.187 C 
HETATM   24  O9  MIQ B 502     -22.549 -16.940   4.819  1.00148.65    -0.388 OA
HETATM   25  C10 MIQ B 502     -22.526 -16.898   6.216  1.00147.44     0.187 C 
HETATM   26  C11 MIQ B 502     -21.286 -16.340   6.908  1.00144.08     0.149 C 
ENDBRANCH   5  21
TORSDOF 2
ENDMDL
MODEL 8
REMARK VINA RESULT:      -5.9      1.710      8.426
REMARK  2 active torsions:
REMARK  status: ('A' for Active; 'I' for Inactive)
REMARK    1  A    between atoms: C5_5  and  N6_21 
REMARK    2  A    between atoms: C18_14  and  N17_19 
ROOT
HETATM    1  O1  MIQ B 502     -15.113 -14.827   6.996  1.00142.91    -0.171 OA
HETATM    2  C2  MIQ B 502     -16.006 -15.654   7.680  1.00141.17     0.195 A 
HETATM    3  C3  MIQ B 502     -17.565 -15.582   7.613  1.00141.71     0.035 A 
HETATM    4  C4  MIQ B 502     -18.515 -14.711   6.880  1.00142.86     0.046 A 
HETATM    5  C5  MIQ B 502     -19.913 -14.894   7.025  1.00139.53     0.031 A 
HETATM    6  C12 MIQ B 502     -20.418 -15.944   7.898  1.00139.38     0.030 A 
HETATM    7  C13 MIQ B 502     -19.508 -16.779   8.600  1.00141.18     0.019 A 
HETATM    8  C14 MIQ B 502     -18.041 -16.584   8.443  1.00138.77     0.033 A 
HETATM    9  C15 MIQ B 502     -16.770 -17.283   9.028  1.00142.10     0.195 A 
HETATM   10  N17 MIQ B 502     -15.733 -16.651   8.504  1.00139.42    -0.288 N 
HETATM   11  O16 MIQ B 502     -16.743 -18.354   9.922  1.00148.93    -0.171 OA
ENDROOT
BRANCH  10  12
HETATM   12  C18 MIQ B 502     -14.371 -17.024   8.839  1.00139.82     0.187 C 
HETATM   13  C19 MIQ B 502     -14.245 -18.542   8.660  1.00140.06     0.247 C 
HETATM   14  O25 MIQ B 502     -14.600 -19.034   7.649  1.00143.95    -0.271 OA
HETATM   15  N20 MIQ B 502     -13.695 -19.390   9.698  1.00140.02    -0.296 N 
HETATM   16  H13 MIQ B 502     -13.623 -20.381   9.571  1.00142.77     0.171 HD
HETATM   17  C21 MIQ B 502     -13.277 -18.767  10.928  1.00142.22     0.224 C 
HETATM   18  C22 MIQ B 502     -14.075 -17.561  11.385  1.00139.52     0.106 C 
HETATM   19  O24 MIQ B 502     -12.356 -19.175  11.545  1.00146.13    -0.273 OA
HETATM   20  C23 MIQ B 502     -14.023 -16.554  10.251  1.00139.15     0.045 C 
ENDBRANCH  10  12
BRANCH   5  21
HETATM   21  N6  MIQ B 502     -20.831 -14.024   6.312  1.00140.95    -0.377 N 
HETATM   22  C7  MIQ B 502     -21.611 -13.064   7.074  1.00142.12     0.149 C 
HETATM   23  C8  MIQ B 502     -22.916 -12.708   6.374  1.00144.10     0.187 C 
HETATM   24  O9  MIQ B 502     -22.742 -12.398   5.024  1.00148.65    -0.388 OA
HETATM   25  C10 MIQ B 502     -21.518 -12.639   4.395  1.00147.44     0.187 C 
HETATM   26  C11 MIQ B 502     -20.660 -13.800   4.887  1.00144.08     0.149 C 
ENDBRANCH   5  21
TORSDOF 2
ENDMDL
MODEL 9
REMARK VINA RESULT:      -5.9      3.147      3.851
REMARK  2 active torsions:
REMARK  status: ('A' for Active; 'I' for Inactive)
REMARK    1  A    between atoms: C5_5  and  N6_21 
REMARK    2  A    between atoms: C18_14  and  N17_19 
ROOT
HETATM    1  O1  MIQ B 502     -21.688 -16.754  10.909  1.00142.91    -0.171 OA
HETATM    2  C2  MIQ B 502     -21.082 -16.286   9.741  1.00141.17     0.195 A 
HETATM    3  C3  MIQ B 502     -19.586 -16.480   9.336  1.00141.71     0.035 A 
HETATM    4  C4  MIQ B 502     -18.435 -17.154   9.981  1.00142.86     0.046 A 
HETATM    5  C5  MIQ B 502     -17.165 -17.164   9.351  1.00139.53     0.031 A 
HETATM    6  C12 MIQ B 502     -16.992 -16.509   8.063  1.00139.38     0.030 A 
HETATM    7  C13 MIQ B 502     -18.096 -15.863   7.443  1.00141.18     0.019 A 
HETATM    8  C14 MIQ B 502     -19.428 -15.858   8.108  1.00138.77     0.033 A 
HETATM    9  C15 MIQ B 502     -20.833 -15.275   7.749  1.00142.10     0.195 A 
HETATM   10  N17 MIQ B 502     -21.631 -15.601   8.752  1.00139.42    -0.288 N 
HETATM   11  O16 MIQ B 502     -21.171 -14.554   6.602  1.00148.93    -0.171 OA
ENDROOT
BRANCH  10  12
HETATM   12  C18 MIQ B 502     -23.028 -15.206   8.769  1.00139.82     0.187 C 
HETATM   13  C19 MIQ B 502     -23.286 -14.455  10.080  1.00140.06     0.247 C 
HETATM   14  O25 MIQ B 502     -22.573 -13.565  10.384  1.00143.95    -0.271 OA
HETATM   15  N20 MIQ B 502     -24.386 -14.803  10.956  1.00140.02    -0.296 N 
HETATM   16  H13 MIQ B 502     -24.540 -14.308  11.813  1.00142.77     0.171 HD
HETATM   17  C21 MIQ B 502     -25.236 -15.899  10.569  1.00142.22     0.224 C 
HETATM   18  C22 MIQ B 502     -24.576 -17.039   9.817  1.00139.52     0.106 C 
HETATM   19  O24 MIQ B 502     -26.390 -15.905  10.821  1.00146.13    -0.273 OA
HETATM   20  C23 MIQ B 502     -23.928 -16.428   8.589  1.00139.15     0.045 C 
ENDBRANCH  10  12
BRANCH   5  21
HETATM   21  N6  MIQ B 502     -16.043 -17.816  10.002  1.00140.95    -0.377 N 
HETATM   22  C7  MIQ B 502     -15.992 -19.268  10.010  1.00142.12     0.149 C 
HETATM   23  C8  MIQ B 502     -15.203 -19.802  11.199  1.00144.10     0.187 C 
HETATM   24  O9  MIQ B 502     -13.974 -19.161  11.368  1.00148.65    -0.388 OA
HETATM   25  C10 MIQ B 502     -13.671 -18.008  10.638  1.00147.44     0.187 C 
HETATM   26  C11 MIQ B 502     -14.812 -17.080  10.233  1.00144.08     0.149 C 
ENDBRANCH   5  21
TORSDOF 2
ENDMDL
