MODEL 1
REMARK VINA RESULT:      -6.9      0.000      0.000
REMARK  2 active torsions:
REMARK  status: ('A' for Active; 'I' for Inactive)
REMARK    1  A    between atoms: C5_5  and  N6_21 
REMARK    2  A    between atoms: C18_14  and  N17_19 
ROOT
HETATM    1  O1  MIQ B 502     -15.042   3.565  -4.964  1.00142.91    -0.171 OA
HETATM    2  C2  MIQ B 502     -16.107   2.791  -4.499  1.00141.17     0.195 A 
HETATM    3  C3  MIQ B 502     -16.471   2.528  -3.003  1.00141.71     0.035 A 
HETATM    4  C4  MIQ B 502     -15.878   2.966  -1.718  1.00142.86     0.046 A 
HETATM    5  C5  MIQ B 502     -16.449   2.554  -0.487  1.00139.53     0.031 A 
HETATM    6  C12 MIQ B 502     -17.625   1.695  -0.488  1.00139.38     0.030 A 
HETATM    7  C13 MIQ B 502     -18.195   1.276  -1.720  1.00141.18     0.019 A 
HETATM    8  C14 MIQ B 502     -17.593   1.714  -3.009  1.00138.77     0.033 A 
HETATM    9  C15 MIQ B 502     -17.926   1.471  -4.517  1.00142.10     0.195 A 
HETATM   10  N17 MIQ B 502     -17.013   2.136  -5.205  1.00139.42    -0.288 N 
HETATM   11  O16 MIQ B 502     -18.975   0.704  -5.028  1.00148.93    -0.171 OA
ENDROOT
BRANCH  10  12
HETATM   12  C18 MIQ B 502     -17.001   2.125  -6.656  1.00139.82     0.187 C 
HETATM   13  C19 MIQ B 502     -15.597   1.705  -7.109  1.00140.06     0.247 C 
HETATM   14  O25 MIQ B 502     -15.115   0.727  -6.657  1.00143.95    -0.271 OA
HETATM   15  N20 MIQ B 502     -14.847   2.471  -8.082  1.00140.02    -0.296 N 
HETATM   16  H13 MIQ B 502     -13.929   2.190  -8.365  1.00142.77     0.171 HD
HETATM   17  C21 MIQ B 502     -15.452   3.666  -8.611  1.00142.22     0.224 C 
HETATM   18  C22 MIQ B 502     -16.349   4.449  -7.672  1.00139.52     0.106 C 
HETATM   19  O24 MIQ B 502     -15.262   4.014  -9.725  1.00146.13    -0.273 OA
HETATM   20  C23 MIQ B 502     -17.425   3.488  -7.202  1.00139.15     0.045 C 
ENDBRANCH  10  12
BRANCH   5  21
HETATM   21  N6  MIQ B 502     -15.849   2.978   0.764  1.00140.95    -0.377 N 
HETATM   22  C7  MIQ B 502     -15.650   4.399   0.993  1.00142.12     0.149 C 
HETATM   23  C8  MIQ B 502     -14.498   4.665   1.953  1.00144.10     0.187 C 
HETATM   24  O9  MIQ B 502     -14.558   3.878   3.105  1.00148.65    -0.388 OA
HETATM   25  C10 MIQ B 502     -15.466   2.819   3.192  1.00147.44     0.187 C 
HETATM   26  C11 MIQ B 502     -15.860   2.089   1.913  1.00144.08     0.149 C 
ENDBRANCH   5  21
TORSDOF 2
ENDMDL
MODEL 2
REMARK VINA RESULT:      -6.7      7.771     14.543
REMARK  2 active torsions:
REMARK  status: ('A' for Active; 'I' for Inactive)
REMARK    1  A    between atoms: C5_5  and  N6_21 
REMARK    2  A    between atoms: C18_14  and  N17_19 
ROOT
HETATM    1  O1  MIQ B 502     -18.778   7.340   9.072  1.00142.91    -0.171 OA
HETATM    2  C2  MIQ B 502     -17.464   6.866   9.104  1.00141.17     0.195 A 
HETATM    3  C3  MIQ B 502     -16.630   6.378   7.878  1.00141.71     0.035 A 
HETATM    4  C4  MIQ B 502     -16.918   6.268   6.428  1.00142.86     0.046 A 
HETATM    5  C5  MIQ B 502     -15.932   5.776   5.536  1.00139.53     0.031 A 
HETATM    6  C12 MIQ B 502     -14.629   5.376   6.049  1.00139.38     0.030 A 
HETATM    7  C13 MIQ B 502     -14.352   5.482   7.439  1.00141.18     0.019 A 
HETATM    8  C14 MIQ B 502     -15.390   6.002   8.370  1.00138.77     0.033 A 
HETATM    9  C15 MIQ B 502     -15.455   6.260   9.910  1.00142.10     0.195 A 
HETATM   10  N17 MIQ B 502     -16.665   6.738  10.150  1.00139.42    -0.288 N 
HETATM   11  O16 MIQ B 502     -14.441   6.028  10.840  1.00148.93    -0.171 OA
ENDROOT
BRANCH  10  12
HETATM   12  C18 MIQ B 502     -17.092   7.081  11.494  1.00139.82     0.187 C 
HETATM   13  C19 MIQ B 502     -18.383   6.306  11.786  1.00140.06     0.247 C 
HETATM   14  O25 MIQ B 502     -18.411   5.142  11.599  1.00143.95    -0.271 OA
HETATM   15  N20 MIQ B 502     -19.570   6.964  12.293  1.00140.02    -0.296 N 
HETATM   16  H13 MIQ B 502     -20.409   6.448  12.474  1.00142.77     0.171 HD
HETATM   17  C21 MIQ B 502     -19.514   8.388  12.504  1.00142.22     0.224 C 
HETATM   18  C22 MIQ B 502     -18.650   9.185  11.547  1.00139.52     0.106 C 
HETATM   19  O24 MIQ B 502     -20.109   8.906  13.384  1.00146.13    -0.273 OA
HETATM   20  C23 MIQ B 502     -17.254   8.594  11.631  1.00139.15     0.045 C 
ENDBRANCH  10  12
BRANCH   5  21
HETATM   21  N6  MIQ B 502     -16.233   5.660   4.121  1.00140.95    -0.377 N 
HETATM   22  C7  MIQ B 502     -15.151   5.340   3.205  1.00142.12     0.149 C 
HETATM   23  C8  MIQ B 502     -15.421   5.866   1.801  1.00144.10     0.187 C 
HETATM   24  O9  MIQ B 502     -16.703   5.558   1.342  1.00148.65    -0.388 OA
HETATM   25  C10 MIQ B 502     -17.659   5.032   2.214  1.00147.44     0.187 C 
HETATM   26  C11 MIQ B 502     -17.598   5.424   3.687  1.00144.08     0.149 C 
ENDBRANCH   5  21
TORSDOF 2
ENDMDL
MODEL 3
REMARK VINA RESULT:      -6.6      5.781     12.881
REMARK  2 active torsions:
REMARK  status: ('A' for Active; 'I' for Inactive)
REMARK    1  A    between atoms: C5_5  and  N6_21 
REMARK    2  A    between atoms: C18_14  and  N17_19 
ROOT
HETATM    1  O1  MIQ B 502     -15.216   2.660   7.025  1.00142.91    -0.171 OA
HETATM    2  C2  MIQ B 502     -15.518   4.021   6.948  1.00141.17     0.195 A 
HETATM    3  C3  MIQ B 502     -15.599   4.875   5.643  1.00141.71     0.035 A 
HETATM    4  C4  MIQ B 502     -15.405   4.562   4.207  1.00142.86     0.046 A 
HETATM    5  C5  MIQ B 502     -15.551   5.576   3.226  1.00139.53     0.031 A 
HETATM    6  C12 MIQ B 502     -15.893   6.931   3.634  1.00139.38     0.030 A 
HETATM    7  C13 MIQ B 502     -16.079   7.231   5.010  1.00141.18     0.019 A 
HETATM    8  C14 MIQ B 502     -15.927   6.162   6.035  1.00138.77     0.033 A 
HETATM    9  C15 MIQ B 502     -16.053   6.107   7.592  1.00142.10     0.195 A 
HETATM   10  N17 MIQ B 502     -15.799   4.855   7.935  1.00139.42    -0.288 N 
HETATM   11  O16 MIQ B 502     -16.366   7.168   8.444  1.00148.93    -0.171 OA
ENDROOT
BRANCH  10  12
HETATM   12  C18 MIQ B 502     -15.810   4.432   9.323  1.00139.82     0.187 C 
HETATM   13  C19 MIQ B 502     -17.145   4.873   9.936  1.00140.06     0.247 C 
HETATM   14  O25 MIQ B 502     -18.150   4.598   9.384  1.00143.95    -0.271 OA
HETATM   15  N20 MIQ B 502     -17.207   5.614  11.179  1.00140.02    -0.296 N 
HETATM   16  H13 MIQ B 502     -18.085   5.901  11.565  1.00142.77     0.171 HD
HETATM   17  C21 MIQ B 502     -15.965   5.947  11.828  1.00142.22     0.224 C 
HETATM   18  C22 MIQ B 502     -14.779   6.228  10.926  1.00139.52     0.106 C 
HETATM   19  O24 MIQ B 502     -15.877   5.994  13.006  1.00146.13    -0.273 OA
HETATM   20  C23 MIQ B 502     -14.595   4.995  10.059  1.00139.15     0.045 C 
ENDBRANCH  10  12
BRANCH   5  21
HETATM   21  N6  MIQ B 502     -15.345   5.259   1.825  1.00140.95    -0.377 N 
HETATM   22  C7  MIQ B 502     -16.439   4.661   1.080  1.00142.12     0.149 C 
HETATM   23  C8  MIQ B 502     -15.939   3.821  -0.088  1.00144.10     0.187 C 
HETATM   24  O9  MIQ B 502     -14.980   4.480  -0.861  1.00148.65    -0.388 OA
HETATM   25  C10 MIQ B 502     -14.416   5.679  -0.417  1.00147.44     0.187 C 
HETATM   26  C11 MIQ B 502     -14.277   5.908   1.084  1.00144.08     0.149 C 
ENDBRANCH   5  21
TORSDOF 2
ENDMDL
MODEL 4
REMARK VINA RESULT:      -6.6      4.795      8.565
REMARK  2 active torsions:
REMARK  status: ('A' for Active; 'I' for Inactive)
REMARK    1  A    between atoms: C5_5  and  N6_21 
REMARK    2  A    between atoms: C18_14  and  N17_19 
ROOT
HETATM    1  O1  MIQ B 502     -13.625   3.702   3.848  1.00142.91    -0.171 OA
HETATM    2  C2  MIQ B 502     -14.916   4.235   3.868  1.00141.17     0.195 A 
HETATM    3  C3  MIQ B 502     -15.622   4.894   5.096  1.00141.71     0.035 A 
HETATM    4  C4  MIQ B 502     -15.204   5.150   6.495  1.00142.86     0.046 A 
HETATM    5  C5  MIQ B 502     -16.090   5.786   7.402  1.00139.53     0.031 A 
HETATM    6  C12 MIQ B 502     -17.415   6.190   6.955  1.00139.38     0.030 A 
HETATM    7  C13 MIQ B 502     -17.815   5.945   5.613  1.00141.18     0.019 A 
HETATM    8  C14 MIQ B 502     -16.881   5.279   4.665  1.00138.77     0.033 A 
HETATM    9  C15 MIQ B 502     -16.957   4.857   3.161  1.00142.10     0.195 A 
HETATM   10  N17 MIQ B 502     -15.791   4.298   2.880  1.00139.42    -0.288 N 
HETATM   11  O16 MIQ B 502     -18.038   5.035   2.297  1.00148.93    -0.171 OA
ENDROOT
BRANCH  10  12
HETATM   12  C18 MIQ B 502     -15.505   3.767   1.560  1.00139.82     0.187 C 
HETATM   13  C19 MIQ B 502     -15.812   4.867   0.536  1.00140.06     0.247 C 
HETATM   14  O25 MIQ B 502     -15.348   5.941   0.689  1.00143.95    -0.271 OA
HETATM   15  N20 MIQ B 502     -16.652   4.623  -0.618  1.00140.02    -0.296 N 
HETATM   16  H13 MIQ B 502     -16.850   5.351  -1.276  1.00142.77     0.171 HD
HETATM   17  C21 MIQ B 502     -17.215   3.307  -0.776  1.00142.22     0.224 C 
HETATM   18  C22 MIQ B 502     -17.571   2.561   0.495  1.00139.52     0.106 C 
HETATM   19  O24 MIQ B 502     -17.386   2.832  -1.845  1.00146.13    -0.273 OA
HETATM   20  C23 MIQ B 502     -16.300   2.484   1.320  1.00139.15     0.045 C 
ENDBRANCH  10  12
BRANCH   5  21
HETATM   21  N6  MIQ B 502     -15.673   6.018   8.773  1.00140.95    -0.377 N 
HETATM   22  C7  MIQ B 502     -14.390   5.494   9.207  1.00142.12     0.149 C 
HETATM   23  C8  MIQ B 502     -14.361   5.228  10.707  1.00144.10     0.187 C 
HETATM   24  O9  MIQ B 502     -14.854   6.298  11.457  1.00148.65    -0.388 OA
HETATM   25  C10 MIQ B 502     -15.503   7.364  10.829  1.00147.44     0.187 C 
HETATM   26  C11 MIQ B 502     -16.277   7.091   9.543  1.00144.08     0.149 C 
ENDBRANCH   5  21
TORSDOF 2
ENDMDL
MODEL 5
REMARK VINA RESULT:      -6.6      6.051      9.700
REMARK  2 active torsions:
REMARK  status: ('A' for Active; 'I' for Inactive)
REMARK    1  A    between atoms: C5_5  and  N6_21 
REMARK    2  A    between atoms: C18_14  and  N17_19 
ROOT
HETATM    1  O1  MIQ B 502     -15.241   5.569   4.214  1.00142.91    -0.171 OA
HETATM    2  C2  MIQ B 502     -16.595   5.629   4.551  1.00141.17     0.195 A 
HETATM    3  C3  MIQ B 502     -17.181   6.006   5.949  1.00141.71     0.035 A 
HETATM    4  C4  MIQ B 502     -16.566   6.387   7.243  1.00142.86     0.046 A 
HETATM    5  C5  MIQ B 502     -17.381   6.681   8.365  1.00139.53     0.031 A 
HETATM    6  C12 MIQ B 502     -18.830   6.609   8.244  1.00139.38     0.030 A 
HETATM    7  C13 MIQ B 502     -19.420   6.245   7.004  1.00141.18     0.019 A 
HETATM    8  C14 MIQ B 502     -18.559   5.939   5.829  1.00138.77     0.033 A 
HETATM    9  C15 MIQ B 502     -18.830   5.519   4.347  1.00142.10     0.195 A 
HETATM   10  N17 MIQ B 502     -17.642   5.392   3.780  1.00139.42    -0.288 N 
HETATM   11  O16 MIQ B 502     -20.076   5.318   3.750  1.00148.93    -0.171 OA
ENDROOT
BRANCH  10  12
HETATM   12  C18 MIQ B 502     -17.504   4.992   2.392  1.00139.82     0.187 C 
HETATM   13  C19 MIQ B 502     -16.608   3.749   2.351  1.00140.06     0.247 C 
HETATM   14  O25 MIQ B 502     -16.861   2.833   3.049  1.00143.95    -0.271 OA
HETATM   15  N20 MIQ B 502     -15.460   3.663   1.471  1.00140.02    -0.296 N 
HETATM   16  H13 MIQ B 502     -14.879   2.848   1.458  1.00142.77     0.171 HD
HETATM   17  C21 MIQ B 502     -15.165   4.799   0.635  1.00142.22     0.224 C 
HETATM   18  C22 MIQ B 502     -15.486   6.166   1.206  1.00139.52     0.106 C 
HETATM   19  O24 MIQ B 502     -14.700   4.667  -0.443  1.00146.13    -0.273 OA
HETATM   20  C23 MIQ B 502     -16.963   6.151   1.556  1.00139.15     0.045 C 
ENDBRANCH  10  12
BRANCH   5  21
HETATM   21  N6  MIQ B 502     -16.765   7.039   9.630  1.00140.95    -0.377 N 
HETATM   22  C7  MIQ B 502     -17.619   7.488  10.716  1.00142.12     0.149 C 
HETATM   23  C8  MIQ B 502     -16.876   8.402  11.683  1.00144.10     0.187 C 
HETATM   24  O9  MIQ B 502     -15.636   7.889  12.071  1.00148.65    -0.388 OA
HETATM   25  C10 MIQ B 502     -15.097   6.775  11.423  1.00147.44     0.187 C 
HETATM   26  C11 MIQ B 502     -15.436   6.551   9.953  1.00144.08     0.149 C 
ENDBRANCH   5  21
TORSDOF 2
ENDMDL
MODEL 6
REMARK VINA RESULT:      -6.5      5.571      9.572
REMARK  2 active torsions:
REMARK  status: ('A' for Active; 'I' for Inactive)
REMARK    1  A    between atoms: C5_5  and  N6_21 
REMARK    2  A    between atoms: C18_14  and  N17_19 
ROOT
HETATM    1  O1  MIQ B 502     -18.317   6.905   4.144  1.00142.91    -0.171 OA
HETATM    2  C2  MIQ B 502     -17.119   6.238   4.411  1.00141.17     0.195 A 
HETATM    3  C3  MIQ B 502     -16.400   6.150   5.795  1.00141.71     0.035 A 
HETATM    4  C4  MIQ B 502     -16.714   6.684   7.141  1.00142.86     0.046 A 
HETATM    5  C5  MIQ B 502     -15.846   6.430   8.233  1.00139.53     0.031 A 
HETATM    6  C12 MIQ B 502     -14.640   5.639   8.029  1.00139.38     0.030 A 
HETATM    7  C13 MIQ B 502     -14.340   5.126   6.738  1.00141.18     0.019 A 
HETATM    8  C14 MIQ B 502     -15.256   5.394   5.596  1.00138.77     0.033 A 
HETATM    9  C15 MIQ B 502     -15.266   5.010   4.080  1.00142.10     0.195 A 
HETATM   10  N17 MIQ B 502     -16.361   5.551   3.573  1.00139.42    -0.288 N 
HETATM   11  O16 MIQ B 502     -14.308   4.251   3.405  1.00148.93    -0.171 OA
ENDROOT
BRANCH  10  12
HETATM   12  C18 MIQ B 502     -16.694   5.412   2.168  1.00139.82     0.187 C 
HETATM   13  C19 MIQ B 502     -16.707   3.915   1.836  1.00140.06     0.247 C 
HETATM   14  O25 MIQ B 502     -17.336   3.181   2.512  1.00143.95    -0.271 OA
HETATM   15  N20 MIQ B 502     -15.972   3.375   0.710  1.00140.02    -0.296 N 
HETATM   16  H13 MIQ B 502     -15.983   2.395   0.509  1.00142.77     0.171 HD
HETATM   17  C21 MIQ B 502     -15.203   4.290  -0.094  1.00142.22     0.224 C 
HETATM   18  C22 MIQ B 502     -14.578   5.469   0.626  1.00139.52     0.106 C 
HETATM   19  O24 MIQ B 502     -15.071   4.129  -1.257  1.00146.13    -0.273 OA
HETATM   20  C23 MIQ B 502     -15.714   6.209   1.308  1.00139.15     0.045 C 
ENDBRANCH  10  12
BRANCH   5  21
HETATM   21  N6  MIQ B 502     -16.157   6.971   9.543  1.00140.95    -0.377 N 
HETATM   22  C7  MIQ B 502     -17.532   6.914  10.009  1.00142.12     0.149 C 
HETATM   23  C8  MIQ B 502     -17.840   8.020  11.011  1.00144.10     0.187 C 
HETATM   24  O9  MIQ B 502     -16.874   8.129  12.013  1.00148.65    -0.388 OA
HETATM   25  C10 MIQ B 502     -15.668   7.431  11.913  1.00147.44     0.187 C 
HETATM   26  C11 MIQ B 502     -15.102   7.147  10.525  1.00144.08     0.149 C 
ENDBRANCH   5  21
TORSDOF 2
ENDMDL
MODEL 7
REMARK VINA RESULT:      -6.5      6.101      9.169
REMARK  2 active torsions:
REMARK  status: ('A' for Active; 'I' for Inactive)
REMARK    1  A    between atoms: C5_5  and  N6_21 
REMARK    2  A    between atoms: C18_14  and  N17_19 
ROOT
HETATM    1  O1  MIQ B 502     -19.409   2.795   1.762  1.00142.91    -0.171 OA
HETATM    2  C2  MIQ B 502     -19.049   3.983   2.403  1.00141.17     0.195 A 
HETATM    3  C3  MIQ B 502     -19.938   4.805   3.390  1.00141.71     0.035 A 
HETATM    4  C4  MIQ B 502     -21.309   4.619   3.921  1.00142.86     0.046 A 
HETATM    5  C5  MIQ B 502     -21.859   5.560   4.828  1.00139.53     0.031 A 
HETATM    6  C12 MIQ B 502     -21.072   6.713   5.240  1.00139.38     0.030 A 
HETATM    7  C13 MIQ B 502     -19.757   6.890   4.731  1.00141.18     0.019 A 
HETATM    8  C14 MIQ B 502     -19.183   5.898   3.781  1.00138.77     0.033 A 
HETATM    9  C15 MIQ B 502     -17.817   5.754   3.034  1.00142.10     0.195 A 
HETATM   10  N17 MIQ B 502     -17.907   4.645   2.319  1.00139.42    -0.288 N 
HETATM   11  O16 MIQ B 502     -16.729   6.625   3.108  1.00148.93    -0.171 OA
ENDROOT
BRANCH  10  12
HETATM   12  C18 MIQ B 502     -16.816   4.198   1.474  1.00139.82     0.187 C 
HETATM   13  C19 MIQ B 502     -15.536   4.211   2.318  1.00140.06     0.247 C 
HETATM   14  O25 MIQ B 502     -15.531   3.670   3.366  1.00143.95    -0.271 OA
HETATM   15  N20 MIQ B 502     -14.326   4.865   1.862  1.00140.02    -0.296 N 
HETATM   16  H13 MIQ B 502     -13.499   4.872   2.425  1.00142.77     0.171 HD
HETATM   17  C21 MIQ B 502     -14.359   5.528   0.584  1.00142.22     0.224 C 
HETATM   18  C22 MIQ B 502     -15.674   6.169   0.182  1.00139.52     0.106 C 
HETATM   19  O24 MIQ B 502     -13.409   5.564  -0.118  1.00146.13    -0.273 OA
HETATM   20  C23 MIQ B 502     -16.720   5.070   0.223  1.00139.15     0.045 C 
ENDBRANCH  10  12
BRANCH   5  21
HETATM   21  N6  MIQ B 502     -23.209   5.374   5.329  1.00140.95    -0.377 N 
HETATM   22  C7  MIQ B 502     -23.683   6.247   6.389  1.00142.12     0.149 C 
HETATM   23  C8  MIQ B 502     -24.767   5.584   7.230  1.00144.10     0.187 C 
HETATM   24  O9  MIQ B 502     -25.765   4.987   6.457  1.00148.65    -0.388 OA
HETATM   25  C10 MIQ B 502     -25.602   4.846   5.077  1.00147.44     0.187 C 
HETATM   26  C11 MIQ B 502     -24.191   4.670   4.523  1.00144.08     0.149 C 
ENDBRANCH   5  21
TORSDOF 2
ENDMDL
MODEL 8
REMARK VINA RESULT:      -6.4      6.550     12.729
REMARK  2 active torsions:
REMARK  status: ('A' for Active; 'I' for Inactive)
REMARK    1  A    between atoms: C5_5  and  N6_21 
REMARK    2  A    between atoms: C18_14  and  N17_19 
ROOT
HETATM    1  O1  MIQ B 502     -15.740   6.279   7.881  1.00142.91    -0.171 OA
HETATM    2  C2  MIQ B 502     -15.673   4.942   7.483  1.00141.17     0.195 A 
HETATM    3  C3  MIQ B 502     -15.550   4.422   6.015  1.00141.71     0.035 A 
HETATM    4  C4  MIQ B 502     -15.468   5.097   4.698  1.00142.86     0.046 A 
HETATM    5  C5  MIQ B 502     -15.357   4.335   3.508  1.00139.53     0.031 A 
HETATM    6  C12 MIQ B 502     -15.324   2.881   3.581  1.00139.38     0.030 A 
HETATM    7  C13 MIQ B 502     -15.401   2.233   4.843  1.00141.18     0.019 A 
HETATM    8  C14 MIQ B 502     -15.515   3.039   6.090  1.00138.77     0.033 A 
HETATM    9  C15 MIQ B 502     -15.616   2.699   7.613  1.00142.10     0.195 A 
HETATM   10  N17 MIQ B 502     -15.694   3.860   8.242  1.00139.42    -0.288 N 
HETATM   11  O16 MIQ B 502     -15.626   1.426   8.186  1.00148.93    -0.171 OA
ENDROOT
BRANCH  10  12
HETATM   12  C18 MIQ B 502     -15.818   3.932   9.686  1.00139.82     0.187 C 
HETATM   13  C19 MIQ B 502     -17.030   4.814  10.008  1.00140.06     0.247 C 
HETATM   14  O25 MIQ B 502     -18.064   4.584   9.489  1.00143.95    -0.271 OA
HETATM   15  N20 MIQ B 502     -16.944   5.921  10.939  1.00140.02    -0.296 N 
HETATM   16  H13 MIQ B 502     -17.741   6.493  11.136  1.00142.77     0.171 HD
HETATM   17  C21 MIQ B 502     -15.668   6.188  11.552  1.00142.22     0.224 C 
HETATM   18  C22 MIQ B 502     -14.437   5.905  10.714  1.00139.52     0.106 C 
HETATM   19  O24 MIQ B 502     -15.588   6.603  12.656  1.00146.13    -0.273 OA
HETATM   20  C23 MIQ B 502     -14.519   4.446  10.305  1.00139.15     0.045 C 
ENDBRANCH  10  12
BRANCH   5  21
HETATM   21  N6  MIQ B 502     -15.293   5.009   2.224  1.00140.95    -0.377 N 
HETATM   22  C7  MIQ B 502     -16.194   6.121   1.977  1.00142.12     0.149 C 
HETATM   23  C8  MIQ B 502     -16.486   6.298   0.492  1.00144.10     0.187 C 
HETATM   24  O9  MIQ B 502     -15.332   6.279  -0.294  1.00148.65    -0.388 OA
HETATM   25  C10 MIQ B 502     -14.106   5.898   0.257  1.00147.44     0.187 C 
HETATM   26  C11 MIQ B 502     -14.102   4.889   1.400  1.00144.08     0.149 C 
ENDBRANCH   5  21
TORSDOF 2
ENDMDL
MODEL 9
REMARK VINA RESULT:      -6.4      4.334      7.311
REMARK  2 active torsions:
REMARK  status: ('A' for Active; 'I' for Inactive)
REMARK    1  A    between atoms: C5_5  and  N6_21 
REMARK    2  A    between atoms: C18_14  and  N17_19 
ROOT
HETATM    1  O1  MIQ B 502     -18.206   2.258   3.353  1.00142.91    -0.171 OA
HETATM    2  C2  MIQ B 502     -17.845   3.490   2.804  1.00141.17     0.195 A 
HETATM    3  C3  MIQ B 502     -17.409   4.762   3.599  1.00141.71     0.035 A 
HETATM    4  C4  MIQ B 502     -17.246   5.055   5.043  1.00142.86     0.046 A 
HETATM    5  C5  MIQ B 502     -16.822   6.338   5.470  1.00139.53     0.031 A 
HETATM    6  C12 MIQ B 502     -16.545   7.373   4.485  1.00139.38     0.030 A 
HETATM    7  C13 MIQ B 502     -16.700   7.093   3.100  1.00141.18     0.019 A 
HETATM    8  C14 MIQ B 502     -17.143   5.742   2.657  1.00138.77     0.033 A 
HETATM    9  C15 MIQ B 502     -17.415   5.075   1.269  1.00142.10     0.195 A 
HETATM   10  N17 MIQ B 502     -17.791   3.834   1.528  1.00139.42    -0.288 N 
HETATM   11  O16 MIQ B 502     -17.288   5.674   0.015  1.00148.93    -0.171 OA
ENDROOT
BRANCH  10  12
HETATM   12  C18 MIQ B 502     -18.145   2.912   0.465  1.00139.82     0.187 C 
HETATM   13  C19 MIQ B 502     -17.022   2.949  -0.579  1.00140.06     0.247 C 
HETATM   14  O25 MIQ B 502     -15.904   2.808  -0.228  1.00143.95    -0.271 OA
HETATM   15  N20 MIQ B 502     -17.294   3.147  -1.988  1.00140.02    -0.296 N 
HETATM   16  H13 MIQ B 502     -16.552   3.175  -2.658  1.00142.77     0.171 HD
HETATM   17  C21 MIQ B 502     -18.665   3.326  -2.390  1.00142.22     0.224 C 
HETATM   18  C22 MIQ B 502     -19.574   4.048  -1.413  1.00139.52     0.106 C 
HETATM   19  O24 MIQ B 502     -19.062   2.926  -3.429  1.00146.13    -0.273 OA
HETATM   20  C23 MIQ B 502     -19.514   3.267  -0.113  1.00139.15     0.045 C 
ENDBRANCH  10  12
BRANCH   5  21
HETATM   21  N6  MIQ B 502     -16.681   6.616   6.888  1.00140.95    -0.377 N 
HETATM   22  C7  MIQ B 502     -17.593   5.969   7.816  1.00142.12     0.149 C 
HETATM   23  C8  MIQ B 502     -17.778   6.783   9.091  1.00144.10     0.187 C 
HETATM   24  O9  MIQ B 502     -16.569   7.211   9.643  1.00148.65    -0.388 OA
HETATM   25  C10 MIQ B 502     -15.377   7.077   8.926  1.00147.44     0.187 C 
HETATM   26  C11 MIQ B 502     -15.430   7.143   7.404  1.00144.08     0.149 C 
ENDBRANCH   5  21
TORSDOF 2
ENDMDL
