MODEL 1
REMARK VINA RESULT:      -6.5      0.000      0.000
REMARK  2 active torsions:
REMARK  status: ('A' for Active; 'I' for Inactive)
REMARK    1  A    between atoms: C5_5  and  N6_21 
REMARK    2  A    between atoms: C18_14  and  N17_19 
ROOT
HETATM    1  O1  MIQ B 502      -6.816  -1.517 -21.955  1.00142.91    -0.171 OA
HETATM    2  C2  MIQ B 502      -5.898  -0.879 -21.117  1.00141.17     0.195 A 
HETATM    3  C3  MIQ B 502      -4.442  -0.458 -21.496  1.00141.71     0.035 A 
HETATM    4  C4  MIQ B 502      -3.636  -0.577 -22.734  1.00142.86     0.046 A 
HETATM    5  C5  MIQ B 502      -2.307  -0.087 -22.774  1.00139.53     0.031 A 
HETATM    6  C12 MIQ B 502      -1.732   0.538 -21.591  1.00139.38     0.030 A 
HETATM    7  C13 MIQ B 502      -2.504   0.654 -20.404  1.00141.18     0.019 A 
HETATM    8  C14 MIQ B 502      -3.900   0.138 -20.369  1.00138.77     0.033 A 
HETATM    9  C15 MIQ B 502      -5.026   0.088 -19.285  1.00142.10     0.195 A 
HETATM   10  N17 MIQ B 502      -6.061  -0.501 -19.861  1.00139.42    -0.288 N 
HETATM   11  O16 MIQ B 502      -4.949   0.568 -17.976  1.00148.93    -0.171 OA
ENDROOT
BRANCH  10  12
HETATM   12  C18 MIQ B 502      -7.298  -0.736 -19.139  1.00139.82     0.187 C 
HETATM   13  C19 MIQ B 502      -7.657  -2.218 -19.296  1.00140.06     0.247 C 
HETATM   14  O25 MIQ B 502      -6.844  -3.037 -19.054  1.00143.95    -0.271 OA
HETATM   15  N20 MIQ B 502      -8.973  -2.643 -19.729  1.00140.02    -0.296 N 
HETATM   16  H13 MIQ B 502      -9.193  -3.614 -19.835  1.00142.77     0.171 HD
HETATM   17  C21 MIQ B 502      -9.946  -1.625 -20.029  1.00142.22     0.224 C 
HETATM   18  C22 MIQ B 502      -9.418  -0.332 -20.621  1.00139.52     0.106 C 
HETATM   19  O24 MIQ B 502     -11.097  -1.789 -19.819  1.00146.13    -0.273 OA
HETATM   20  C23 MIQ B 502      -8.392   0.205 -19.639  1.00139.15     0.045 C 
ENDBRANCH  10  12
BRANCH   5  21
HETATM   21  N6  MIQ B 502      -1.524  -0.223 -23.988  1.00140.95    -0.377 N 
HETATM   22  C7  MIQ B 502      -0.643  -1.371 -24.122  1.00142.12     0.149 C 
HETATM   23  C8  MIQ B 502       0.529  -1.083 -25.050  1.00144.10     0.187 C 
HETATM   24  O9  MIQ B 502       0.138  -0.488 -26.251  1.00148.65    -0.388 OA
HETATM   25  C10 MIQ B 502      -1.168  -0.021 -26.417  1.00147.44     0.187 C 
HETATM   26  C11 MIQ B 502      -1.923   0.485 -25.192  1.00144.08     0.149 C 
ENDBRANCH   5  21
TORSDOF 2
ENDMDL
MODEL 2
REMARK VINA RESULT:      -6.3     18.112     20.121
REMARK  2 active torsions:
REMARK  status: ('A' for Active; 'I' for Inactive)
REMARK    1  A    between atoms: C5_5  and  N6_21 
REMARK    2  A    between atoms: C18_14  and  N17_19 
ROOT
HETATM    1  O1  MIQ B 502       8.607  -7.676  -9.251  1.00142.91    -0.171 OA
HETATM    2  C2  MIQ B 502       8.522  -8.284 -10.506  1.00141.17     0.195 A 
HETATM    3  C3  MIQ B 502       8.442  -9.819 -10.782  1.00141.71     0.035 A 
HETATM    4  C4  MIQ B 502       8.427 -11.013  -9.904  1.00142.86     0.046 A 
HETATM    5  C5  MIQ B 502       8.344 -12.313 -10.464  1.00139.53     0.031 A 
HETATM    6  C12 MIQ B 502       8.271 -12.475 -11.909  1.00139.38     0.030 A 
HETATM    7  C13 MIQ B 502       8.284 -11.330 -12.751  1.00141.18     0.019 A 
HETATM    8  C14 MIQ B 502       8.369  -9.968 -12.158  1.00138.77     0.033 A 
HETATM    9  C15 MIQ B 502       8.404  -8.516 -12.738  1.00142.10     0.195 A 
HETATM   10  N17 MIQ B 502       8.487  -7.707 -11.695  1.00139.42    -0.288 N 
HETATM   11  O16 MIQ B 502       8.360  -8.154 -14.085  1.00148.93    -0.171 OA
ENDROOT
BRANCH  10  12
HETATM   12  C18 MIQ B 502       8.556  -6.267 -11.856  1.00139.82     0.187 C 
HETATM   13  C19 MIQ B 502       7.376  -5.838 -12.736  1.00140.06     0.247 C 
HETATM   14  O25 MIQ B 502       6.288  -6.197 -12.456  1.00143.95    -0.271 OA
HETATM   15  N20 MIQ B 502       7.558  -4.997 -13.901  1.00140.02    -0.296 N 
HETATM   16  H13 MIQ B 502       6.780  -4.729 -14.471  1.00142.77     0.171 HD
HETATM   17  C21 MIQ B 502       8.896  -4.579 -14.229  1.00142.22     0.224 C 
HETATM   18  C22 MIQ B 502      10.012  -5.558 -13.914  1.00139.52     0.106 C 
HETATM   19  O24 MIQ B 502       9.113  -3.523 -14.714  1.00146.13    -0.273 OA
HETATM   20  C23 MIQ B 502       9.913  -5.861 -12.431  1.00139.15     0.045 C 
ENDBRANCH  10  12
BRANCH   5  21
HETATM   21  N6  MIQ B 502       8.345 -13.475  -9.593  1.00140.95    -0.377 N 
HETATM   22  C7  MIQ B 502       8.271 -13.266  -8.157  1.00142.12     0.149 C 
HETATM   23  C8  MIQ B 502       8.909 -14.412  -7.382  1.00144.10     0.187 C 
HETATM   24  O9  MIQ B 502       8.489 -15.668  -7.825  1.00148.65    -0.388 OA
HETATM   25  C10 MIQ B 502       7.750 -15.791  -9.005  1.00147.44     0.187 C 
HETATM   26  C11 MIQ B 502       7.983 -14.778 -10.121  1.00144.08     0.149 C 
ENDBRANCH   5  21
TORSDOF 2
ENDMDL
MODEL 3
REMARK VINA RESULT:      -6.2      1.674      2.659
REMARK  2 active torsions:
REMARK  status: ('A' for Active; 'I' for Inactive)
REMARK    1  A    between atoms: C5_5  and  N6_21 
REMARK    2  A    between atoms: C18_14  and  N17_19 
ROOT
HETATM    1  O1  MIQ B 502      -7.901  -2.119 -22.982  1.00142.91    -0.171 OA
HETATM    2  C2  MIQ B 502      -7.400  -1.610 -21.781  1.00141.17     0.195 A 
HETATM    3  C3  MIQ B 502      -5.989  -0.975 -21.566  1.00141.71     0.035 A 
HETATM    4  C4  MIQ B 502      -4.837  -0.725 -22.464  1.00142.86     0.046 A 
HETATM    5  C5  MIQ B 502      -3.659  -0.113 -21.965  1.00139.53     0.031 A 
HETATM    6  C12 MIQ B 502      -3.582   0.270 -20.563  1.00139.38     0.030 A 
HETATM    7  C13 MIQ B 502      -4.687   0.030 -19.702  1.00141.18     0.019 A 
HETATM    8  C14 MIQ B 502      -5.922  -0.609 -20.232  1.00138.77     0.033 A 
HETATM    9  C15 MIQ B 502      -7.299  -1.018 -19.615  1.00142.10     0.195 A 
HETATM   10  N17 MIQ B 502      -7.998  -1.553 -20.604  1.00139.42    -0.288 N 
HETATM   11  O16 MIQ B 502      -7.704  -0.853 -18.289  1.00148.93    -0.171 OA
ENDROOT
BRANCH  10  12
HETATM   12  C18 MIQ B 502      -9.338  -2.067 -20.392  1.00139.82     0.187 C 
HETATM   13  C19 MIQ B 502     -10.151  -0.976 -19.684  1.00140.06     0.247 C 
HETATM   14  O25 MIQ B 502     -10.163   0.116 -20.132  1.00143.95    -0.271 OA
HETATM   15  N20 MIQ B 502     -10.911  -1.249 -18.481  1.00140.02    -0.296 N 
HETATM   16  H13 MIQ B 502     -11.432  -0.526 -18.025  1.00142.77     0.171 HD
HETATM   17  C21 MIQ B 502     -10.872  -2.586 -17.948  1.00142.22     0.224 C 
HETATM   18  C22 MIQ B 502      -9.575  -3.352 -18.123  1.00139.52     0.106 C 
HETATM   19  O24 MIQ B 502     -11.808  -3.063 -17.407  1.00146.13    -0.273 OA
HETATM   20  C23 MIQ B 502      -9.288  -3.380 -19.613  1.00139.15     0.045 C 
ENDBRANCH  10  12
BRANCH   5  21
HETATM   21  N6  MIQ B 502      -2.533   0.113 -22.853  1.00140.95    -0.377 N 
HETATM   22  C7  MIQ B 502      -2.799   0.454 -24.240  1.00142.12     0.149 C 
HETATM   23  C8  MIQ B 502      -1.656   0.038 -25.157  1.00144.10     0.187 C 
HETATM   24  O9  MIQ B 502      -0.404   0.426 -24.676  1.00148.65    -0.388 OA
HETATM   25  C10 MIQ B 502      -0.268   0.926 -23.379  1.00147.44     0.187 C 
HETATM   26  C11 MIQ B 502      -1.227   0.430 -22.302  1.00144.08     0.149 C 
ENDBRANCH   5  21
TORSDOF 2
ENDMDL
MODEL 4
REMARK VINA RESULT:      -6.2     15.785     17.686
REMARK  2 active torsions:
REMARK  status: ('A' for Active; 'I' for Inactive)
REMARK    1  A    between atoms: C5_5  and  N6_21 
REMARK    2  A    between atoms: C18_14  and  N17_19 
ROOT
HETATM    1  O1  MIQ B 502      12.061  -5.478 -12.313  1.00142.91    -0.171 OA
HETATM    2  C2  MIQ B 502      10.737  -5.591 -12.743  1.00141.17     0.195 A 
HETATM    3  C3  MIQ B 502       9.988  -4.599 -13.689  1.00141.71     0.035 A 
HETATM    4  C4  MIQ B 502      10.386  -3.347 -14.375  1.00142.86     0.046 A 
HETATM    5  C5  MIQ B 502       9.460  -2.651 -15.192  1.00139.53     0.031 A 
HETATM    6  C12 MIQ B 502       8.111  -3.171 -15.359  1.00139.38     0.030 A 
HETATM    7  C13 MIQ B 502       7.728  -4.372 -14.703  1.00141.18     0.019 A 
HETATM    8  C14 MIQ B 502       8.706  -5.099 -13.848  1.00138.77     0.033 A 
HETATM    9  C15 MIQ B 502       8.659  -6.410 -12.996  1.00142.10     0.195 A 
HETATM   10  N17 MIQ B 502       9.859  -6.536 -12.455  1.00139.42    -0.288 N 
HETATM   11  O16 MIQ B 502       7.568  -7.266 -12.839  1.00148.93    -0.171 OA
ENDROOT
BRANCH  10  12
HETATM   12  C18 MIQ B 502      10.181  -7.645 -11.576  1.00139.82     0.187 C 
HETATM   13  C19 MIQ B 502       9.721  -8.936 -12.265  1.00140.06     0.247 C 
HETATM   14  O25 MIQ B 502      10.054  -9.145 -13.377  1.00143.95    -0.271 OA
HETATM   15  N20 MIQ B 502       8.893  -9.912 -11.585  1.00140.02    -0.296 N 
HETATM   16  H13 MIQ B 502       8.595 -10.747 -12.048  1.00142.77     0.171 HD
HETATM   17  C21 MIQ B 502       8.492  -9.629 -10.231  1.00142.22     0.224 C 
HETATM   18  C22 MIQ B 502       8.256  -8.173  -9.880  1.00139.52     0.106 C 
HETATM   19  O24 MIQ B 502       8.359 -10.491  -9.434  1.00146.13    -0.273 OA
HETATM   20  C23 MIQ B 502       9.544  -7.438 -10.203  1.00139.15     0.045 C 
ENDBRANCH  10  12
BRANCH   5  21
HETATM   21  N6  MIQ B 502       9.860  -1.418 -15.846  1.00140.95    -0.377 N 
HETATM   22  C7  MIQ B 502       8.824  -0.524 -16.335  1.00142.12     0.149 C 
HETATM   23  C8  MIQ B 502       9.312   0.328 -17.500  1.00144.10     0.187 C 
HETATM   24  O9  MIQ B 502      10.550   0.926 -17.254  1.00148.65    -0.388 OA
HETATM   25  C10 MIQ B 502      11.309   0.551 -16.143  1.00147.44     0.187 C 
HETATM   26  C11 MIQ B 502      11.191  -0.879 -15.627  1.00144.08     0.149 C 
ENDBRANCH   5  21
TORSDOF 2
ENDMDL
MODEL 5
REMARK VINA RESULT:      -6.2     15.897     18.267
REMARK  2 active torsions:
REMARK  status: ('A' for Active; 'I' for Inactive)
REMARK    1  A    between atoms: C5_5  and  N6_21 
REMARK    2  A    between atoms: C18_14  and  N17_19 
ROOT
HETATM    1  O1  MIQ B 502       7.284  -6.503 -12.010  1.00142.91    -0.171 OA
HETATM    2  C2  MIQ B 502       8.016  -6.805 -13.160  1.00141.17     0.195 A 
HETATM    3  C3  MIQ B 502       8.494  -8.224 -13.604  1.00141.71     0.035 A 
HETATM    4  C4  MIQ B 502       8.344  -9.578 -13.020  1.00142.86     0.046 A 
HETATM    5  C5  MIQ B 502       8.903 -10.706 -13.673  1.00139.53     0.031 A 
HETATM    6  C12 MIQ B 502       9.626 -10.532 -14.925  1.00139.38     0.030 A 
HETATM    7  C13 MIQ B 502       9.768  -9.234 -15.485  1.00141.18     0.019 A 
HETATM    8  C14 MIQ B 502       9.178  -8.054 -14.796  1.00138.77     0.033 A 
HETATM    9  C15 MIQ B 502       9.124  -6.520 -15.095  1.00142.10     0.195 A 
HETATM   10  N17 MIQ B 502       8.446  -5.977 -14.098  1.00139.42    -0.288 N 
HETATM   11  O16 MIQ B 502       9.683  -5.862 -16.192  1.00148.93    -0.171 OA
ENDROOT
BRANCH  10  12
HETATM   12  C18 MIQ B 502       8.209  -4.547 -14.033  1.00139.82     0.187 C 
HETATM   13  C19 MIQ B 502       7.593  -4.114 -15.368  1.00140.06     0.247 C 
HETATM   14  O25 MIQ B 502       6.656  -4.697 -15.787  1.00143.95    -0.271 OA
HETATM   15  N20 MIQ B 502       8.125  -3.003 -16.130  1.00140.02    -0.296 N 
HETATM   16  H13 MIQ B 502       7.718  -2.734 -17.004  1.00142.77     0.171 HD
HETATM   17  C21 MIQ B 502       9.275  -2.314 -15.604  1.00142.22     0.224 C 
HETATM   18  C22 MIQ B 502      10.275  -3.150 -14.830  1.00139.52     0.106 C 
HETATM   19  O24 MIQ B 502       9.427  -1.153 -15.765  1.00146.13    -0.273 OA
HETATM   20  C23 MIQ B 502       9.504  -3.808 -13.700  1.00139.15     0.045 C 
ENDBRANCH  10  12
BRANCH   5  21
HETATM   21  N6  MIQ B 502       8.762 -12.024 -13.082  1.00140.95    -0.377 N 
HETATM   22  C7  MIQ B 502       7.679 -12.251 -12.141  1.00142.12     0.149 C 
HETATM   23  C8  MIQ B 502       8.005 -13.367 -11.157  1.00144.10     0.187 C 
HETATM   24  O9  MIQ B 502       8.504 -14.513 -11.780  1.00148.65    -0.388 OA
HETATM   25  C10 MIQ B 502       8.861 -14.485 -13.130  1.00147.44     0.187 C 
HETATM   26  C11 MIQ B 502       9.372 -13.176 -13.723  1.00144.08     0.149 C 
ENDBRANCH   5  21
TORSDOF 2
ENDMDL
MODEL 6
REMARK VINA RESULT:      -6.0     18.977     20.409
REMARK  2 active torsions:
REMARK  status: ('A' for Active; 'I' for Inactive)
REMARK    1  A    between atoms: C5_5  and  N6_21 
REMARK    2  A    between atoms: C18_14  and  N17_19 
ROOT
HETATM    1  O1  MIQ B 502       8.243  -9.875  -7.706  1.00142.91    -0.171 OA
HETATM    2  C2  MIQ B 502       8.186 -10.558  -8.923  1.00141.17     0.195 A 
HETATM    3  C3  MIQ B 502       8.281  -9.917 -10.344  1.00141.71     0.035 A 
HETATM    4  C4  MIQ B 502       8.447  -8.526 -10.826  1.00142.86     0.046 A 
HETATM    5  C5  MIQ B 502       8.501  -8.250 -12.216  1.00139.53     0.031 A 
HETATM    6  C12 MIQ B 502       8.393  -9.341 -13.174  1.00139.38     0.030 A 
HETATM    7  C13 MIQ B 502       8.234 -10.675 -12.712  1.00141.18     0.019 A 
HETATM    8  C14 MIQ B 502       8.181 -10.959 -11.252  1.00138.77     0.033 A 
HETATM    9  C15 MIQ B 502       8.024 -12.254 -10.389  1.00142.10     0.195 A 
HETATM   10  N17 MIQ B 502       8.050 -11.857  -9.127  1.00139.42    -0.288 N 
HETATM   11  O16 MIQ B 502       7.883 -13.560 -10.860  1.00148.93    -0.171 OA
ENDROOT
BRANCH  10  12
HETATM   12  C18 MIQ B 502       7.912 -12.800  -8.034  1.00139.82     0.187 C 
HETATM   13  C19 MIQ B 502       6.856 -12.248  -7.069  1.00140.06     0.247 C 
HETATM   14  O25 MIQ B 502       5.808 -11.911  -7.494  1.00143.95    -0.271 OA
HETATM   15  N20 MIQ B 502       7.105 -12.133  -5.647  1.00140.02    -0.296 N 
HETATM   16  H13 MIQ B 502       6.410 -11.765  -5.029  1.00142.77     0.171 HD
HETATM   17  C21 MIQ B 502       8.396 -12.541  -5.153  1.00142.22     0.224 C 
HETATM   18  C22 MIQ B 502       9.580 -12.314  -6.074  1.00139.52     0.106 C 
HETATM   19  O24 MIQ B 502       8.522 -13.032  -4.086  1.00146.13    -0.273 OA
HETATM   20  C23 MIQ B 502       9.266 -13.043  -7.368  1.00139.15     0.045 C 
ENDBRANCH  10  12
BRANCH   5  21
HETATM   21  N6  MIQ B 502       8.650  -6.880 -12.674  1.00140.95    -0.377 N 
HETATM   22  C7  MIQ B 502       7.533  -6.252 -13.357  1.00142.12     0.149 C 
HETATM   23  C8  MIQ B 502       7.993  -5.154 -14.308  1.00144.10     0.187 C 
HETATM   24  O9  MIQ B 502       8.905  -4.275 -13.722  1.00148.65    -0.388 OA
HETATM   25  C10 MIQ B 502       9.470  -4.566 -12.478  1.00147.44     0.187 C 
HETATM   26  C11 MIQ B 502       9.672  -6.028 -12.093  1.00144.08     0.149 C 
ENDBRANCH   5  21
TORSDOF 2
ENDMDL
MODEL 7
REMARK VINA RESULT:      -6.0     14.946     17.016
REMARK  2 active torsions:
REMARK  status: ('A' for Active; 'I' for Inactive)
REMARK    1  A    between atoms: C5_5  and  N6_21 
REMARK    2  A    between atoms: C18_14  and  N17_19 
ROOT
HETATM    1  O1  MIQ B 502      10.479  -5.835 -14.135  1.00142.91    -0.171 OA
HETATM    2  C2  MIQ B 502       9.593  -4.859 -14.597  1.00141.17     0.195 A 
HETATM    3  C3  MIQ B 502       9.979  -3.446 -15.140  1.00141.71     0.035 A 
HETATM    4  C4  MIQ B 502      11.272  -2.746 -15.330  1.00142.86     0.046 A 
HETATM    5  C5  MIQ B 502      11.303  -1.432 -15.861  1.00139.53     0.031 A 
HETATM    6  C12 MIQ B 502      10.059  -0.768 -16.222  1.00139.38     0.030 A 
HETATM    7  C13 MIQ B 502       8.820  -1.439 -16.040  1.00141.18     0.019 A 
HETATM    8  C14 MIQ B 502       8.793  -2.820 -15.485  1.00138.77     0.033 A 
HETATM    9  C15 MIQ B 502       7.664  -3.850 -15.154  1.00142.10     0.195 A 
HETATM   10  N17 MIQ B 502       8.275  -4.921 -14.676  1.00139.42    -0.288 N 
HETATM   11  O16 MIQ B 502       6.290  -3.669 -15.328  1.00148.93    -0.171 OA
ENDROOT
BRANCH  10  12
HETATM   12  C18 MIQ B 502       7.530  -6.088 -14.244  1.00139.82     0.187 C 
HETATM   13  C19 MIQ B 502       7.897  -6.362 -12.780  1.00140.06     0.247 C 
HETATM   14  O25 MIQ B 502       7.832  -5.483 -11.996  1.00143.95    -0.271 OA
HETATM   15  N20 MIQ B 502       8.316  -7.674 -12.330  1.00140.02    -0.296 N 
HETATM   16  H13 MIQ B 502       8.560  -7.838 -11.373  1.00142.77     0.171 HD
HETATM   17  C21 MIQ B 502       8.398  -8.728 -13.308  1.00142.22     0.224 C 
HETATM   18  C22 MIQ B 502       8.808  -8.325 -14.711  1.00139.52     0.106 C 
HETATM   19  O24 MIQ B 502       8.151  -9.850 -13.029  1.00146.13    -0.273 OA
HETATM   20  C23 MIQ B 502       7.814  -7.273 -15.166  1.00139.15     0.045 C 
ENDBRANCH  10  12
BRANCH   5  21
HETATM   21  N6  MIQ B 502      12.575  -0.752 -16.028  1.00140.95    -0.377 N 
HETATM   22  C7  MIQ B 502      13.797  -1.531 -15.927  1.00142.12     0.149 C 
HETATM   23  C8  MIQ B 502      14.979  -0.680 -15.480  1.00144.10     0.187 C 
HETATM   24  O9  MIQ B 502      15.090   0.514 -16.196  1.00148.65    -0.388 OA
HETATM   25  C10 MIQ B 502      14.061   0.926 -17.048  1.00147.44     0.187 C 
HETATM   26  C11 MIQ B 502      12.629   0.531 -16.706  1.00144.08     0.149 C 
ENDBRANCH   5  21
TORSDOF 2
ENDMDL
MODEL 8
REMARK VINA RESULT:      -6.0     16.537     19.135
REMARK  2 active torsions:
REMARK  status: ('A' for Active; 'I' for Inactive)
REMARK    1  A    between atoms: C5_5  and  N6_21 
REMARK    2  A    between atoms: C18_14  and  N17_19 
ROOT
HETATM    1  O1  MIQ B 502       8.872  -4.766 -12.557  1.00142.91    -0.171 OA
HETATM    2  C2  MIQ B 502       8.888  -6.082 -13.024  1.00141.17     0.195 A 
HETATM    3  C3  MIQ B 502       8.731  -7.371 -12.156  1.00141.71     0.035 A 
HETATM    4  C4  MIQ B 502       8.531  -7.605 -10.706  1.00142.86     0.046 A 
HETATM    5  C5  MIQ B 502       8.420  -8.925 -10.202  1.00139.53     0.031 A 
HETATM    6  C12 MIQ B 502       8.501 -10.057 -11.115  1.00139.38     0.030 A 
HETATM    7  C13 MIQ B 502       8.692  -9.833 -12.505  1.00141.18     0.019 A 
HETATM    8  C14 MIQ B 502       8.806  -8.444 -13.029  1.00138.77     0.033 A 
HETATM    9  C15 MIQ B 502       9.010  -7.818 -14.447  1.00142.10     0.195 A 
HETATM   10  N17 MIQ B 502       9.030  -6.507 -14.268  1.00139.42    -0.288 N 
HETATM   11  O16 MIQ B 502       9.146  -8.507 -15.653  1.00148.93    -0.171 OA
ENDROOT
BRANCH  10  12
HETATM   12  C18 MIQ B 502       9.220  -5.594 -15.379  1.00139.82     0.187 C 
HETATM   13  C19 MIQ B 502      10.367  -4.645 -15.014  1.00140.06     0.247 C 
HETATM   14  O25 MIQ B 502      11.390  -5.096 -14.635  1.00143.95    -0.271 OA
HETATM   15  N20 MIQ B 502      10.234  -3.207 -15.126  1.00140.02    -0.296 N 
HETATM   16  H13 MIQ B 502      10.988  -2.597 -14.878  1.00142.77     0.171 HD
HETATM   17  C21 MIQ B 502       8.973  -2.680 -15.581  1.00142.22     0.224 C 
HETATM   18  C22 MIQ B 502       7.729  -3.450 -15.182  1.00139.52     0.106 C 
HETATM   19  O24 MIQ B 502       8.914  -1.698 -16.236  1.00146.13    -0.273 OA
HETATM   20  C23 MIQ B 502       7.915  -4.866 -15.698  1.00139.15     0.045 C 
ENDBRANCH  10  12
BRANCH   5  21
HETATM   21  N6  MIQ B 502       8.239  -9.140  -8.778  1.00140.95    -0.377 N 
HETATM   22  C7  MIQ B 502       6.889  -9.302  -8.266  1.00142.12     0.149 C 
HETATM   23  C8  MIQ B 502       6.780  -8.879  -6.806  1.00144.10     0.187 C 
HETATM   24  O9  MIQ B 502       7.790  -9.417  -6.007  1.00148.65    -0.388 OA
HETATM   25  C10 MIQ B 502       8.881 -10.069  -6.589  1.00147.44     0.187 C 
HETATM   26  C11 MIQ B 502       9.346  -9.621  -7.970  1.00144.08     0.149 C 
ENDBRANCH   5  21
TORSDOF 2
ENDMDL
MODEL 9
REMARK VINA RESULT:      -6.0      2.389      4.431
REMARK  2 active torsions:
REMARK  status: ('A' for Active; 'I' for Inactive)
REMARK    1  A    between atoms: C5_5  and  N6_21 
REMARK    2  A    between atoms: C18_14  and  N17_19 
ROOT
HETATM    1  O1  MIQ B 502      -7.294  -3.541 -18.161  1.00142.91    -0.171 OA
HETATM    2  C2  MIQ B 502      -7.927  -2.758 -19.129  1.00141.17     0.195 A 
HETATM    3  C3  MIQ B 502      -7.232  -1.747 -20.096  1.00141.71     0.035 A 
HETATM    4  C4  MIQ B 502      -5.824  -1.327 -20.292  1.00142.86     0.046 A 
HETATM    5  C5  MIQ B 502      -5.495  -0.363 -21.278  1.00139.53     0.031 A 
HETATM    6  C12 MIQ B 502      -6.545   0.217 -22.102  1.00139.38     0.030 A 
HETATM    7  C13 MIQ B 502      -7.895  -0.187 -21.915  1.00141.18     0.019 A 
HETATM    8  C14 MIQ B 502      -8.235  -1.201 -20.880  1.00138.77     0.033 A 
HETATM    9  C15 MIQ B 502      -9.560  -1.878 -20.398  1.00142.10     0.195 A 
HETATM   10  N17 MIQ B 502      -9.213  -2.711 -19.431  1.00139.42    -0.288 N 
HETATM   11  O16 MIQ B 502     -10.845  -1.644 -20.890  1.00148.93    -0.171 OA
ENDROOT
BRANCH  10  12
HETATM   12  C18 MIQ B 502     -10.201  -3.509 -18.729  1.00139.82     0.187 C 
HETATM   13  C19 MIQ B 502     -11.008  -4.284 -19.778  1.00140.06     0.247 C 
HETATM   14  O25 MIQ B 502     -10.435  -4.911 -20.597  1.00143.95    -0.271 OA
HETATM   15  N20 MIQ B 502     -12.456  -4.272 -19.790  1.00140.02    -0.296 N 
HETATM   16  H13 MIQ B 502     -12.971  -4.776 -20.484  1.00142.77     0.171 HD
HETATM   17  C21 MIQ B 502     -13.132  -3.490 -18.786  1.00142.22     0.224 C 
HETATM   18  C22 MIQ B 502     -12.444  -2.216 -18.338  1.00139.52     0.106 C 
HETATM   19  O24 MIQ B 502     -14.169  -3.830 -18.333  1.00146.13    -0.273 OA
HETATM   20  C23 MIQ B 502     -11.068  -2.620 -17.839  1.00139.15     0.045 C 
ENDBRANCH  10  12
BRANCH   5  21
HETATM   21  N6  MIQ B 502      -4.113   0.050 -21.448  1.00140.95    -0.377 N 
HETATM   22  C7  MIQ B 502      -3.736   0.719 -22.681  1.00142.12     0.149 C 
HETATM   23  C8  MIQ B 502      -2.263   0.515 -23.011  1.00144.10     0.187 C 
HETATM   24  O9  MIQ B 502      -1.424   0.755 -21.921  1.00148.65    -0.388 OA
HETATM   25  C10 MIQ B 502      -1.958   0.926 -20.641  1.00147.44     0.187 C 
HETATM   26  C11 MIQ B 502      -3.253   0.202 -20.288  1.00144.08     0.149 C 
ENDBRANCH   5  21
TORSDOF 2
ENDMDL
