MODEL 1
REMARK VINA RESULT:      -6.7      0.000      0.000
REMARK  2 active torsions:
REMARK  status: ('A' for Active; 'I' for Inactive)
REMARK    1  A    between atoms: C5_5  and  N6_21 
REMARK    2  A    between atoms: C18_14  and  N17_19 
ROOT
HETATM    1  O1  MIQ B 502     -11.712   4.420  10.210  1.00142.91    -0.171 OA
HETATM    2  C2  MIQ B 502     -10.447   4.323  10.795  1.00141.17     0.195 A 
HETATM    3  C3  MIQ B 502      -9.389   5.467  10.899  1.00141.71     0.035 A 
HETATM    4  C4  MIQ B 502      -9.373   6.883  10.462  1.00142.86     0.046 A 
HETATM    5  C5  MIQ B 502      -8.237   7.695  10.705  1.00139.53     0.031 A 
HETATM    6  C12 MIQ B 502      -7.080   7.134  11.387  1.00139.38     0.030 A 
HETATM    7  C13 MIQ B 502      -7.095   5.777  11.807  1.00141.18     0.019 A 
HETATM    8  C14 MIQ B 502      -8.292   4.929  11.552  1.00138.77     0.033 A 
HETATM    9  C15 MIQ B 502      -8.672   3.443  11.857  1.00142.10     0.195 A 
HETATM   10  N17 MIQ B 502      -9.893   3.273  11.376  1.00139.42    -0.288 N 
HETATM   11  O16 MIQ B 502      -7.879   2.493  12.502  1.00148.93    -0.171 OA
ENDROOT
BRANCH  10  12
HETATM   12  C18 MIQ B 502     -10.570   1.993  11.467  1.00139.82     0.187 C 
HETATM   13  C19 MIQ B 502     -11.013   1.597  10.054  1.00140.06     0.247 C 
HETATM   14  O25 MIQ B 502     -10.224   1.616   9.176  1.00143.95    -0.271 OA
HETATM   15  N20 MIQ B 502     -12.374   1.193   9.764  1.00140.02    -0.296 N 
HETATM   16  H13 MIQ B 502     -12.652   0.943   8.836  1.00142.77     0.171 HD
HETATM   17  C21 MIQ B 502     -13.321   1.187  10.850  1.00142.22     0.224 C 
HETATM   18  C22 MIQ B 502     -13.137   2.247  11.919  1.00139.52     0.106 C 
HETATM   19  O24 MIQ B 502     -14.193   0.392  10.904  1.00146.13    -0.273 OA
HETATM   20  C23 MIQ B 502     -11.729   2.075  12.460  1.00139.15     0.045 C 
ENDBRANCH  10  12
BRANCH   5  21
HETATM   21  N6  MIQ B 502      -8.229   9.076  10.258  1.00140.95    -0.377 N 
HETATM   22  C7  MIQ B 502      -9.501   9.746  10.049  1.00142.12     0.149 C 
HETATM   23  C8  MIQ B 502      -9.392  10.866   9.022  1.00144.10     0.187 C 
HETATM   24  O9  MIQ B 502      -8.305  11.711   9.253  1.00148.65    -0.388 OA
HETATM   25  C10 MIQ B 502      -7.331  11.369  10.196  1.00147.44     0.187 C 
HETATM   26  C11 MIQ B 502      -7.042   9.892  10.443  1.00144.08     0.149 C 
ENDBRANCH   5  21
TORSDOF 2
ENDMDL
MODEL 2
REMARK VINA RESULT:      -6.5      3.896      9.227
REMARK  2 active torsions:
REMARK  status: ('A' for Active; 'I' for Inactive)
REMARK    1  A    between atoms: C5_5  and  N6_21 
REMARK    2  A    between atoms: C18_14  and  N17_19 
ROOT
HETATM    1  O1  MIQ B 502     -12.188  11.224   8.672  1.00142.91    -0.171 OA
HETATM    2  C2  MIQ B 502     -10.907  11.757   8.832  1.00141.17     0.195 A 
HETATM    3  C3  MIQ B 502      -9.647  10.990   9.346  1.00141.71     0.035 A 
HETATM    4  C4  MIQ B 502      -9.412   9.594   9.785  1.00142.86     0.046 A 
HETATM    5  C5  MIQ B 502      -8.123   9.183  10.208  1.00139.53     0.031 A 
HETATM    6  C12 MIQ B 502      -7.024  10.138  10.209  1.00139.38     0.030 A 
HETATM    7  C13 MIQ B 502      -7.248  11.476   9.787  1.00141.18     0.019 A 
HETATM    8  C14 MIQ B 502      -8.604  11.902   9.343  1.00138.77     0.033 A 
HETATM    9  C15 MIQ B 502      -9.219  13.242   8.823  1.00142.10     0.195 A 
HETATM   10  N17 MIQ B 502     -10.496  12.989   8.585  1.00139.42    -0.288 N 
HETATM   11  O16 MIQ B 502      -8.553  14.456   8.650  1.00148.93    -0.171 OA
ENDROOT
BRANCH  10  12
HETATM   12  C18 MIQ B 502     -11.394  14.020   8.099  1.00139.82     0.187 C 
HETATM   13  C19 MIQ B 502     -12.600  14.073   9.045  1.00140.06     0.247 C 
HETATM   14  O25 MIQ B 502     -12.417  14.160  10.207  1.00143.95    -0.271 OA
HETATM   15  N20 MIQ B 502     -13.961  14.025   8.552  1.00140.02    -0.296 N 
HETATM   16  H13 MIQ B 502     -14.739  14.054   9.180  1.00142.77     0.171 HD
HETATM   17  C21 MIQ B 502     -14.159  13.908   7.130  1.00142.22     0.224 C 
HETATM   18  C22 MIQ B 502     -13.127  13.104   6.362  1.00139.52     0.106 C 
HETATM   19  O24 MIQ B 502     -15.078  14.418   6.590  1.00146.13    -0.273 OA
HETATM   20  C23 MIQ B 502     -11.781  13.746   6.647  1.00139.15     0.045 C 
ENDBRANCH  10  12
BRANCH   5  21
HETATM   21  N6  MIQ B 502      -7.911   7.816  10.649  1.00140.95    -0.377 N 
HETATM   22  C7  MIQ B 502      -7.365   7.592  11.976  1.00142.12     0.149 C 
HETATM   23  C8  MIQ B 502      -6.615   6.269  12.067  1.00144.10     0.187 C 
HETATM   24  O9  MIQ B 502      -7.333   5.200  11.528  1.00148.65    -0.388 OA
HETATM   25  C10 MIQ B 502      -8.498   5.429  10.792  1.00147.44     0.187 C 
HETATM   26  C11 MIQ B 502      -8.617   6.726   9.999  1.00144.08     0.149 C 
ENDBRANCH   5  21
TORSDOF 2
ENDMDL
MODEL 3
REMARK VINA RESULT:      -6.3      1.612      2.607
REMARK  2 active torsions:
REMARK  status: ('A' for Active; 'I' for Inactive)
REMARK    1  A    between atoms: C5_5  and  N6_21 
REMARK    2  A    between atoms: C18_14  and  N17_19 
ROOT
HETATM    1  O1  MIQ B 502      -7.150   5.038  11.708  1.00142.91    -0.171 OA
HETATM    2  C2  MIQ B 502      -8.500   5.241  11.410  1.00141.17     0.195 A 
HETATM    3  C3  MIQ B 502      -9.134   6.558  10.858  1.00141.71     0.035 A 
HETATM    4  C4  MIQ B 502      -8.579   7.885  10.503  1.00142.86     0.046 A 
HETATM    5  C5  MIQ B 502      -9.428   8.909  10.013  1.00139.53     0.031 A 
HETATM    6  C12 MIQ B 502     -10.853   8.654   9.858  1.00139.38     0.030 A 
HETATM    7  C13 MIQ B 502     -11.385   7.381  10.197  1.00141.18     0.019 A 
HETATM    8  C14 MIQ B 502     -10.489   6.309  10.709  1.00138.77     0.033 A 
HETATM    9  C15 MIQ B 502     -10.696   4.829  11.170  1.00142.10     0.195 A 
HETATM   10  N17 MIQ B 502      -9.501   4.385  11.522  1.00139.42    -0.288 N 
HETATM   11  O16 MIQ B 502     -11.901   4.126  11.204  1.00148.93    -0.171 OA
ENDROOT
BRANCH  10  12
HETATM   12  C18 MIQ B 502      -9.311   3.037  12.023  1.00139.82     0.187 C 
HETATM   13  C19 MIQ B 502     -10.009   2.075  11.054  1.00140.06     0.247 C 
HETATM   14  O25 MIQ B 502      -9.779   2.152   9.899  1.00143.95    -0.271 OA
HETATM   15  N20 MIQ B 502     -10.942   1.068  11.517  1.00140.02    -0.296 N 
HETATM   16  H13 MIQ B 502     -11.396   0.450  10.873  1.00142.77     0.171 HD
HETATM   17  C21 MIQ B 502     -11.215   1.000  12.929  1.00142.22     0.224 C 
HETATM   18  C22 MIQ B 502     -11.195   2.311  13.691  1.00139.52     0.106 C 
HETATM   19  O24 MIQ B 502     -11.438  -0.029  13.466  1.00146.13    -0.273 OA
HETATM   20  C23 MIQ B 502      -9.826   2.925  13.457  1.00139.15     0.045 C 
ENDBRANCH  10  12
BRANCH   5  21
HETATM   21  N6  MIQ B 502      -8.874  10.210   9.683  1.00140.95    -0.377 N 
HETATM   22  C7  MIQ B 502      -9.780  11.336   9.540  1.00142.12     0.149 C 
HETATM   23  C8  MIQ B 502      -9.219  12.403   8.610  1.00144.10     0.187 C 
HETATM   24  O9  MIQ B 502      -7.895  12.737   8.901  1.00148.65    -0.388 OA
HETATM   25  C10 MIQ B 502      -7.154  11.969   9.804  1.00147.44     0.187 C 
HETATM   26  C11 MIQ B 502      -7.468  10.481   9.925  1.00144.08     0.149 C 
ENDBRANCH   5  21
TORSDOF 2
ENDMDL
MODEL 4
REMARK VINA RESULT:      -6.3      1.971      8.035
REMARK  2 active torsions:
REMARK  status: ('A' for Active; 'I' for Inactive)
REMARK    1  A    between atoms: C5_5  and  N6_21 
REMARK    2  A    between atoms: C18_14  and  N17_19 
ROOT
HETATM    1  O1  MIQ B 502     -10.651   9.006  10.121  1.00142.91    -0.171 OA
HETATM    2  C2  MIQ B 502      -9.505   8.333  10.551  1.00141.17     0.195 A 
HETATM    3  C3  MIQ B 502      -9.356   6.788  10.729  1.00141.71     0.035 A 
HETATM    4  C4  MIQ B 502     -10.277   5.645  10.522  1.00142.86     0.046 A 
HETATM    5  C5  MIQ B 502      -9.841   4.319  10.774  1.00139.53     0.031 A 
HETATM    6  C12 MIQ B 502      -8.482   4.081  11.239  1.00139.38     0.030 A 
HETATM    7  C13 MIQ B 502      -7.599   5.177  11.437  1.00141.18     0.019 A 
HETATM    8  C14 MIQ B 502      -8.061   6.566  11.168  1.00138.77     0.033 A 
HETATM    9  C15 MIQ B 502      -7.402   7.981  11.262  1.00142.10     0.195 A 
HETATM   10  N17 MIQ B 502      -8.332   8.843  10.885  1.00139.42    -0.288 N 
HETATM   11  O16 MIQ B 502      -6.098   8.270  11.665  1.00148.93    -0.171 OA
ENDROOT
BRANCH  10  12
HETATM   12  C18 MIQ B 502      -8.077  10.271  10.863  1.00139.82     0.187 C 
HETATM   13  C19 MIQ B 502      -9.227  10.963  11.605  1.00140.06     0.247 C 
HETATM   14  O25 MIQ B 502      -9.527  10.586  12.682  1.00143.95    -0.271 OA
HETATM   15  N20 MIQ B 502      -9.953  12.073  11.023  1.00140.02    -0.296 N 
HETATM   16  H13 MIQ B 502     -10.706  12.512  11.515  1.00142.77     0.171 HD
HETATM   17  C21 MIQ B 502      -9.576  12.509   9.703  1.00142.22     0.224 C 
HETATM   18  C22 MIQ B 502      -9.086  11.438   8.747  1.00139.52     0.106 C 
HETATM   19  O24 MIQ B 502      -9.640  13.645   9.385  1.00146.13    -0.273 OA
HETATM   20  C23 MIQ B 502      -7.910  10.759   9.424  1.00139.15     0.045 C 
ENDBRANCH  10  12
BRANCH   5  21
HETATM   21  N6  MIQ B 502     -10.758   3.211  10.581  1.00140.95    -0.377 N 
HETATM   22  C7  MIQ B 502     -12.183   3.457  10.713  1.00142.12     0.149 C 
HETATM   23  C8  MIQ B 502     -12.942   2.202  11.126  1.00144.10     0.187 C 
HETATM   24  O9  MIQ B 502     -12.597   1.083  10.365  1.00148.65    -0.388 OA
HETATM   25  C10 MIQ B 502     -11.502   1.127   9.498  1.00147.44     0.187 C 
HETATM   26  C11 MIQ B 502     -10.325   2.030   9.855  1.00144.08     0.149 C 
ENDBRANCH   5  21
TORSDOF 2
ENDMDL
MODEL 5
REMARK VINA RESULT:      -6.3      1.976      7.803
REMARK  2 active torsions:
REMARK  status: ('A' for Active; 'I' for Inactive)
REMARK    1  A    between atoms: C5_5  and  N6_21 
REMARK    2  A    between atoms: C18_14  and  N17_19 
ROOT
HETATM    1  O1  MIQ B 502     -10.629   7.223  11.130  1.00142.91    -0.171 OA
HETATM    2  C2  MIQ B 502      -9.624   6.260  11.236  1.00141.17     0.195 A 
HETATM    3  C3  MIQ B 502      -9.810   4.714  11.109  1.00141.71     0.035 A 
HETATM    4  C4  MIQ B 502     -10.986   3.847  10.857  1.00142.86     0.046 A 
HETATM    5  C5  MIQ B 502     -10.837   2.439  10.793  1.00139.53     0.031 A 
HETATM    6  C12 MIQ B 502      -9.521   1.842  10.976  1.00139.38     0.030 A 
HETATM    7  C13 MIQ B 502      -8.394   2.673  11.216  1.00141.18     0.019 A 
HETATM    8  C14 MIQ B 502      -8.556   4.151  11.280  1.00138.77     0.033 A 
HETATM    9  C15 MIQ B 502      -7.585   5.354  11.514  1.00142.10     0.195 A 
HETATM   10  N17 MIQ B 502      -8.333   6.444  11.456  1.00139.42    -0.288 N 
HETATM   11  O16 MIQ B 502      -6.209   5.286  11.739  1.00148.93    -0.171 OA
ENDROOT
BRANCH  10  12
HETATM   12  C18 MIQ B 502      -7.763   7.765  11.647  1.00139.82     0.187 C 
HETATM   13  C19 MIQ B 502      -8.576   8.471  12.739  1.00140.06     0.247 C 
HETATM   14  O25 MIQ B 502      -8.764   7.921  13.765  1.00143.95    -0.271 OA
HETATM   15  N20 MIQ B 502      -9.116   9.802  12.548  1.00140.02    -0.296 N 
HETATM   16  H13 MIQ B 502      -9.651  10.250  13.266  1.00142.77     0.171 HD
HETATM   17  C21 MIQ B 502      -8.883  10.450  11.283  1.00142.22     0.224 C 
HETATM   18  C22 MIQ B 502      -8.826   9.555  10.059  1.00139.52     0.106 C 
HETATM   19  O24 MIQ B 502      -8.737  11.620  11.206  1.00146.13    -0.273 OA
HETATM   20  C23 MIQ B 502      -7.739   8.530  10.325  1.00139.15     0.045 C 
ENDBRANCH  10  12
BRANCH   5  21
HETATM   21  N6  MIQ B 502     -11.999   1.601  10.561  1.00140.95    -0.377 N 
HETATM   22  C7  MIQ B 502     -13.103   1.667  11.503  1.00142.12     0.149 C 
HETATM   23  C8  MIQ B 502     -13.901   0.370  11.536  1.00144.10     0.187 C 
HETATM   24  O9  MIQ B 502     -14.231  -0.098  10.263  1.00148.65    -0.388 OA
HETATM   25  C10 MIQ B 502     -13.658   0.479   9.126  1.00147.44     0.187 C 
HETATM   26  C11 MIQ B 502     -12.254   1.066   9.235  1.00144.08     0.149 C 
ENDBRANCH   5  21
TORSDOF 2
ENDMDL
MODEL 6
REMARK VINA RESULT:      -6.3      3.031      5.297
REMARK  2 active torsions:
REMARK  status: ('A' for Active; 'I' for Inactive)
REMARK    1  A    between atoms: C5_5  and  N6_21 
REMARK    2  A    between atoms: C18_14  and  N17_19 
ROOT
HETATM    1  O1  MIQ B 502     -10.581   7.841  10.965  1.00142.91    -0.171 OA
HETATM    2  C2  MIQ B 502      -9.357   8.494  10.797  1.00141.17     0.195 A 
HETATM    3  C3  MIQ B 502      -9.144   9.904  10.161  1.00141.71     0.035 A 
HETATM    4  C4  MIQ B 502     -10.066  10.913   9.588  1.00142.86     0.046 A 
HETATM    5  C5  MIQ B 502      -9.561  12.134   9.074  1.00139.53     0.031 A 
HETATM    6  C12 MIQ B 502      -8.130  12.397   9.110  1.00139.38     0.030 A 
HETATM    7  C13 MIQ B 502      -7.246  11.430   9.660  1.00141.18     0.019 A 
HETATM    8  C14 MIQ B 502      -7.781  10.151  10.201  1.00138.77     0.033 A 
HETATM    9  C15 MIQ B 502      -7.145   8.887  10.867  1.00142.10     0.195 A 
HETATM   10  N17 MIQ B 502      -8.151   8.072  11.137  1.00139.42    -0.288 N 
HETATM   11  O16 MIQ B 502      -5.790   8.668  11.119  1.00148.93    -0.171 OA
ENDROOT
BRANCH  10  12
HETATM   12  C18 MIQ B 502      -7.932   6.776  11.753  1.00139.82     0.187 C 
HETATM   13  C19 MIQ B 502      -8.589   5.716  10.860  1.00140.06     0.247 C 
HETATM   14  O25 MIQ B 502      -8.344   5.703   9.706  1.00143.95    -0.271 OA
HETATM   15  N20 MIQ B 502      -9.500   4.726  11.396  1.00140.02    -0.296 N 
HETATM   16  H13 MIQ B 502      -9.928   4.043  10.802  1.00142.77     0.171 HD
HETATM   17  C21 MIQ B 502      -9.792   4.770  12.806  1.00142.22     0.224 C 
HETATM   18  C22 MIQ B 502      -9.819   6.141  13.453  1.00139.52     0.106 C 
HETATM   19  O24 MIQ B 502      -9.994   3.784  13.426  1.00146.13    -0.273 OA
HETATM   20  C23 MIQ B 502      -8.464   6.771  13.185  1.00139.15     0.045 C 
ENDBRANCH  10  12
BRANCH   5  21
HETATM   21  N6  MIQ B 502     -10.474  13.108   8.502  1.00140.95    -0.377 N 
HETATM   22  C7  MIQ B 502     -10.160  14.519   8.641  1.00142.12     0.149 C 
HETATM   23  C8  MIQ B 502     -11.413  15.386   8.606  1.00144.10     0.187 C 
HETATM   24  O9  MIQ B 502     -12.265  15.066   7.547  1.00148.65    -0.388 OA
HETATM   25  C10 MIQ B 502     -12.048  13.913   6.788  1.00147.44     0.187 C 
HETATM   26  C11 MIQ B 502     -11.404  12.706   7.461  1.00144.08     0.149 C 
ENDBRANCH   5  21
TORSDOF 2
ENDMDL
MODEL 7
REMARK VINA RESULT:      -6.2      2.672      4.258
REMARK  2 active torsions:
REMARK  status: ('A' for Active; 'I' for Inactive)
REMARK    1  A    between atoms: C5_5  and  N6_21 
REMARK    2  A    between atoms: C18_14  and  N17_19 
ROOT
HETATM    1  O1  MIQ B 502     -11.853   8.597  11.145  1.00142.91    -0.171 OA
HETATM    2  C2  MIQ B 502     -10.479   8.351  11.101  1.00141.17     0.195 A 
HETATM    3  C3  MIQ B 502      -9.373   9.368  10.673  1.00141.71     0.035 A 
HETATM    4  C4  MIQ B 502      -9.407  10.780  10.223  1.00142.86     0.046 A 
HETATM    5  C5  MIQ B 502      -8.204  11.456   9.897  1.00139.53     0.031 A 
HETATM    6  C12 MIQ B 502      -6.930  10.759  10.007  1.00139.38     0.030 A 
HETATM    7  C13 MIQ B 502      -6.898   9.406  10.439  1.00141.18     0.019 A 
HETATM    8  C14 MIQ B 502      -8.164   8.702  10.782  1.00138.77     0.033 A 
HETATM    9  C15 MIQ B 502      -8.520   7.263  11.281  1.00142.10     0.195 A 
HETATM   10  N17 MIQ B 502      -9.837   7.237  11.409  1.00139.42    -0.288 N 
HETATM   11  O16 MIQ B 502      -7.627   6.222  11.536  1.00148.93    -0.171 OA
ENDROOT
BRANCH  10  12
HETATM   12  C18 MIQ B 502     -10.532   6.040  11.844  1.00139.82     0.187 C 
HETATM   13  C19 MIQ B 502      -9.880   5.569  13.150  1.00140.06     0.247 C 
HETATM   14  O25 MIQ B 502      -9.735   6.339  14.032  1.00143.95    -0.271 OA
HETATM   15  N20 MIQ B 502      -9.441   4.201  13.334  1.00140.02    -0.296 N 
HETATM   16  H13 MIQ B 502      -9.011   3.908  14.189  1.00142.77     0.171 HD
HETATM   17  C21 MIQ B 502      -9.619   3.282  12.239  1.00142.22     0.224 C 
HETATM   18  C22 MIQ B 502      -9.492   3.856  10.841  1.00139.52     0.106 C 
HETATM   19  O24 MIQ B 502      -9.857   2.140  12.424  1.00146.13    -0.273 OA
HETATM   20  C23 MIQ B 502     -10.506   4.981  10.743  1.00139.15     0.045 C 
ENDBRANCH  10  12
BRANCH   5  21
HETATM   21  N6  MIQ B 502      -8.252  12.834   9.443  1.00140.95    -0.377 N 
HETATM   22  C7  MIQ B 502      -9.524  13.535   9.487  1.00142.12     0.149 C 
HETATM   23  C8  MIQ B 502      -9.596  14.647   8.447  1.00144.10     0.187 C 
HETATM   24  O9  MIQ B 502      -8.464  15.464   8.446  1.00148.65    -0.388 OA
HETATM   25  C10 MIQ B 502      -7.329  15.102   9.177  1.00147.44     0.187 C 
HETATM   26  C11 MIQ B 502      -7.033  13.620   9.377  1.00144.08     0.149 C 
ENDBRANCH   5  21
TORSDOF 2
ENDMDL
MODEL 8
REMARK VINA RESULT:      -6.2      4.257      8.049
REMARK  2 active torsions:
REMARK  status: ('A' for Active; 'I' for Inactive)
REMARK    1  A    between atoms: C5_5  and  N6_21 
REMARK    2  A    between atoms: C18_14  and  N17_19 
ROOT
HETATM    1  O1  MIQ B 502      -8.722   9.349  13.054  1.00142.91    -0.171 OA
HETATM    2  C2  MIQ B 502      -8.942   8.017  12.697  1.00141.17     0.195 A 
HETATM    3  C3  MIQ B 502      -9.473   6.886  13.634  1.00141.71     0.035 A 
HETATM    4  C4  MIQ B 502      -9.881   6.851  15.059  1.00142.86     0.046 A 
HETATM    5  C5  MIQ B 502     -10.334   5.643  15.646  1.00139.53     0.031 A 
HETATM    6  C12 MIQ B 502     -10.399   4.430  14.843  1.00139.38     0.030 A 
HETATM    7  C13 MIQ B 502     -10.010   4.463  13.477  1.00141.18     0.019 A 
HETATM    8  C14 MIQ B 502      -9.537   5.735  12.866  1.00138.77     0.033 A 
HETATM    9  C15 MIQ B 502      -9.043   6.154  11.442  1.00142.10     0.195 A 
HETATM   10  N17 MIQ B 502      -8.757   7.443  11.520  1.00139.42    -0.288 N 
HETATM   11  O16 MIQ B 502      -8.927   5.330  10.322  1.00148.93    -0.171 OA
ENDROOT
BRANCH  10  12
HETATM   12  C18 MIQ B 502      -8.249   8.176  10.375  1.00139.82     0.187 C 
HETATM   13  C19 MIQ B 502      -6.980   8.915  10.819  1.00140.06     0.247 C 
HETATM   14  O25 MIQ B 502      -6.128   8.315  11.372  1.00143.95    -0.271 OA
HETATM   15  N20 MIQ B 502      -6.795  10.331  10.573  1.00140.02    -0.296 N 
HETATM   16  H13 MIQ B 502      -5.965  10.802  10.874  1.00142.77     0.171 HD
HETATM   17  C21 MIQ B 502      -7.854  11.043   9.906  1.00142.22     0.224 C 
HETATM   18  C22 MIQ B 502      -9.270  10.581  10.189  1.00139.52     0.106 C 
HETATM   19  O24 MIQ B 502      -7.627  11.941   9.172  1.00146.13    -0.273 OA
HETATM   20  C23 MIQ B 502      -9.324   9.109   9.821  1.00139.15     0.045 C 
ENDBRANCH  10  12
BRANCH   5  21
HETATM   21  N6  MIQ B 502     -10.716   5.620  17.046  1.00140.95    -0.377 N 
HETATM   22  C7  MIQ B 502     -11.229   6.839  17.646  1.00142.12     0.149 C 
HETATM   23  C8  MIQ B 502     -10.979   6.883  19.148  1.00144.10     0.187 C 
HETATM   24  O9  MIQ B 502     -11.344   5.700  19.794  1.00148.65    -0.388 OA
HETATM   25  C10 MIQ B 502     -11.672   4.562  19.054  1.00147.44     0.187 C 
HETATM   26  C11 MIQ B 502     -11.003   4.355  17.699  1.00144.08     0.149 C 
ENDBRANCH   5  21
TORSDOF 2
ENDMDL
MODEL 9
REMARK VINA RESULT:      -6.2      2.495      4.420
REMARK  2 active torsions:
REMARK  status: ('A' for Active; 'I' for Inactive)
REMARK    1  A    between atoms: C5_5  and  N6_21 
REMARK    2  A    between atoms: C18_14  and  N17_19 
ROOT
HETATM    1  O1  MIQ B 502      -6.885   8.187  13.093  1.00142.91    -0.171 OA
HETATM    2  C2  MIQ B 502      -7.831   8.135  12.067  1.00141.17     0.195 A 
HETATM    3  C3  MIQ B 502      -8.210   9.303  11.102  1.00141.71     0.035 A 
HETATM    4  C4  MIQ B 502      -7.744  10.703  10.964  1.00142.86     0.046 A 
HETATM    5  C5  MIQ B 502      -8.291  11.545   9.963  1.00139.53     0.031 A 
HETATM    6  C12 MIQ B 502      -9.316  11.030   9.066  1.00139.38     0.030 A 
HETATM    7  C13 MIQ B 502      -9.762   9.688   9.197  1.00141.18     0.019 A 
HETATM    8  C14 MIQ B 502      -9.183   8.807  10.248  1.00138.77     0.033 A 
HETATM    9  C15 MIQ B 502      -9.408   7.323  10.686  1.00142.10     0.195 A 
HETATM   10  N17 MIQ B 502      -8.583   7.112  11.698  1.00139.42    -0.288 N 
HETATM   11  O16 MIQ B 502     -10.301   6.411  10.120  1.00148.93    -0.171 OA
ENDROOT
BRANCH  10  12
HETATM   12  C18 MIQ B 502      -8.529   5.830  12.376  1.00139.82     0.187 C 
HETATM   13  C19 MIQ B 502      -8.280   4.750  11.316  1.00140.06     0.247 C 
HETATM   14  O25 MIQ B 502      -7.388   4.884  10.556  1.00143.95    -0.271 OA
HETATM   15  N20 MIQ B 502      -9.107   3.565  11.224  1.00140.02    -0.296 N 
HETATM   16  H13 MIQ B 502      -8.938   2.870  10.523  1.00142.77     0.171 HD
HETATM   17  C21 MIQ B 502     -10.196   3.428  12.156  1.00142.22     0.224 C 
HETATM   18  C22 MIQ B 502     -10.885   4.708  12.590  1.00139.52     0.106 C 
HETATM   19  O24 MIQ B 502     -10.531   2.371  12.565  1.00146.13    -0.273 OA
HETATM   20  C23 MIQ B 502      -9.807   5.599  13.180  1.00139.15     0.045 C 
ENDBRANCH  10  12
BRANCH   5  21
HETATM   21  N6  MIQ B 502      -7.836  12.919   9.849  1.00140.95    -0.377 N 
HETATM   22  C7  MIQ B 502      -8.775  13.926   9.386  1.00142.12     0.149 C 
HETATM   23  C8  MIQ B 502      -8.069  15.097   8.715  1.00144.10     0.187 C 
HETATM   24  O9  MIQ B 502      -6.993  15.582   9.462  1.00148.65    -0.388 OA
HETATM   25  C10 MIQ B 502      -6.527  14.876  10.573  1.00147.44     0.187 C 
HETATM   26  C11 MIQ B 502      -6.660  13.356  10.580  1.00144.08     0.149 C 
ENDBRANCH   5  21
TORSDOF 2
ENDMDL
