MODEL 1
REMARK VINA RESULT:      -6.9      0.000      0.000
REMARK  2 active torsions:
REMARK  status: ('A' for Active; 'I' for Inactive)
REMARK    1  A    between atoms: C5_5  and  N6_21 
REMARK    2  A    between atoms: C18_14  and  N17_19 
ROOT
HETATM    1  O1  MIQ B 502     -10.051  -8.165  -0.073  1.00142.91    -0.171 OA
HETATM    2  C2  MIQ B 502     -10.955  -8.601  -1.045  1.00141.17     0.195 A 
HETATM    3  C3  MIQ B 502     -10.695  -8.664  -2.584  1.00141.71     0.035 A 
HETATM    4  C4  MIQ B 502      -9.531  -8.324  -3.436  1.00142.86     0.046 A 
HETATM    5  C5  MIQ B 502      -9.598  -8.494  -4.842  1.00139.53     0.031 A 
HETATM    6  C12 MIQ B 502     -10.816  -9.007  -5.451  1.00139.38     0.030 A 
HETATM    7  C13 MIQ B 502     -11.932  -9.335  -4.634  1.00141.18     0.019 A 
HETATM    8  C14 MIQ B 502     -11.856  -9.156  -3.158  1.00138.77     0.033 A 
HETATM    9  C15 MIQ B 502     -12.842  -9.400  -1.969  1.00142.10     0.195 A 
HETATM   10  N17 MIQ B 502     -12.188  -9.046  -0.875  1.00139.42    -0.288 N 
HETATM   11  O16 MIQ B 502     -14.146  -9.890  -2.052  1.00148.93    -0.171 OA
ENDROOT
BRANCH  10  12
HETATM   12  C18 MIQ B 502     -12.806  -9.125   0.435  1.00139.82     0.187 C 
HETATM   13  C19 MIQ B 502     -12.837  -7.709   1.024  1.00140.06     0.247 C 
HETATM   14  O25 MIQ B 502     -13.281  -6.827   0.380  1.00143.95    -0.271 OA
HETATM   15  N20 MIQ B 502     -12.339  -7.425   2.355  1.00140.02    -0.296 N 
HETATM   16  H13 MIQ B 502     -12.358  -6.495   2.725  1.00142.77     0.171 HD
HETATM   17  C21 MIQ B 502     -11.791  -8.517   3.118  1.00142.22     0.224 C 
HETATM   18  C22 MIQ B 502     -11.070  -9.599   2.338  1.00139.52     0.106 C 
HETATM   19  O24 MIQ B 502     -11.905  -8.567   4.293  1.00146.13    -0.273 OA
HETATM   20  C23 MIQ B 502     -12.061 -10.127   1.316  1.00139.15     0.045 C 
ENDBRANCH  10  12
BRANCH   5  21
HETATM   21  N6  MIQ B 502      -8.455  -8.143  -5.665  1.00140.95    -0.377 N 
HETATM   22  C7  MIQ B 502      -7.128  -8.524  -5.211  1.00142.12     0.149 C 
HETATM   23  C8  MIQ B 502      -6.052  -7.595  -5.759  1.00144.10     0.187 C 
HETATM   24  O9  MIQ B 502      -6.172  -7.373  -7.132  1.00148.65    -0.388 OA
HETATM   25  C10 MIQ B 502      -7.313  -7.795  -7.820  1.00147.44     0.187 C 
HETATM   26  C11 MIQ B 502      -8.642  -7.836  -7.073  1.00144.08     0.149 C 
ENDBRANCH   5  21
TORSDOF 2
ENDMDL
MODEL 2
REMARK VINA RESULT:      -6.8     17.422     20.781
REMARK  2 active torsions:
REMARK  status: ('A' for Active; 'I' for Inactive)
REMARK    1  A    between atoms: C5_5  and  N6_21 
REMARK    2  A    between atoms: C18_14  and  N17_19 
ROOT
HETATM    1  O1  MIQ B 502       2.647 -17.341  11.720  1.00142.91    -0.171 OA
HETATM    2  C2  MIQ B 502       2.719 -16.029  11.245  1.00141.17     0.195 A 
HETATM    3  C3  MIQ B 502       1.581 -14.961  11.311  1.00141.71     0.035 A 
HETATM    4  C4  MIQ B 502       0.197 -14.978  11.843  1.00142.86     0.046 A 
HETATM    5  C5  MIQ B 502      -0.617 -13.821  11.757  1.00139.53     0.031 A 
HETATM    6  C12 MIQ B 502      -0.091 -12.610  11.144  1.00139.38     0.030 A 
HETATM    7  C13 MIQ B 502       1.236 -12.593  10.635  1.00141.18     0.019 A 
HETATM    8  C14 MIQ B 502       2.088 -13.810  10.730  1.00138.77     0.033 A 
HETATM    9  C15 MIQ B 502       3.549 -14.166  10.301  1.00142.10     0.195 A 
HETATM   10  N17 MIQ B 502       3.739 -15.425  10.660  1.00139.42    -0.288 N 
HETATM   11  O16 MIQ B 502       4.462 -13.322   9.666  1.00148.93    -0.171 OA
ENDROOT
BRANCH  10  12
HETATM   12  C18 MIQ B 502       4.994 -16.105  10.402  1.00139.82     0.187 C 
HETATM   13  C19 MIQ B 502       6.117 -15.264  11.021  1.00140.06     0.247 C 
HETATM   14  O25 MIQ B 502       6.026 -14.920  12.146  1.00143.95    -0.271 OA
HETATM   15  N20 MIQ B 502       7.293 -14.884  10.265  1.00140.02    -0.296 N 
HETATM   16  H13 MIQ B 502       8.016 -14.329  10.679  1.00142.77     0.171 HD
HETATM   17  C21 MIQ B 502       7.377 -15.307   8.891  1.00142.22     0.224 C 
HETATM   18  C22 MIQ B 502       6.071 -15.392   8.124  1.00139.52     0.106 C 
HETATM   19  O24 MIQ B 502       8.412 -15.578   8.390  1.00146.13    -0.273 OA
HETATM   20  C23 MIQ B 502       5.174 -16.337   8.903  1.00139.15     0.045 C 
ENDBRANCH  10  12
BRANCH   5  21
HETATM   21  N6  MIQ B 502      -1.975 -13.856  12.269  1.00140.95    -0.377 N 
HETATM   22  C7  MIQ B 502      -2.833 -12.706  12.040  1.00142.12     0.149 C 
HETATM   23  C8  MIQ B 502      -3.912 -12.580  13.108  1.00144.10     0.187 C 
HETATM   24  O9  MIQ B 502      -4.578 -13.782  13.353  1.00148.65    -0.388 OA
HETATM   25  C10 MIQ B 502      -4.098 -14.979  12.814  1.00147.44     0.187 C 
HETATM   26  C11 MIQ B 502      -2.597 -15.128  12.590  1.00144.08     0.149 C 
ENDBRANCH   5  21
TORSDOF 2
ENDMDL
MODEL 3
REMARK VINA RESULT:      -6.6      1.683      2.065
REMARK  2 active torsions:
REMARK  status: ('A' for Active; 'I' for Inactive)
REMARK    1  A    between atoms: C5_5  and  N6_21 
REMARK    2  A    between atoms: C18_14  and  N17_19 
ROOT
HETATM    1  O1  MIQ B 502      -9.107  -8.609  -0.304  1.00142.91    -0.171 OA
HETATM    2  C2  MIQ B 502     -10.146  -8.611  -1.238  1.00141.17     0.195 A 
HETATM    3  C3  MIQ B 502      -9.989  -8.562  -2.792  1.00141.71     0.035 A 
HETATM    4  C4  MIQ B 502      -8.816  -8.506  -3.696  1.00142.86     0.046 A 
HETATM    5  C5  MIQ B 502      -8.996  -8.471  -5.102  1.00139.53     0.031 A 
HETATM    6  C12 MIQ B 502     -10.341  -8.491  -5.659  1.00139.38     0.030 A 
HETATM    7  C13 MIQ B 502     -11.466  -8.545  -4.792  1.00141.18     0.019 A 
HETATM    8  C14 MIQ B 502     -11.271  -8.584  -3.317  1.00138.77     0.033 A 
HETATM    9  C15 MIQ B 502     -12.228  -8.648  -2.083  1.00142.10     0.195 A 
HETATM   10  N17 MIQ B 502     -11.448  -8.659  -1.015  1.00139.42    -0.288 N 
HETATM   11  O16 MIQ B 502     -13.624  -8.684  -2.108  1.00148.93    -0.171 OA
ENDROOT
BRANCH  10  12
HETATM   12  C18 MIQ B 502     -12.000  -8.699   0.327  1.00139.82     0.187 C 
HETATM   13  C19 MIQ B 502     -13.020  -9.843   0.378  1.00140.06     0.247 C 
HETATM   14  O25 MIQ B 502     -12.703 -10.915   0.000  1.00143.95    -0.271 OA
HETATM   15  N20 MIQ B 502     -14.363  -9.646   0.885  1.00140.02    -0.296 N 
HETATM   16  H13 MIQ B 502     -15.021 -10.400   0.907  1.00142.77     0.171 HD
HETATM   17  C21 MIQ B 502     -14.729  -8.327   1.331  1.00142.22     0.224 C 
HETATM   18  C22 MIQ B 502     -14.101  -7.160   0.593  1.00139.52     0.106 C 
HETATM   19  O24 MIQ B 502     -15.477  -8.165   2.231  1.00146.13    -0.273 OA
HETATM   20  C23 MIQ B 502     -12.598  -7.343   0.696  1.00139.15     0.045 C 
ENDBRANCH  10  12
BRANCH   5  21
HETATM   21  N6  MIQ B 502      -7.839  -8.402  -5.976  1.00140.95    -0.377 N 
HETATM   22  C7  MIQ B 502      -6.559  -8.021  -5.404  1.00142.12     0.149 C 
HETATM   23  C8  MIQ B 502      -5.643  -7.377  -6.437  1.00144.10     0.187 C 
HETATM   24  O9  MIQ B 502      -5.573  -8.102  -7.628  1.00148.65    -0.388 OA
HETATM   25  C10 MIQ B 502      -6.453  -9.162  -7.864  1.00147.44     0.187 C 
HETATM   26  C11 MIQ B 502      -7.846  -9.105  -7.247  1.00144.08     0.149 C 
ENDBRANCH   5  21
TORSDOF 2
ENDMDL
MODEL 4
REMARK VINA RESULT:      -6.5      2.878      8.282
REMARK  2 active torsions:
REMARK  status: ('A' for Active; 'I' for Inactive)
REMARK    1  A    between atoms: C5_5  and  N6_21 
REMARK    2  A    between atoms: C18_14  and  N17_19 
ROOT
HETATM    1  O1  MIQ B 502     -14.790  -7.507  -0.896  1.00142.91    -0.171 OA
HETATM    2  C2  MIQ B 502     -13.466  -7.939  -1.002  1.00141.17     0.195 A 
HETATM    3  C3  MIQ B 502     -12.498  -8.244   0.186  1.00141.71     0.035 A 
HETATM    4  C4  MIQ B 502     -12.644  -8.186   1.660  1.00142.86     0.046 A 
HETATM    5  C5  MIQ B 502     -11.558  -8.534   2.502  1.00139.53     0.031 A 
HETATM    6  C12 MIQ B 502     -10.292  -8.950   1.914  1.00139.38     0.030 A 
HETATM    7  C13 MIQ B 502     -10.152  -9.006   0.501  1.00141.18     0.019 A 
HETATM    8  C14 MIQ B 502     -11.297  -8.643  -0.378  1.00138.77     0.033 A 
HETATM    9  C15 MIQ B 502     -11.521  -8.586  -1.924  1.00142.10     0.195 A 
HETATM   10  N17 MIQ B 502     -12.769  -8.182  -2.098  1.00139.42    -0.288 N 
HETATM   11  O16 MIQ B 502     -10.589  -8.896  -2.916  1.00148.93    -0.171 OA
ENDROOT
BRANCH  10  12
HETATM   12  C18 MIQ B 502     -13.327  -7.997  -3.425  1.00139.82     0.187 C 
HETATM   13  C19 MIQ B 502     -13.074  -9.283  -4.222  1.00140.06     0.247 C 
HETATM   14  O25 MIQ B 502     -13.384 -10.320  -3.754  1.00143.95    -0.271 OA
HETATM   15  N20 MIQ B 502     -12.470  -9.259  -5.538  1.00140.02    -0.296 N 
HETATM   16  H13 MIQ B 502     -12.304 -10.106  -6.045  1.00142.77     0.171 HD
HETATM   17  C21 MIQ B 502     -12.091  -7.981  -6.083  1.00142.22     0.224 C 
HETATM   18  C22 MIQ B 502     -11.614  -6.934  -5.096  1.00139.52     0.106 C 
HETATM   19  O24 MIQ B 502     -12.154  -7.760  -7.242  1.00146.13    -0.273 OA
HETATM   20  C23 MIQ B 502     -12.731  -6.754  -4.084  1.00139.15     0.045 C 
ENDBRANCH  10  12
BRANCH   5  21
HETATM   21  N6  MIQ B 502     -11.710  -8.458   3.943  1.00140.95    -0.377 N 
HETATM   22  C7  MIQ B 502     -13.047  -8.320   4.494  1.00142.12     0.149 C 
HETATM   23  C8  MIQ B 502     -13.034  -7.628   5.852  1.00144.10     0.187 C 
HETATM   24  O9  MIQ B 502     -12.081  -8.160   6.723  1.00148.65    -0.388 OA
HETATM   25  C10 MIQ B 502     -11.122  -9.063   6.258  1.00147.44     0.187 C 
HETATM   26  C11 MIQ B 502     -10.653  -8.947   4.811  1.00144.08     0.149 C 
ENDBRANCH   5  21
TORSDOF 2
ENDMDL
MODEL 5
REMARK VINA RESULT:      -6.5     17.551     19.062
REMARK  2 active torsions:
REMARK  status: ('A' for Active; 'I' for Inactive)
REMARK    1  A    between atoms: C5_5  and  N6_21 
REMARK    2  A    between atoms: C18_14  and  N17_19 
ROOT
HETATM    1  O1  MIQ B 502      -1.169 -16.640  13.188  1.00142.91    -0.171 OA
HETATM    2  C2  MIQ B 502      -1.284 -15.346  12.674  1.00141.17     0.195 A 
HETATM    3  C3  MIQ B 502      -0.154 -14.529  11.971  1.00141.71     0.035 A 
HETATM    4  C4  MIQ B 502       1.262 -14.820  11.645  1.00142.86     0.046 A 
HETATM    5  C5  MIQ B 502       2.059 -13.853  10.983  1.00139.53     0.031 A 
HETATM    6  C12 MIQ B 502       1.481 -12.567  10.620  1.00139.38     0.030 A 
HETATM    7  C13 MIQ B 502       0.123 -12.287  10.931  1.00141.18     0.019 A 
HETATM    8  C14 MIQ B 502      -0.709 -13.308  11.625  1.00138.77     0.033 A 
HETATM    9  C15 MIQ B 502      -2.193 -13.367  12.115  1.00142.10     0.195 A 
HETATM   10  N17 MIQ B 502      -2.347 -14.559  12.668  1.00139.42    -0.288 N 
HETATM   11  O16 MIQ B 502      -3.154 -12.363  11.993  1.00148.93    -0.171 OA
ENDROOT
BRANCH  10  12
HETATM   12  C18 MIQ B 502      -3.611 -14.964  13.254  1.00139.82     0.187 C 
HETATM   13  C19 MIQ B 502      -3.336 -15.411  14.696  1.00140.06     0.247 C 
HETATM   14  O25 MIQ B 502      -2.727 -14.700  15.413  1.00143.95    -0.271 OA
HETATM   15  N20 MIQ B 502      -3.811 -16.681  15.205  1.00140.02    -0.296 N 
HETATM   16  H13 MIQ B 502      -3.619 -16.964  16.146  1.00142.77     0.171 HD
HETATM   17  C21 MIQ B 502      -4.544 -17.536  14.307  1.00142.22     0.224 C 
HETATM   18  C22 MIQ B 502      -4.140 -17.496  12.846  1.00139.52     0.106 C 
HETATM   19  O24 MIQ B 502      -5.420 -18.230  14.693  1.00146.13    -0.273 OA
HETATM   20  C23 MIQ B 502      -4.268 -16.050  12.403  1.00139.15     0.045 C 
ENDBRANCH  10  12
BRANCH   5  21
HETATM   21  N6  MIQ B 502       3.449 -14.146  10.683  1.00140.95    -0.377 N 
HETATM   22  C7  MIQ B 502       3.962 -13.808   9.367  1.00142.12     0.149 C 
HETATM   23  C8  MIQ B 502       5.132 -14.698   8.967  1.00144.10     0.187 C 
HETATM   24  O9  MIQ B 502       6.095 -14.813   9.971  1.00148.65    -0.388 OA
HETATM   25  C10 MIQ B 502       5.837 -14.333  11.258  1.00147.44     0.187 C 
HETATM   26  C11 MIQ B 502       4.398 -14.343  11.765  1.00144.08     0.149 C 
ENDBRANCH   5  21
TORSDOF 2
ENDMDL
MODEL 6
REMARK VINA RESULT:      -6.4      2.252      8.764
REMARK  2 active torsions:
REMARK  status: ('A' for Active; 'I' for Inactive)
REMARK    1  A    between atoms: C5_5  and  N6_21 
REMARK    2  A    between atoms: C18_14  and  N17_19 
ROOT
HETATM    1  O1  MIQ B 502      -6.406  -7.915  -5.220  1.00142.91    -0.171 OA
HETATM    2  C2  MIQ B 502      -7.711  -8.184  -5.639  1.00141.17     0.195 A 
HETATM    3  C3  MIQ B 502      -8.954  -8.382  -4.714  1.00141.71     0.035 A 
HETATM    4  C4  MIQ B 502      -9.146  -8.351  -3.244  1.00142.86     0.046 A 
HETATM    5  C5  MIQ B 502     -10.430  -8.572  -2.684  1.00139.53     0.031 A 
HETATM    6  C12 MIQ B 502     -11.565  -8.829  -3.559  1.00139.38     0.030 A 
HETATM    7  C13 MIQ B 502     -11.382  -8.857  -4.968  1.00141.18     0.019 A 
HETATM    8  C14 MIQ B 502     -10.032  -8.622  -5.550  1.00138.77     0.033 A 
HETATM    9  C15 MIQ B 502      -9.455  -8.573  -7.002  1.00142.10     0.195 A 
HETATM   10  N17 MIQ B 502      -8.163  -8.319  -6.874  1.00139.42    -0.288 N 
HETATM   11  O16 MIQ B 502     -10.163  -8.762  -8.190  1.00148.93    -0.171 OA
ENDROOT
BRANCH  10  12
HETATM   12  C18 MIQ B 502      -7.293  -8.216  -8.030  1.00139.82     0.187 C 
HETATM   13  C19 MIQ B 502      -7.898  -7.177  -8.981  1.00140.06     0.247 C 
HETATM   14  O25 MIQ B 502      -8.197  -6.116  -8.560  1.00143.95    -0.271 OA
HETATM   15  N20 MIQ B 502      -8.108  -7.458 -10.386  1.00140.02    -0.296 N 
HETATM   16  H13 MIQ B 502      -8.511  -6.773 -10.995  1.00142.77     0.171 HD
HETATM   17  C21 MIQ B 502      -7.745  -8.763 -10.874  1.00142.22     0.224 C 
HETATM   18  C22 MIQ B 502      -7.921  -9.923  -9.914  1.00139.52     0.106 C 
HETATM   19  O24 MIQ B 502      -7.326  -8.919 -11.968  1.00146.13    -0.273 OA
HETATM   20  C23 MIQ B 502      -7.106  -9.587  -8.678  1.00139.15     0.045 C 
ENDBRANCH  10  12
BRANCH   5  21
HETATM   21  N6  MIQ B 502     -10.601  -8.554  -1.243  1.00140.95    -0.377 N 
HETATM   22  C7  MIQ B 502     -11.943  -8.677  -0.701  1.00142.12     0.149 C 
HETATM   23  C8  MIQ B 502     -12.065  -8.021   0.669  1.00144.10     0.187 C 
HETATM   24  O9  MIQ B 502     -11.035  -8.384   1.539  1.00148.65    -0.388 OA
HETATM   25  C10 MIQ B 502      -9.922  -9.084   1.065  1.00147.44     0.187 C 
HETATM   26  C11 MIQ B 502      -9.475  -8.855  -0.375  1.00144.08     0.149 C 
ENDBRANCH   5  21
TORSDOF 2
ENDMDL
MODEL 7
REMARK VINA RESULT:      -6.3     17.912     19.073
REMARK  2 active torsions:
REMARK  status: ('A' for Active; 'I' for Inactive)
REMARK    1  A    between atoms: C5_5  and  N6_21 
REMARK    2  A    between atoms: C18_14  and  N17_19 
ROOT
HETATM    1  O1  MIQ B 502      -0.139 -16.901  13.603  1.00142.91    -0.171 OA
HETATM    2  C2  MIQ B 502      -0.379 -15.644  13.043  1.00141.17     0.195 A 
HETATM    3  C3  MIQ B 502       0.595 -14.845  12.120  1.00141.71     0.035 A 
HETATM    4  C4  MIQ B 502       1.949 -15.122  11.585  1.00142.86     0.046 A 
HETATM    5  C5  MIQ B 502       2.596 -14.178  10.747  1.00139.53     0.031 A 
HETATM    6  C12 MIQ B 502       1.924 -12.931  10.411  1.00139.38     0.030 A 
HETATM    7  C13 MIQ B 502       0.626 -12.665  10.924  1.00141.18     0.019 A 
HETATM    8  C14 MIQ B 502      -0.049 -13.661  11.801  1.00138.77     0.033 A 
HETATM    9  C15 MIQ B 502      -1.431 -13.726  12.529  1.00142.10     0.195 A 
HETATM   10  N17 MIQ B 502      -1.454 -14.885  13.167  1.00139.42    -0.288 N 
HETATM   11  O16 MIQ B 502      -2.433 -12.754  12.510  1.00148.93    -0.171 OA
ENDROOT
BRANCH  10  12
HETATM   12  C18 MIQ B 502      -2.592 -15.284  13.973  1.00139.82     0.187 C 
HETATM   13  C19 MIQ B 502      -3.839 -15.229  13.082  1.00140.06     0.247 C 
HETATM   14  O25 MIQ B 502      -3.825 -15.778  12.038  1.00143.95    -0.271 OA
HETATM   15  N20 MIQ B 502      -5.038 -14.525  13.489  1.00140.02    -0.296 N 
HETATM   16  H13 MIQ B 502      -5.843 -14.491  12.895  1.00142.77     0.171 HD
HETATM   17  C21 MIQ B 502      -5.027 -13.854  14.763  1.00142.22     0.224 C 
HETATM   18  C22 MIQ B 502      -3.705 -13.260  15.209  1.00139.52     0.106 C 
HETATM   19  O24 MIQ B 502      -6.000 -13.776  15.429  1.00146.13    -0.273 OA
HETATM   20  C23 MIQ B 502      -2.701 -14.399  15.214  1.00139.15     0.045 C 
ENDBRANCH  10  12
BRANCH   5  21
HETATM   21  N6  MIQ B 502       3.928 -14.456  10.242  1.00140.95    -0.377 N 
HETATM   22  C7  MIQ B 502       4.328 -13.865   8.976  1.00142.12     0.149 C 
HETATM   23  C8  MIQ B 502       5.394 -14.695   8.273  1.00144.10     0.187 C 
HETATM   24  O9  MIQ B 502       6.443 -15.061   9.119  1.00148.65    -0.388 OA
HETATM   25  C10 MIQ B 502       6.344 -14.858  10.498  1.00147.44     0.187 C 
HETATM   26  C11 MIQ B 502       4.965 -14.918  11.147  1.00144.08     0.149 C 
ENDBRANCH   5  21
TORSDOF 2
ENDMDL
MODEL 8
REMARK VINA RESULT:      -6.3      5.512      9.223
REMARK  2 active torsions:
REMARK  status: ('A' for Active; 'I' for Inactive)
REMARK    1  A    between atoms: C5_5  and  N6_21 
REMARK    2  A    between atoms: C18_14  and  N17_19 
ROOT
HETATM    1  O1  MIQ B 502     -12.040 -10.435   8.501  1.00142.91    -0.171 OA
HETATM    2  C2  MIQ B 502     -12.682  -9.439   7.762  1.00141.17     0.195 A 
HETATM    3  C3  MIQ B 502     -12.375  -9.048   6.281  1.00141.71     0.035 A 
HETATM    4  C4  MIQ B 502     -11.409  -9.548   5.274  1.00142.86     0.046 A 
HETATM    5  C5  MIQ B 502     -11.367  -8.978   3.976  1.00139.53     0.031 A 
HETATM    6  C12 MIQ B 502     -12.279  -7.896   3.632  1.00139.38     0.030 A 
HETATM    7  C13 MIQ B 502     -13.206  -7.417   4.597  1.00141.18     0.019 A 
HETATM    8  C14 MIQ B 502     -13.247  -8.021   5.957  1.00138.77     0.033 A 
HETATM    9  C15 MIQ B 502     -14.100  -7.774   7.244  1.00142.10     0.195 A 
HETATM   10  N17 MIQ B 502     -13.663  -8.640   8.143  1.00139.42    -0.288 N 
HETATM   11  O16 MIQ B 502     -15.113  -6.828   7.406  1.00148.93    -0.171 OA
ENDROOT
BRANCH  10  12
HETATM   12  C18 MIQ B 502     -14.223  -8.689   9.481  1.00139.82     0.187 C 
HETATM   13  C19 MIQ B 502     -13.058  -8.631  10.478  1.00140.06     0.247 C 
HETATM   14  O25 MIQ B 502     -12.250  -7.779  10.369  1.00143.95    -0.271 OA
HETATM   15  N20 MIQ B 502     -12.925  -9.592  11.554  1.00140.02    -0.296 N 
HETATM   16  H13 MIQ B 502     -12.157  -9.547  12.194  1.00142.77     0.171 HD
HETATM   17  C21 MIQ B 502     -13.919 -10.629  11.659  1.00142.22     0.224 C 
HETATM   18  C22 MIQ B 502     -14.511 -11.140  10.359  1.00139.52     0.106 C 
HETATM   19  O24 MIQ B 502     -14.259 -11.055  12.708  1.00146.13    -0.273 OA
HETATM   20  C23 MIQ B 502     -15.095  -9.933   9.648  1.00139.15     0.045 C 
ENDBRANCH  10  12
BRANCH   5  21
HETATM   21  N6  MIQ B 502     -10.406  -9.468   3.005  1.00140.95    -0.377 N 
HETATM   22  C7  MIQ B 502      -9.830 -10.787   3.201  1.00142.12     0.149 C 
HETATM   23  C8  MIQ B 502      -8.455 -10.909   2.557  1.00144.10     0.187 C 
HETATM   24  O9  MIQ B 502      -8.426 -10.434   1.245  1.00148.65    -0.388 OA
HETATM   25  C10 MIQ B 502      -9.510  -9.723   0.725  1.00147.44     0.187 C 
HETATM   26  C11 MIQ B 502     -10.356  -8.883   1.676  1.00144.08     0.149 C 
ENDBRANCH   5  21
TORSDOF 2
ENDMDL
MODEL 9
REMARK VINA RESULT:      -6.2      4.604     10.721
REMARK  2 active torsions:
REMARK  status: ('A' for Active; 'I' for Inactive)
REMARK    1  A    between atoms: C5_5  and  N6_21 
REMARK    2  A    between atoms: C18_14  and  N17_19 
ROOT
HETATM    1  O1  MIQ B 502     -10.700  -9.077   3.859  1.00142.91    -0.171 OA
HETATM    2  C2  MIQ B 502     -12.030  -9.497   3.923  1.00141.17     0.195 A 
HETATM    3  C3  MIQ B 502     -12.905  -9.595   5.214  1.00141.71     0.035 A 
HETATM    4  C4  MIQ B 502     -12.647  -9.305   6.644  1.00142.86     0.046 A 
HETATM    5  C5  MIQ B 502     -13.667  -9.496   7.610  1.00139.53     0.031 A 
HETATM    6  C12 MIQ B 502     -14.976  -9.979   7.192  1.00139.38     0.030 A 
HETATM    7  C13 MIQ B 502     -15.224 -10.257   5.821  1.00141.18     0.019 A 
HETATM    8  C14 MIQ B 502     -14.149 -10.052   4.811  1.00138.77     0.033 A 
HETATM    9  C15 MIQ B 502     -14.046 -10.237   3.262  1.00142.10     0.195 A 
HETATM   10  N17 MIQ B 502     -12.815  -9.885   2.933  1.00139.42    -0.288 N 
HETATM   11  O16 MIQ B 502     -15.053 -10.686   2.406  1.00148.93    -0.171 OA
ENDROOT
BRANCH  10  12
HETATM   12  C18 MIQ B 502     -12.351  -9.946   1.559  1.00139.82     0.187 C 
HETATM   13  C19 MIQ B 502     -11.036 -10.735   1.544  1.00140.06     0.247 C 
HETATM   14  O25 MIQ B 502     -10.991 -11.789   2.071  1.00143.95    -0.271 OA
HETATM   15  N20 MIQ B 502      -9.846 -10.224   0.894  1.00140.02    -0.296 N 
HETATM   16  H13 MIQ B 502      -8.992 -10.746   0.897  1.00142.77     0.171 HD
HETATM   17  C21 MIQ B 502      -9.924  -8.930   0.267  1.00142.22     0.224 C 
HETATM   18  C22 MIQ B 502     -10.834  -7.909   0.921  1.00139.52     0.106 C 
HETATM   19  O24 MIQ B 502      -9.310  -8.681  -0.712  1.00146.13    -0.273 OA
HETATM   20  C23 MIQ B 502     -12.214  -8.538   0.981  1.00139.15     0.045 C 
ENDBRANCH  10  12
BRANCH   5  21
HETATM   21  N6  MIQ B 502     -13.396  -9.222   9.009  1.00140.95    -0.377 N 
HETATM   22  C7  MIQ B 502     -12.720 -10.238   9.797  1.00142.12     0.149 C 
HETATM   23  C8  MIQ B 502     -13.065 -10.132  11.277  1.00144.10     0.187 C 
HETATM   24  O9  MIQ B 502     -12.961  -8.829  11.768  1.00148.65    -0.388 OA
HETATM   25  C10 MIQ B 502     -12.788  -7.755  10.892  1.00147.44     0.187 C 
HETATM   26  C11 MIQ B 502     -13.384  -7.852   9.491  1.00144.08     0.149 C 
ENDBRANCH   5  21
TORSDOF 2
ENDMDL
