MODEL 1
REMARK VINA RESULT:      -6.3      0.000      0.000
REMARK  2 active torsions:
REMARK  status: ('A' for Active; 'I' for Inactive)
REMARK    1  A    between atoms: C5_5  and  N6_21 
REMARK    2  A    between atoms: C18_14  and  N17_19 
ROOT
HETATM    1  O1  MIQ B 502     -14.615  11.663 -14.701  1.00142.91    -0.171 OA
HETATM    2  C2  MIQ B 502     -15.721  11.562 -13.854  1.00141.17     0.195 A 
HETATM    3  C3  MIQ B 502     -15.711  11.720 -12.300  1.00141.71     0.035 A 
HETATM    4  C4  MIQ B 502     -14.643  12.002 -11.312  1.00142.86     0.046 A 
HETATM    5  C5  MIQ B 502     -14.950  12.091  -9.930  1.00139.53     0.031 A 
HETATM    6  C12 MIQ B 502     -16.322  11.904  -9.482  1.00139.38     0.030 A 
HETATM    7  C13 MIQ B 502     -17.347  11.634 -10.429  1.00141.18     0.019 A 
HETATM    8  C14 MIQ B 502     -17.019  11.545 -11.878  1.00138.77     0.033 A 
HETATM    9  C15 MIQ B 502     -17.846  11.277 -13.178  1.00142.10     0.195 A 
HETATM   10  N17 MIQ B 502     -16.981  11.323 -14.178  1.00139.42    -0.288 N 
HETATM   11  O16 MIQ B 502     -19.218  11.036 -13.260  1.00148.93    -0.171 OA
ENDROOT
BRANCH  10  12
HETATM   12  C18 MIQ B 502     -17.396  11.101 -15.550  1.00139.82     0.187 C 
HETATM   13  C19 MIQ B 502     -18.562  12.053 -15.846  1.00140.06     0.247 C 
HETATM   14  O25 MIQ B 502     -18.444  13.201 -15.602  1.00143.95    -0.271 OA
HETATM   15  N20 MIQ B 502     -19.805  11.583 -16.423  1.00140.02    -0.296 N 
HETATM   16  H13 MIQ B 502     -20.560  12.213 -16.605  1.00142.77     0.171 HD
HETATM   17  C21 MIQ B 502     -19.929  10.175 -16.702  1.00142.22     0.224 C 
HETATM   18  C22 MIQ B 502     -19.215   9.228 -15.757  1.00139.52     0.106 C 
HETATM   19  O24 MIQ B 502     -20.552   9.781 -17.625  1.00146.13    -0.273 OA
HETATM   20  C23 MIQ B 502     -17.751   9.631 -15.767  1.00139.15     0.045 C 
ENDBRANCH  10  12
BRANCH   5  21
HETATM   21  N6  MIQ B 502     -13.892  12.353  -8.972  1.00140.95    -0.377 N 
HETATM   22  C7  MIQ B 502     -12.633  12.892  -9.457  1.00142.12     0.149 C 
HETATM   23  C8  MIQ B 502     -11.468  12.522  -8.549  1.00144.10     0.187 C 
HETATM   24  O9  MIQ B 502     -11.736  12.754  -7.199  1.00148.65    -0.388 OA
HETATM   25  C10 MIQ B 502     -13.031  13.068  -6.778  1.00147.44     0.187 C 
HETATM   26  C11 MIQ B 502     -14.210  12.502  -7.563  1.00144.08     0.149 C 
ENDBRANCH   5  21
TORSDOF 2
ENDMDL
MODEL 2
REMARK VINA RESULT:      -6.3      6.252      8.874
REMARK  2 active torsions:
REMARK  status: ('A' for Active; 'I' for Inactive)
REMARK    1  A    between atoms: C5_5  and  N6_21 
REMARK    2  A    between atoms: C18_14  and  N17_19 
ROOT
HETATM    1  O1  MIQ B 502     -10.670  10.386 -15.488  1.00142.91    -0.171 OA
HETATM    2  C2  MIQ B 502     -10.178  11.459 -14.742  1.00141.17     0.195 A 
HETATM    3  C3  MIQ B 502     -10.912  12.178 -13.566  1.00141.71     0.035 A 
HETATM    4  C4  MIQ B 502     -12.230  11.983 -12.915  1.00142.86     0.046 A 
HETATM    5  C5  MIQ B 502     -12.628  12.815 -11.839  1.00139.53     0.031 A 
HETATM    6  C12 MIQ B 502     -11.737  13.867 -11.371  1.00139.38     0.030 A 
HETATM    7  C13 MIQ B 502     -10.473  14.053 -11.993  1.00141.18     0.019 A 
HETATM    8  C14 MIQ B 502     -10.059  13.175 -13.121  1.00138.77     0.033 A 
HETATM    9  C15 MIQ B 502      -8.788  13.074 -14.026  1.00142.10     0.195 A 
HETATM   10  N17 MIQ B 502      -9.015  12.076 -14.864  1.00139.42    -0.288 N 
HETATM   11  O16 MIQ B 502      -7.649  13.878 -13.960  1.00148.93    -0.171 OA
ENDROOT
BRANCH  10  12
HETATM   12  C18 MIQ B 502      -8.044  11.700 -15.875  1.00139.82     0.187 C 
HETATM   13  C19 MIQ B 502      -6.723  11.389 -15.161  1.00140.06     0.247 C 
HETATM   14  O25 MIQ B 502      -6.723  10.640 -14.250  1.00143.95    -0.271 OA
HETATM   15  N20 MIQ B 502      -5.471  11.986 -15.578  1.00140.02    -0.296 N 
HETATM   16  H13 MIQ B 502      -4.616  11.780 -15.100  1.00142.77     0.171 HD
HETATM   17  C21 MIQ B 502      -5.498  12.906 -16.686  1.00142.22     0.224 C 
HETATM   18  C22 MIQ B 502      -6.742  13.761 -16.831  1.00139.52     0.106 C 
HETATM   19  O24 MIQ B 502      -4.596  12.984 -17.446  1.00146.13    -0.273 OA
HETATM   20  C23 MIQ B 502      -7.915  12.803 -16.925  1.00139.15     0.045 C 
ENDBRANCH  10  12
BRANCH   5  21
HETATM   21  N6  MIQ B 502     -13.927  12.622 -11.221  1.00140.95    -0.377 N 
HETATM   22  C7  MIQ B 502     -14.893  11.765 -11.887  1.00142.12     0.149 C 
HETATM   23  C8  MIQ B 502     -16.326  12.142 -11.536  1.00144.10     0.187 C 
HETATM   24  O9  MIQ B 502     -16.523  12.310 -10.164  1.00148.65    -0.388 OA
HETATM   25  C10 MIQ B 502     -15.433  12.346  -9.292  1.00147.44     0.187 C 
HETATM   26  C11 MIQ B 502     -14.105  12.893  -9.805  1.00144.08     0.149 C 
ENDBRANCH   5  21
TORSDOF 2
ENDMDL
MODEL 3
REMARK VINA RESULT:      -6.1     19.050     22.563
REMARK  2 active torsions:
REMARK  status: ('A' for Active; 'I' for Inactive)
REMARK    1  A    between atoms: C5_5  and  N6_21 
REMARK    2  A    between atoms: C18_14  and  N17_19 
ROOT
HETATM    1  O1  MIQ B 502      -8.896  16.612   8.146  1.00142.91    -0.171 OA
HETATM    2  C2  MIQ B 502      -9.904  15.665   8.341  1.00141.17     0.195 A 
HETATM    3  C3  MIQ B 502     -10.002  14.267   7.653  1.00141.71     0.035 A 
HETATM    4  C4  MIQ B 502      -9.150  13.552   6.673  1.00142.86     0.046 A 
HETATM    5  C5  MIQ B 502      -9.507  12.256   6.224  1.00139.53     0.031 A 
HETATM    6  C12 MIQ B 502     -10.718  11.624   6.729  1.00139.38     0.030 A 
HETATM    7  C13 MIQ B 502     -11.534  12.309   7.669  1.00141.18     0.019 A 
HETATM    8  C14 MIQ B 502     -11.153  13.668   8.139  1.00138.77     0.033 A 
HETATM    9  C15 MIQ B 502     -11.773  14.701   9.136  1.00142.10     0.195 A 
HETATM   10  N17 MIQ B 502     -10.961  15.745   9.132  1.00139.42    -0.288 N 
HETATM   11  O16 MIQ B 502     -12.948  14.549   9.874  1.00148.93    -0.171 OA
ENDROOT
BRANCH  10  12
HETATM   12  C18 MIQ B 502     -11.233  16.920   9.940  1.00139.82     0.187 C 
HETATM   13  C19 MIQ B 502     -11.203  18.142   9.014  1.00140.06     0.247 C 
HETATM   14  O25 MIQ B 502     -11.844  18.130   8.024  1.00143.95    -0.271 OA
HETATM   15  N20 MIQ B 502     -10.412  19.315   9.324  1.00140.02    -0.296 N 
HETATM   16  H13 MIQ B 502     -10.396  20.104   8.707  1.00142.77     0.171 HD
HETATM   17  C21 MIQ B 502      -9.630  19.302  10.533  1.00142.22     0.224 C 
HETATM   18  C22 MIQ B 502      -9.058  17.963  10.959  1.00139.52     0.106 C 
HETATM   19  O24 MIQ B 502      -9.448  20.285  11.162  1.00146.13    -0.273 OA
HETATM   20  C23 MIQ B 502     -10.236  17.015  11.094  1.00139.15     0.045 C 
ENDBRANCH  10  12
BRANCH   5  21
HETATM   21  N6  MIQ B 502      -8.672  11.573   5.252  1.00140.95    -0.377 N 
HETATM   22  C7  MIQ B 502      -9.189  10.378   4.609  1.00142.12     0.149 C 
HETATM   23  C8  MIQ B 502      -8.072   9.445   4.160  1.00144.10     0.187 C 
HETATM   24  O9  MIQ B 502      -7.059  10.107   3.463  1.00148.65    -0.388 OA
HETATM   25  C10 MIQ B 502      -7.021  11.503   3.425  1.00147.44     0.187 C 
HETATM   26  C11 MIQ B 502      -7.574  12.280   4.616  1.00144.08     0.149 C 
ENDBRANCH   5  21
TORSDOF 2
ENDMDL
MODEL 4
REMARK VINA RESULT:      -6.1     23.499     26.065
REMARK  2 active torsions:
REMARK  status: ('A' for Active; 'I' for Inactive)
REMARK    1  A    between atoms: C5_5  and  N6_21 
REMARK    2  A    between atoms: C18_14  and  N17_19 
ROOT
HETATM    1  O1  MIQ B 502     -10.803  28.057   5.944  1.00142.91    -0.171 OA
HETATM    2  C2  MIQ B 502      -9.491  27.598   5.806  1.00141.17     0.195 A 
HETATM    3  C3  MIQ B 502      -8.565  27.810   4.567  1.00141.71     0.035 A 
HETATM    4  C4  MIQ B 502      -8.745  28.497   3.266  1.00142.86     0.046 A 
HETATM    5  C5  MIQ B 502      -7.692  28.523   2.317  1.00139.53     0.031 A 
HETATM    6  C12 MIQ B 502      -6.426  27.872   2.624  1.00139.38     0.030 A 
HETATM    7  C13 MIQ B 502      -6.253  27.214   3.872  1.00141.18     0.019 A 
HETATM    8  C14 MIQ B 502      -7.362  27.192   4.865  1.00138.77     0.033 A 
HETATM    9  C15 MIQ B 502      -7.542  26.593   6.298  1.00142.10     0.195 A 
HETATM   10  N17 MIQ B 502      -8.770  26.909   6.674  1.00139.42    -0.288 N 
HETATM   11  O16 MIQ B 502      -6.595  25.871   7.027  1.00148.93    -0.171 OA
ENDROOT
BRANCH  10  12
HETATM   12  C18 MIQ B 502      -9.297  26.498   7.962  1.00139.82     0.187 C 
HETATM   13  C19 MIQ B 502      -8.257  26.859   9.030  1.00140.06     0.247 C 
HETATM   14  O25 MIQ B 502      -7.821  27.955   9.062  1.00143.95    -0.271 OA
HETATM   15  N20 MIQ B 502      -7.798  25.893  10.006  1.00140.02    -0.296 N 
HETATM   16  H13 MIQ B 502      -7.114  26.139  10.694  1.00142.77     0.171 HD
HETATM   17  C21 MIQ B 502      -8.337  24.559   9.940  1.00142.22     0.224 C 
HETATM   18  C22 MIQ B 502      -8.671  24.026   8.560  1.00139.52     0.106 C 
HETATM   19  O24 MIQ B 502      -8.514  23.915  10.916  1.00146.13    -0.273 OA
HETATM   20  C23 MIQ B 502      -9.648  25.011   7.943  1.00139.15     0.045 C 
ENDBRANCH  10  12
BRANCH   5  21
HETATM   21  N6  MIQ B 502      -7.887  29.186   1.041  1.00140.95    -0.377 N 
HETATM   22  C7  MIQ B 502      -6.872  29.029   0.014  1.00142.12     0.149 C 
HETATM   23  C8  MIQ B 502      -6.849  30.210  -0.949  1.00144.10     0.187 C 
HETATM   24  O9  MIQ B 502      -8.119  30.557  -1.413  1.00148.65    -0.388 OA
HETATM   25  C10 MIQ B 502      -9.262  29.996  -0.836  1.00147.44     0.187 C 
HETATM   26  C11 MIQ B 502      -9.218  29.607   0.638  1.00144.08     0.149 C 
ENDBRANCH   5  21
TORSDOF 2
ENDMDL
MODEL 5
REMARK VINA RESULT:      -6.1      6.754      9.606
REMARK  2 active torsions:
REMARK  status: ('A' for Active; 'I' for Inactive)
REMARK    1  A    between atoms: C5_5  and  N6_21 
REMARK    2  A    between atoms: C18_14  and  N17_19 
ROOT
HETATM    1  O1  MIQ B 502      -9.017  11.893 -15.903  1.00142.91    -0.171 OA
HETATM    2  C2  MIQ B 502      -9.259  10.657 -15.299  1.00141.17     0.195 A 
HETATM    3  C3  MIQ B 502     -10.641  10.133 -14.794  1.00141.71     0.035 A 
HETATM    4  C4  MIQ B 502     -12.009  10.705 -14.791  1.00142.86     0.046 A 
HETATM    5  C5  MIQ B 502     -13.092   9.968 -14.250  1.00139.53     0.031 A 
HETATM    6  C12 MIQ B 502     -12.859   8.642 -13.694  1.00139.38     0.030 A 
HETATM    7  C13 MIQ B 502     -11.549   8.093 -13.698  1.00141.18     0.019 A 
HETATM    8  C14 MIQ B 502     -10.415   8.870 -14.270  1.00138.77     0.033 A 
HETATM    9  C15 MIQ B 502      -8.884   8.610 -14.451  1.00142.10     0.195 A 
HETATM   10  N17 MIQ B 502      -8.396   9.691 -15.036  1.00139.42    -0.288 N 
HETATM   11  O16 MIQ B 502      -8.180   7.466 -14.069  1.00148.93    -0.171 OA
ENDROOT
BRANCH  10  12
HETATM   12  C18 MIQ B 502      -6.984   9.812 -15.348  1.00139.82     0.187 C 
HETATM   13  C19 MIQ B 502      -6.473  11.110 -14.711  1.00140.06     0.247 C 
HETATM   14  O25 MIQ B 502      -6.691  11.316 -13.570  1.00143.95    -0.271 OA
HETATM   15  N20 MIQ B 502      -5.724  12.090 -15.471  1.00140.02    -0.296 N 
HETATM   16  H13 MIQ B 502      -5.402  12.936 -15.045  1.00142.77     0.171 HD
HETATM   17  C21 MIQ B 502      -5.480  11.820 -16.864  1.00142.22     0.224 C 
HETATM   18  C22 MIQ B 502      -6.559  11.060 -17.610  1.00139.52     0.106 C 
HETATM   19  O24 MIQ B 502      -4.484  12.170 -17.396  1.00146.13    -0.273 OA
HETATM   20  C23 MIQ B 502      -6.767   9.758 -16.859  1.00139.15     0.045 C 
ENDBRANCH  10  12
BRANCH   5  21
HETATM   21  N6  MIQ B 502     -14.424  10.546 -14.239  1.00140.95    -0.377 N 
HETATM   22  C7  MIQ B 502     -15.273  10.314 -13.084  1.00142.12     0.149 C 
HETATM   23  C8  MIQ B 502     -16.752  10.385 -13.441  1.00144.10     0.187 C 
HETATM   24  O9  MIQ B 502     -17.074  11.511 -14.202  1.00148.65    -0.388 OA
HETATM   25  C10 MIQ B 502     -16.064  12.314 -14.739  1.00147.44     0.187 C 
HETATM   26  C11 MIQ B 502     -14.736  11.664 -15.113  1.00144.08     0.149 C 
ENDBRANCH   5  21
TORSDOF 2
ENDMDL
MODEL 6
REMARK VINA RESULT:      -6.1     19.138     23.732
REMARK  2 active torsions:
REMARK  status: ('A' for Active; 'I' for Inactive)
REMARK    1  A    between atoms: C5_5  and  N6_21 
REMARK    2  A    between atoms: C18_14  and  N17_19 
ROOT
HETATM    1  O1  MIQ B 502      -8.466  10.877   8.434  1.00142.91    -0.171 OA
HETATM    2  C2  MIQ B 502      -8.694  12.232   8.688  1.00141.17     0.195 A 
HETATM    3  C3  MIQ B 502      -8.378  12.987  10.018  1.00141.71     0.035 A 
HETATM    4  C4  MIQ B 502      -7.793  12.567  11.314  1.00142.86     0.046 A 
HETATM    5  C5  MIQ B 502      -7.626  13.506  12.362  1.00139.53     0.031 A 
HETATM    6  C12 MIQ B 502      -8.030  14.891  12.164  1.00139.38     0.030 A 
HETATM    7  C13 MIQ B 502      -8.589  15.294  10.921  1.00141.18     0.019 A 
HETATM    8  C14 MIQ B 502      -8.761  14.304   9.823  1.00138.77     0.033 A 
HETATM    9  C15 MIQ B 502      -9.316  14.367   8.363  1.00142.10     0.195 A 
HETATM   10  N17 MIQ B 502      -9.205  13.142   7.877  1.00139.42    -0.288 N 
HETATM   11  O16 MIQ B 502      -9.828  15.491   7.711  1.00148.93    -0.171 OA
ENDROOT
BRANCH  10  12
HETATM   12  C18 MIQ B 502      -9.644  12.818   6.532  1.00139.82     0.187 C 
HETATM   13  C19 MIQ B 502     -10.567  11.597   6.622  1.00140.06     0.247 C 
HETATM   14  O25 MIQ B 502     -11.465  11.609   7.387  1.00143.95    -0.271 OA
HETATM   15  N20 MIQ B 502     -10.371  10.429   5.789  1.00140.02    -0.296 N 
HETATM   16  H13 MIQ B 502     -10.977   9.635   5.862  1.00142.77     0.171 HD
HETATM   17  C21 MIQ B 502      -9.262  10.433   4.870  1.00142.22     0.224 C 
HETATM   18  C22 MIQ B 502      -8.013  11.170   5.314  1.00139.52     0.106 C 
HETATM   19  O24 MIQ B 502      -9.326   9.893   3.821  1.00146.13    -0.273 OA
HETATM   20  C23 MIQ B 502      -8.439  12.595   5.619  1.00139.15     0.045 C 
ENDBRANCH  10  12
BRANCH   5  21
HETATM   21  N6  MIQ B 502      -7.065  13.078  13.631  1.00140.95    -0.377 N 
HETATM   22  C7  MIQ B 502      -7.286  13.907  14.803  1.00142.12     0.149 C 
HETATM   23  C8  MIQ B 502      -6.183  13.733  15.839  1.00144.10     0.187 C 
HETATM   24  O9  MIQ B 502      -5.891  12.394  16.102  1.00148.65    -0.388 OA
HETATM   25  C10 MIQ B 502      -6.422  11.382  15.298  1.00147.44     0.187 C 
HETATM   26  C11 MIQ B 502      -6.696  11.687  13.829  1.00144.08     0.149 C 
ENDBRANCH   5  21
TORSDOF 2
ENDMDL
MODEL 7
REMARK VINA RESULT:      -6.0     17.969     19.317
REMARK  2 active torsions:
REMARK  status: ('A' for Active; 'I' for Inactive)
REMARK    1  A    between atoms: C5_5  and  N6_21 
REMARK    2  A    between atoms: C18_14  and  N17_19 
ROOT
HETATM    1  O1  MIQ B 502     -13.747   7.491   4.290  1.00142.91    -0.171 OA
HETATM    2  C2  MIQ B 502     -13.477   8.105   5.515  1.00141.17     0.195 A 
HETATM    3  C3  MIQ B 502     -12.223   8.971   5.855  1.00141.71     0.035 A 
HETATM    4  C4  MIQ B 502     -11.032   9.389   5.079  1.00142.86     0.046 A 
HETATM    5  C5  MIQ B 502     -10.035  10.201   5.677  1.00139.53     0.031 A 
HETATM    6  C12 MIQ B 502     -10.184  10.625   7.062  1.00139.38     0.030 A 
HETATM    7  C13 MIQ B 502     -11.326  10.225   7.806  1.00141.18     0.019 A 
HETATM    8  C14 MIQ B 502     -12.371   9.376   7.172  1.00138.77     0.033 A 
HETATM    9  C15 MIQ B 502     -13.725   8.757   7.651  1.00142.10     0.195 A 
HETATM   10  N17 MIQ B 502     -14.208   8.090   6.616  1.00139.42    -0.288 N 
HETATM   11  O16 MIQ B 502     -14.300   8.885   8.916  1.00148.93    -0.171 OA
ENDROOT
BRANCH  10  12
HETATM   12  C18 MIQ B 502     -15.462   7.365   6.701  1.00139.82     0.187 C 
HETATM   13  C19 MIQ B 502     -15.195   5.917   6.271  1.00140.06     0.247 C 
HETATM   14  O25 MIQ B 502     -14.308   5.322   6.771  1.00143.95    -0.271 OA
HETATM   15  N20 MIQ B 502     -16.007   5.256   5.270  1.00140.02    -0.296 N 
HETATM   16  H13 MIQ B 502     -15.819   4.313   4.993  1.00142.77     0.171 HD
HETATM   17  C21 MIQ B 502     -17.078   6.007   4.667  1.00142.22     0.224 C 
HETATM   18  C22 MIQ B 502     -16.848   7.494   4.484  1.00139.52     0.106 C 
HETATM   19  O24 MIQ B 502     -18.088   5.487   4.338  1.00146.13    -0.273 OA
HETATM   20  C23 MIQ B 502     -16.533   8.055   5.859  1.00139.15     0.045 C 
ENDBRANCH  10  12
BRANCH   5  21
HETATM   21  N6  MIQ B 502      -8.866  10.590   4.909  1.00140.95    -0.377 N 
HETATM   22  C7  MIQ B 502      -8.115  11.760   5.333  1.00142.12     0.149 C 
HETATM   23  C8  MIQ B 502      -7.380  12.415   4.170  1.00144.10     0.187 C 
HETATM   24  O9  MIQ B 502      -6.670  11.499   3.391  1.00148.65    -0.388 OA
HETATM   25  C10 MIQ B 502      -6.850  10.126   3.573  1.00147.44     0.187 C 
HETATM   26  C11 MIQ B 502      -8.211   9.624   4.045  1.00144.08     0.149 C 
ENDBRANCH   5  21
TORSDOF 2
ENDMDL
MODEL 8
REMARK VINA RESULT:      -5.9      6.285      8.838
REMARK  2 active torsions:
REMARK  status: ('A' for Active; 'I' for Inactive)
REMARK    1  A    between atoms: C5_5  and  N6_21 
REMARK    2  A    between atoms: C18_14  and  N17_19 
ROOT
HETATM    1  O1  MIQ B 502      -8.545  12.747 -13.876  1.00142.91    -0.171 OA
HETATM    2  C2  MIQ B 502      -9.439  12.045 -14.687  1.00141.17     0.195 A 
HETATM    3  C3  MIQ B 502     -10.943  11.766 -14.375  1.00141.71     0.035 A 
HETATM    4  C4  MIQ B 502     -11.831  12.117 -13.240  1.00142.86     0.046 A 
HETATM    5  C5  MIQ B 502     -13.190  11.713 -13.242  1.00139.53     0.031 A 
HETATM    6  C12 MIQ B 502     -13.716  10.950 -14.365  1.00139.38     0.030 A 
HETATM    7  C13 MIQ B 502     -12.865  10.614 -15.453  1.00141.18     0.019 A 
HETATM    8  C14 MIQ B 502     -11.440  11.043 -15.447  1.00138.77     0.033 A 
HETATM    9  C15 MIQ B 502     -10.237  10.873 -16.431  1.00142.10     0.195 A 
HETATM   10  N17 MIQ B 502      -9.211  11.485 -15.863  1.00139.42    -0.288 N 
HETATM   11  O16 MIQ B 502     -10.248  10.206 -17.657  1.00148.93    -0.171 OA
ENDROOT
BRANCH  10  12
HETATM   12  C18 MIQ B 502      -7.905  11.517 -16.493  1.00139.82     0.187 C 
HETATM   13  C19 MIQ B 502      -6.892  10.935 -15.500  1.00140.06     0.247 C 
HETATM   14  O25 MIQ B 502      -7.112   9.890 -14.999  1.00143.95    -0.271 OA
HETATM   15  N20 MIQ B 502      -5.665  11.629 -15.165  1.00140.02    -0.296 N 
HETATM   16  H13 MIQ B 502      -5.015  11.241 -14.510  1.00142.77     0.171 HD
HETATM   17  C21 MIQ B 502      -5.423  12.907 -15.782  1.00142.22     0.224 C 
HETATM   18  C22 MIQ B 502      -6.638  13.769 -16.064  1.00139.52     0.106 C 
HETATM   19  O24 MIQ B 502      -4.330  13.262 -16.060  1.00146.13    -0.273 OA
HETATM   20  C23 MIQ B 502      -7.563  12.939 -16.936  1.00139.15     0.045 C 
ENDBRANCH  10  12
BRANCH   5  21
HETATM   21  N6  MIQ B 502     -14.044  12.050 -12.118  1.00140.95    -0.377 N 
HETATM   22  C7  MIQ B 502     -15.311  11.355 -11.975  1.00142.12     0.149 C 
HETATM   23  C8  MIQ B 502     -16.336  12.191 -11.220  1.00144.10     0.187 C 
HETATM   24  O9  MIQ B 502     -15.825  12.748 -10.046  1.00148.65    -0.388 OA
HETATM   25  C10 MIQ B 502     -14.455  12.699  -9.778  1.00147.44     0.187 C 
HETATM   26  C11 MIQ B 502     -13.481  12.708 -10.951  1.00144.08     0.149 C 
ENDBRANCH   5  21
TORSDOF 2
ENDMDL
MODEL 9
REMARK VINA RESULT:      -5.9     22.923     25.630
REMARK  2 active torsions:
REMARK  status: ('A' for Active; 'I' for Inactive)
REMARK    1  A    between atoms: C5_5  and  N6_21 
REMARK    2  A    between atoms: C18_14  and  N17_19 
ROOT
HETATM    1  O1  MIQ B 502      -7.714  26.816   3.095  1.00142.91    -0.171 OA
HETATM    2  C2  MIQ B 502      -7.669  27.876   4.003  1.00141.17     0.195 A 
HETATM    3  C3  MIQ B 502      -7.771  27.763   5.558  1.00141.71     0.035 A 
HETATM    4  C4  MIQ B 502      -7.929  26.620   6.488  1.00142.86     0.046 A 
HETATM    5  C5  MIQ B 502      -7.990  26.839   7.888  1.00139.53     0.031 A 
HETATM    6  C12 MIQ B 502      -7.897  28.194   8.412  1.00139.38     0.030 A 
HETATM    7  C13 MIQ B 502      -7.745  29.290   7.520  1.00141.18     0.019 A 
HETATM    8  C14 MIQ B 502      -7.679  29.054   6.052  1.00138.77     0.033 A 
HETATM    9  C15 MIQ B 502      -7.518  29.973   4.797  1.00142.10     0.195 A 
HETATM   10  N17 MIQ B 502      -7.530  29.166   3.749  1.00139.42    -0.288 N 
HETATM   11  O16 MIQ B 502      -7.390  31.363   4.790  1.00148.93    -0.171 OA
ENDROOT
BRANCH  10  12
HETATM   12  C18 MIQ B 502      -7.416  29.679   2.397  1.00139.82     0.187 C 
HETATM   13  C19 MIQ B 502      -8.676  29.258   1.630  1.00140.06     0.247 C 
HETATM   14  O25 MIQ B 502      -9.736  29.480   2.098  1.00143.95    -0.271 OA
HETATM   15  N20 MIQ B 502      -8.602  28.600   0.342  1.00140.02    -0.296 N 
HETATM   16  H13 MIQ B 502      -9.432  28.324  -0.145  1.00142.77     0.171 HD
HETATM   17  C21 MIQ B 502      -7.297  28.330  -0.204  1.00142.22     0.224 C 
HETATM   18  C22 MIQ B 502      -6.196  28.010   0.789  1.00139.52     0.106 C 
HETATM   19  O24 MIQ B 502      -7.095  28.362  -1.368  1.00146.13    -0.273 OA
HETATM   20  C23 MIQ B 502      -6.125  29.185   1.747  1.00139.15     0.045 C 
ENDBRANCH  10  12
BRANCH   5  21
HETATM   21  N6  MIQ B 502      -8.160  25.712   8.787  1.00140.95    -0.377 N 
HETATM   22  C7  MIQ B 502      -8.485  25.976  10.178  1.00142.12     0.149 C 
HETATM   23  C8  MIQ B 502      -8.011  24.856  11.095  1.00144.10     0.187 C 
HETATM   24  O9  MIQ B 502      -8.363  23.587  10.630  1.00148.65    -0.388 OA
HETATM   25  C10 MIQ B 502      -8.882  23.424   9.344  1.00147.44     0.187 C 
HETATM   26  C11 MIQ B 502      -8.441  24.392   8.251  1.00144.08     0.149 C 
ENDBRANCH   5  21
TORSDOF 2
ENDMDL
