MODEL 1
REMARK VINA RESULT:      -6.7      0.000      0.000
REMARK  2 active torsions:
REMARK  status: ('A' for Active; 'I' for Inactive)
REMARK    1  A    between atoms: C5_5  and  N6_21 
REMARK    2  A    between atoms: C18_14  and  N17_19 
ROOT
HETATM    1  O1  MIQ B 502      11.724 -20.136  -6.861  1.00142.91    -0.171 OA
HETATM    2  C2  MIQ B 502      10.696 -19.349  -6.339  1.00141.17     0.195 A 
HETATM    3  C3  MIQ B 502       9.166 -19.648  -6.435  1.00141.71     0.035 A 
HETATM    4  C4  MIQ B 502       8.379 -20.748  -7.042  1.00142.86     0.046 A 
HETATM    5  C5  MIQ B 502       6.963 -20.744  -6.963  1.00139.53     0.031 A 
HETATM    6  C12 MIQ B 502       6.280 -19.654  -6.281  1.00139.38     0.030 A 
HETATM    7  C13 MIQ B 502       7.034 -18.600  -5.699  1.00141.18     0.019 A 
HETATM    8  C14 MIQ B 502       8.520 -18.611  -5.782  1.00138.77     0.033 A 
HETATM    9  C15 MIQ B 502       9.656 -17.662  -5.278  1.00142.10     0.195 A 
HETATM   10  N17 MIQ B 502      10.793 -18.216  -5.666  1.00139.42    -0.288 N 
HETATM   11  O16 MIQ B 502       9.497 -16.472  -4.566  1.00148.93    -0.171 OA
ENDROOT
BRANCH  10  12
HETATM   12  C18 MIQ B 502      12.074 -17.594  -5.382  1.00139.82     0.187 C 
HETATM   13  C19 MIQ B 502      12.806 -17.401  -6.715  1.00140.06     0.247 C 
HETATM   14  O25 MIQ B 502      12.246 -16.869  -7.607  1.00143.95    -0.271 OA
HETATM   15  N20 MIQ B 502      14.170 -17.848  -6.910  1.00140.02    -0.296 N 
HETATM   16  H13 MIQ B 502      14.634 -17.722  -7.788  1.00142.77     0.171 HD
HETATM   17  C21 MIQ B 502      14.828 -18.504  -5.810  1.00142.22     0.224 C 
HETATM   18  C22 MIQ B 502      13.956 -19.350  -4.901  1.00139.52     0.106 C 
HETATM   19  O24 MIQ B 502      15.988 -18.383  -5.623  1.00146.13    -0.273 OA
HETATM   20  C23 MIQ B 502      12.862 -18.436  -4.380  1.00139.15     0.045 C 
ENDBRANCH  10  12
BRANCH   5  21
HETATM   21  N6  MIQ B 502       6.204 -21.820  -7.575  1.00140.95    -0.377 N 
HETATM   22  C7  MIQ B 502       5.099 -22.400  -6.832  1.00142.12     0.149 C 
HETATM   23  C8  MIQ B 502       4.830 -23.842  -7.244  1.00144.10     0.187 C 
HETATM   24  O9  MIQ B 502       4.771 -24.008  -8.629  1.00148.65    -0.388 OA
HETATM   25  C10 MIQ B 502       5.160 -22.974  -9.484  1.00147.44     0.187 C 
HETATM   26  C11 MIQ B 502       6.242 -22.007  -9.015  1.00144.08     0.149 C 
ENDBRANCH   5  21
TORSDOF 2
ENDMDL
MODEL 2
REMARK VINA RESULT:      -6.6     13.124     15.370
REMARK  2 active torsions:
REMARK  status: ('A' for Active; 'I' for Inactive)
REMARK    1  A    between atoms: C5_5  and  N6_21 
REMARK    2  A    between atoms: C18_14  and  N17_19 
ROOT
HETATM    1  O1  MIQ B 502      13.949 -24.466 -19.574  1.00142.91    -0.171 OA
HETATM    2  C2  MIQ B 502      13.555 -25.747 -19.181  1.00141.17     0.195 A 
HETATM    3  C3  MIQ B 502      13.507 -26.289 -17.717  1.00141.71     0.035 A 
HETATM    4  C4  MIQ B 502      13.827 -25.691 -16.398  1.00142.86     0.046 A 
HETATM    5  C5  MIQ B 502      13.679 -26.453 -15.212  1.00139.53     0.031 A 
HETATM    6  C12 MIQ B 502      13.210 -27.829 -15.290  1.00139.38     0.030 A 
HETATM    7  C13 MIQ B 502      12.903 -28.402 -16.554  1.00141.18     0.019 A 
HETATM    8  C14 MIQ B 502      13.058 -27.596 -17.796  1.00138.77     0.033 A 
HETATM    9  C15 MIQ B 502      12.824 -27.868 -19.318  1.00142.10     0.195 A 
HETATM   10  N17 MIQ B 502      13.143 -26.746 -19.942  1.00139.42    -0.288 N 
HETATM   11  O16 MIQ B 502      12.374 -29.056 -19.896  1.00148.93    -0.171 OA
ENDROOT
BRANCH  10  12
HETATM   12  C18 MIQ B 502      13.062 -26.633 -21.387  1.00139.82     0.187 C 
HETATM   13  C19 MIQ B 502      14.429 -26.158 -21.896  1.00140.06     0.247 C 
HETATM   14  O25 MIQ B 502      15.402 -26.730 -21.552  1.00143.95    -0.271 OA
HETATM   15  N20 MIQ B 502      14.559 -25.029 -22.793  1.00140.02    -0.296 N 
HETATM   16  H13 MIQ B 502      15.457 -24.725 -23.113  1.00142.77     0.171 HD
HETATM   17  C21 MIQ B 502      13.357 -24.341 -23.190  1.00142.22     0.224 C 
HETATM   18  C22 MIQ B 502      12.242 -24.271 -22.165  1.00139.52     0.106 C 
HETATM   19  O24 MIQ B 502      13.247 -23.860 -24.264  1.00146.13    -0.273 OA
HETATM   20  C23 MIQ B 502      11.916 -25.704 -21.784  1.00139.15     0.045 C 
ENDBRANCH  10  12
BRANCH   5  21
HETATM   21  N6  MIQ B 502      14.009 -25.860 -13.929  1.00140.95    -0.377 N 
HETATM   22  C7  MIQ B 502      15.301 -25.213 -13.775  1.00142.12     0.149 C 
HETATM   23  C8  MIQ B 502      15.774 -25.226 -12.327  1.00144.10     0.187 C 
HETATM   24  O9  MIQ B 502      14.788 -24.812 -11.429  1.00148.65    -0.388 OA
HETATM   25  C10 MIQ B 502      13.468 -24.647 -11.855  1.00147.44     0.187 C 
HETATM   26  C11 MIQ B 502      12.953 -25.525 -12.990  1.00144.08     0.149 C 
ENDBRANCH   5  21
TORSDOF 2
ENDMDL
MODEL 3
REMARK VINA RESULT:      -6.4     20.098     21.566
REMARK  2 active torsions:
REMARK  status: ('A' for Active; 'I' for Inactive)
REMARK    1  A    between atoms: C5_5  and  N6_21 
REMARK    2  A    between atoms: C18_14  and  N17_19 
ROOT
HETATM    1  O1  MIQ B 502       6.795 -12.085 -24.334  1.00142.91    -0.171 OA
HETATM    2  C2  MIQ B 502       5.946 -11.531 -25.295  1.00141.17     0.195 A 
HETATM    3  C3  MIQ B 502       5.210 -12.308 -26.434  1.00141.71     0.035 A 
HETATM    4  C4  MIQ B 502       5.167 -13.735 -26.830  1.00142.86     0.046 A 
HETATM    5  C5  MIQ B 502       4.385 -14.147 -27.939  1.00139.53     0.031 A 
HETATM    6  C12 MIQ B 502       3.620 -13.162 -28.690  1.00139.38     0.030 A 
HETATM    7  C13 MIQ B 502       3.660 -11.794 -28.309  1.00141.18     0.019 A 
HETATM    8  C14 MIQ B 502       4.481 -11.367 -27.143  1.00138.77     0.033 A 
HETATM    9  C15 MIQ B 502       4.766  -9.999 -26.441  1.00142.10     0.195 A 
HETATM   10  N17 MIQ B 502       5.589 -10.267 -25.441  1.00139.42    -0.288 N 
HETATM   11  O16 MIQ B 502       4.254  -8.752 -26.802  1.00148.93    -0.171 OA
ENDROOT
BRANCH  10  12
HETATM   12  C18 MIQ B 502       6.086  -9.219 -24.568  1.00139.82     0.187 C 
HETATM   13  C19 MIQ B 502       7.616  -9.325 -24.534  1.00140.06     0.247 C 
HETATM   14  O25 MIQ B 502       8.213  -9.372 -25.550  1.00143.95    -0.271 OA
HETATM   15  N20 MIQ B 502       8.351  -9.365 -23.286  1.00140.02    -0.296 N 
HETATM   16  H13 MIQ B 502       9.349  -9.441 -23.277  1.00142.77     0.171 HD
HETATM   17  C21 MIQ B 502       7.599  -9.317 -22.059  1.00142.22     0.224 C 
HETATM   18  C22 MIQ B 502       6.237  -9.983 -22.068  1.00139.52     0.106 C 
HETATM   19  O24 MIQ B 502       8.023  -8.780 -21.095  1.00146.13    -0.273 OA
HETATM   20  C23 MIQ B 502       5.445  -9.329 -23.186  1.00139.15     0.045 C 
ENDBRANCH  10  12
BRANCH   5  21
HETATM   21  N6  MIQ B 502       4.363 -15.546 -28.325  1.00140.95    -0.377 N 
HETATM   22  C7  MIQ B 502       5.607 -16.296 -28.290  1.00142.12     0.149 C 
HETATM   23  C8  MIQ B 502       5.599 -17.458 -29.275  1.00144.10     0.187 C 
HETATM   24  O9  MIQ B 502       4.437 -18.227 -29.198  1.00148.65    -0.388 OA
HETATM   25  C10 MIQ B 502       3.344 -17.785 -28.448  1.00147.44     0.187 C 
HETATM   26  C11 MIQ B 502       3.112 -16.284 -28.312  1.00144.08     0.149 C 
ENDBRANCH   5  21
TORSDOF 2
ENDMDL
MODEL 4
REMARK VINA RESULT:      -6.1     19.558     20.945
REMARK  2 active torsions:
REMARK  status: ('A' for Active; 'I' for Inactive)
REMARK    1  A    between atoms: C5_5  and  N6_21 
REMARK    2  A    between atoms: C18_14  and  N17_19 
ROOT
HETATM    1  O1  MIQ B 502       3.544  -9.367 -24.203  1.00142.91    -0.171 OA
HETATM    2  C2  MIQ B 502       3.965  -9.284 -22.874  1.00141.17     0.195 A 
HETATM    3  C3  MIQ B 502       3.352  -8.368 -21.768  1.00141.71     0.035 A 
HETATM    4  C4  MIQ B 502       2.239  -7.389 -21.757  1.00142.86     0.046 A 
HETATM    5  C5  MIQ B 502       1.909  -6.694 -20.566  1.00139.53     0.031 A 
HETATM    6  C12 MIQ B 502       2.667  -6.944 -19.349  1.00139.38     0.030 A 
HETATM    7  C13 MIQ B 502       3.733  -7.883 -19.359  1.00141.18     0.019 A 
HETATM    8  C14 MIQ B 502       4.074  -8.612 -20.611  1.00138.77     0.033 A 
HETATM    9  C15 MIQ B 502       5.141  -9.686 -21.001  1.00142.10     0.195 A 
HETATM   10  N17 MIQ B 502       4.943  -9.949 -22.282  1.00139.42    -0.288 N 
HETATM   11  O16 MIQ B 502       6.107 -10.247 -20.164  1.00148.93    -0.171 OA
ENDROOT
BRANCH  10  12
HETATM   12  C18 MIQ B 502       5.771 -10.903 -22.997  1.00139.82     0.187 C 
HETATM   13  C19 MIQ B 502       6.329 -10.198 -24.240  1.00140.06     0.247 C 
HETATM   14  O25 MIQ B 502       6.864  -9.154 -24.118  1.00143.95    -0.271 OA
HETATM   15  N20 MIQ B 502       6.223 -10.782 -25.561  1.00140.02    -0.296 N 
HETATM   16  H13 MIQ B 502       6.585 -10.309 -26.365  1.00142.77     0.171 HD
HETATM   17  C21 MIQ B 502       5.556 -12.053 -25.685  1.00142.22     0.224 C 
HETATM   18  C22 MIQ B 502       4.408 -12.316 -24.730  1.00139.52     0.106 C 
HETATM   19  O24 MIQ B 502       5.892 -12.851 -26.489  1.00146.13    -0.273 OA
HETATM   20  C23 MIQ B 502       4.969 -12.160 -23.328  1.00139.15     0.045 C 
ENDBRANCH  10  12
BRANCH   5  21
HETATM   21  N6  MIQ B 502       0.826  -5.727 -20.573  1.00140.95    -0.377 N 
HETATM   22  C7  MIQ B 502       1.150  -4.322 -20.748  1.00142.12     0.149 C 
HETATM   23  C8  MIQ B 502       0.104  -3.413 -20.115  1.00144.10     0.187 C 
HETATM   24  O9  MIQ B 502      -1.202  -3.771 -20.455  1.00148.65    -0.388 OA
HETATM   25  C10 MIQ B 502      -1.458  -4.978 -21.111  1.00147.44     0.187 C 
HETATM   26  C11 MIQ B 502      -0.533  -6.161 -20.848  1.00144.08     0.149 C 
ENDBRANCH   5  21
TORSDOF 2
ENDMDL
MODEL 5
REMARK VINA RESULT:      -6.0     19.493     20.626
REMARK  2 active torsions:
REMARK  status: ('A' for Active; 'I' for Inactive)
REMARK    1  A    between atoms: C5_5  and  N6_21 
REMARK    2  A    between atoms: C18_14  and  N17_19 
ROOT
HETATM    1  O1  MIQ B 502       5.268 -11.975 -25.909  1.00142.91    -0.171 OA
HETATM    2  C2  MIQ B 502       4.409 -11.802 -24.821  1.00141.17     0.195 A 
HETATM    3  C3  MIQ B 502       3.058 -12.549 -24.585  1.00141.71     0.035 A 
HETATM    4  C4  MIQ B 502       2.316 -13.580 -25.350  1.00142.86     0.046 A 
HETATM    5  C5  MIQ B 502       1.080 -14.080 -24.867  1.00139.53     0.031 A 
HETATM    6  C12 MIQ B 502       0.538 -13.577 -23.613  1.00139.38     0.030 A 
HETATM    7  C13 MIQ B 502       1.249 -12.590 -22.879  1.00141.18     0.019 A 
HETATM    8  C14 MIQ B 502       2.547 -12.071 -23.390  1.00138.77     0.033 A 
HETATM    9  C15 MIQ B 502       3.588 -11.021 -22.880  1.00142.10     0.195 A 
HETATM   10  N17 MIQ B 502       4.554 -10.996 -23.783  1.00139.42    -0.288 N 
HETATM   11  O16 MIQ B 502       3.508 -10.265 -21.709  1.00148.93    -0.171 OA
ENDROOT
BRANCH  10  12
HETATM   12  C18 MIQ B 502       5.697 -10.113 -23.646  1.00139.82     0.187 C 
HETATM   13  C19 MIQ B 502       5.820  -9.301 -24.941  1.00140.06     0.247 C 
HETATM   14  O25 MIQ B 502       4.873  -8.734 -25.357  1.00143.95    -0.271 OA
HETATM   15  N20 MIQ B 502       7.069  -9.206 -25.667  1.00140.02    -0.296 N 
HETATM   16  H13 MIQ B 502       7.134  -8.678 -26.515  1.00142.77     0.171 HD
HETATM   17  C21 MIQ B 502       8.209  -9.915 -25.145  1.00142.22     0.224 C 
HETATM   18  C22 MIQ B 502       7.929 -11.229 -24.440  1.00139.52     0.106 C 
HETATM   19  O24 MIQ B 502       9.306  -9.490 -25.257  1.00146.13    -0.273 OA
HETATM   20  C23 MIQ B 502       6.954 -10.917 -23.319  1.00139.15     0.045 C 
ENDBRANCH  10  12
BRANCH   5  21
HETATM   21  N6  MIQ B 502       0.358 -15.078 -25.634  1.00140.95    -0.377 N 
HETATM   22  C7  MIQ B 502       0.405 -16.461 -25.193  1.00142.12     0.149 C 
HETATM   23  C8  MIQ B 502       0.196 -17.434 -26.346  1.00144.10     0.187 C 
HETATM   24  O9  MIQ B 502      -0.898 -17.101 -27.147  1.00148.65    -0.388 OA
HETATM   25  C10 MIQ B 502      -1.540 -15.870 -26.990  1.00147.44     0.187 C 
HETATM   26  C11 MIQ B 502      -0.719 -14.673 -26.521  1.00144.08     0.149 C 
ENDBRANCH   5  21
TORSDOF 2
ENDMDL
MODEL 6
REMARK VINA RESULT:      -6.0     19.668     21.007
REMARK  2 active torsions:
REMARK  status: ('A' for Active; 'I' for Inactive)
REMARK    1  A    between atoms: C5_5  and  N6_21 
REMARK    2  A    between atoms: C18_14  and  N17_19 
ROOT
HETATM    1  O1  MIQ B 502       5.768  -8.198 -23.031  1.00142.91    -0.171 OA
HETATM    2  C2  MIQ B 502       4.719  -9.118 -22.979  1.00141.17     0.195 A 
HETATM    3  C3  MIQ B 502       3.237  -8.807 -22.594  1.00141.71     0.035 A 
HETATM    4  C4  MIQ B 502       2.525  -7.568 -22.203  1.00142.86     0.046 A 
HETATM    5  C5  MIQ B 502       1.139  -7.601 -21.906  1.00139.53     0.031 A 
HETATM    6  C12 MIQ B 502       0.412  -8.860 -21.988  1.00139.38     0.030 A 
HETATM    7  C13 MIQ B 502       1.095 -10.048 -22.365  1.00141.18     0.019 A 
HETATM    8  C14 MIQ B 502       2.550 -10.007 -22.677  1.00138.77     0.033 A 
HETATM    9  C15 MIQ B 502       3.610 -11.069 -23.116  1.00142.10     0.195 A 
HETATM   10  N17 MIQ B 502       4.752 -10.413 -23.241  1.00139.42    -0.288 N 
HETATM   11  O16 MIQ B 502       3.391 -12.431 -23.328  1.00148.93    -0.171 OA
ENDROOT
BRANCH  10  12
HETATM   12  C18 MIQ B 502       5.976 -11.092 -23.626  1.00139.82     0.187 C 
HETATM   13  C19 MIQ B 502       7.076 -10.662 -22.647  1.00140.06     0.247 C 
HETATM   14  O25 MIQ B 502       6.877 -10.738 -21.487  1.00143.95    -0.271 OA
HETATM   15  N20 MIQ B 502       8.359 -10.171 -23.108  1.00140.02    -0.296 N 
HETATM   16  H13 MIQ B 502       9.066  -9.887 -22.459  1.00142.77     0.171 HD
HETATM   17  C21 MIQ B 502       8.575 -10.078 -24.529  1.00142.22     0.224 C 
HETATM   18  C22 MIQ B 502       7.368  -9.734 -25.380  1.00139.52     0.106 C 
HETATM   19  O24 MIQ B 502       9.640 -10.265 -25.005  1.00146.13    -0.273 OA
HETATM   20  C23 MIQ B 502       6.317 -10.788 -25.084  1.00139.15     0.045 C 
ENDBRANCH  10  12
BRANCH   5  21
HETATM   21  N6  MIQ B 502       0.457  -6.383 -21.509  1.00140.95    -0.377 N 
HETATM   22  C7  MIQ B 502       1.213  -5.142 -21.478  1.00142.12     0.149 C 
HETATM   23  C8  MIQ B 502       0.629  -4.146 -20.485  1.00144.10     0.187 C 
HETATM   24  O9  MIQ B 502      -0.753  -3.999 -20.612  1.00148.65    -0.388 OA
HETATM   25  C10 MIQ B 502      -1.487  -4.873 -21.417  1.00147.44     0.187 C 
HETATM   26  C11 MIQ B 502      -0.992  -6.307 -21.578  1.00144.08     0.149 C 
ENDBRANCH   5  21
TORSDOF 2
ENDMDL
MODEL 7
REMARK VINA RESULT:      -5.9     19.361     22.306
REMARK  2 active torsions:
REMARK  status: ('A' for Active; 'I' for Inactive)
REMARK    1  A    between atoms: C5_5  and  N6_21 
REMARK    2  A    between atoms: C18_14  and  N17_19 
ROOT
HETATM    1  O1  MIQ B 502       1.181 -13.473 -24.382  1.00142.91    -0.171 OA
HETATM    2  C2  MIQ B 502       2.205 -13.389 -25.328  1.00141.17     0.195 A 
HETATM    3  C3  MIQ B 502       3.571 -12.654 -25.146  1.00141.71     0.035 A 
HETATM    4  C4  MIQ B 502       4.175 -11.889 -24.029  1.00142.86     0.046 A 
HETATM    5  C5  MIQ B 502       5.470 -11.326 -24.164  1.00139.53     0.031 A 
HETATM    6  C12 MIQ B 502       6.209 -11.504 -25.406  1.00139.38     0.030 A 
HETATM    7  C13 MIQ B 502       5.631 -12.239 -26.476  1.00141.18     0.019 A 
HETATM    8  C14 MIQ B 502       4.272 -12.829 -26.328  1.00138.77     0.033 A 
HETATM    9  C15 MIQ B 502       3.336 -13.676 -27.249  1.00142.10     0.195 A 
HETATM   10  N17 MIQ B 502       2.238 -13.902 -26.546  1.00139.42    -0.288 N 
HETATM   11  O16 MIQ B 502       3.607 -14.103 -28.551  1.00148.93    -0.171 OA
ENDROOT
BRANCH  10  12
HETATM   12  C18 MIQ B 502       1.127 -14.655 -27.097  1.00139.82     0.187 C 
HETATM   13  C19 MIQ B 502      -0.141 -13.810 -26.928  1.00140.06     0.247 C 
HETATM   14  O25 MIQ B 502      -0.141 -12.690 -27.299  1.00143.95    -0.271 OA
HETATM   15  N20 MIQ B 502      -1.344 -14.349 -26.328  1.00140.02    -0.296 N 
HETATM   16  H13 MIQ B 502      -2.163 -13.785 -26.217  1.00142.77     0.171 HD
HETATM   17  C21 MIQ B 502      -1.317 -15.715 -25.872  1.00142.22     0.224 C 
HETATM   18  C22 MIQ B 502       0.003 -16.225 -25.328  1.00139.52     0.106 C 
HETATM   19  O24 MIQ B 502      -2.276 -16.404 -25.926  1.00146.13    -0.273 OA
HETATM   20  C23 MIQ B 502       1.030 -16.025 -26.428  1.00139.15     0.045 C 
ENDBRANCH  10  12
BRANCH   5  21
HETATM   21  N6  MIQ B 502       6.043 -10.566 -23.069  1.00140.95    -0.377 N 
HETATM   22  C7  MIQ B 502       5.186 -10.198 -21.955  1.00142.12     0.149 C 
HETATM   23  C8  MIQ B 502       5.674  -8.937 -21.254  1.00144.10     0.187 C 
HETATM   24  O9  MIQ B 502       7.041  -8.967 -20.970  1.00148.65    -0.388 OA
HETATM   25  C10 MIQ B 502       7.853  -9.969 -21.509  1.00147.44     0.187 C 
HETATM   26  C11 MIQ B 502       7.481 -10.559 -22.865  1.00144.08     0.149 C 
ENDBRANCH   5  21
TORSDOF 2
ENDMDL
MODEL 8
REMARK VINA RESULT:      -5.9     13.331     15.271
REMARK  2 active torsions:
REMARK  status: ('A' for Active; 'I' for Inactive)
REMARK    1  A    between atoms: C5_5  and  N6_21 
REMARK    2  A    between atoms: C18_14  and  N17_19 
ROOT
HETATM    1  O1  MIQ B 502      12.621 -28.947 -19.697  1.00142.91    -0.171 OA
HETATM    2  C2  MIQ B 502      12.993 -27.688 -19.222  1.00141.17     0.195 A 
HETATM    3  C3  MIQ B 502      13.182 -27.285 -17.725  1.00141.71     0.035 A 
HETATM    4  C4  MIQ B 502      13.048 -28.023 -16.446  1.00142.86     0.046 A 
HETATM    5  C5  MIQ B 502      13.293 -27.369 -15.212  1.00139.53     0.031 A 
HETATM    6  C12 MIQ B 502      13.679 -25.965 -15.203  1.00139.38     0.030 A 
HETATM    7  C13 MIQ B 502      13.809 -25.258 -16.428  1.00141.18     0.019 A 
HETATM    8  C14 MIQ B 502      13.552 -25.950 -17.721  1.00138.77     0.033 A 
HETATM    9  C15 MIQ B 502      13.595 -25.522 -19.224  1.00142.10     0.195 A 
HETATM   10  N17 MIQ B 502      13.263 -26.597 -19.919  1.00139.42    -0.288 N 
HETATM   11  O16 MIQ B 502      13.915 -24.259 -19.724  1.00148.93    -0.171 OA
ENDROOT
BRANCH  10  12
HETATM   12  C18 MIQ B 502      13.182 -26.567 -21.368  1.00139.82     0.187 C 
HETATM   13  C19 MIQ B 502      14.512 -26.018 -21.899  1.00140.06     0.247 C 
HETATM   14  O25 MIQ B 502      15.523 -26.496 -21.525  1.00143.95    -0.271 OA
HETATM   15  N20 MIQ B 502      14.561 -24.931 -22.855  1.00140.02    -0.296 N 
HETATM   16  H13 MIQ B 502      15.436 -24.577 -23.190  1.00142.77     0.171 HD
HETATM   17  C21 MIQ B 502      13.314 -24.357 -23.289  1.00142.22     0.224 C 
HETATM   18  C22 MIQ B 502      12.191 -24.318 -22.271  1.00139.52     0.106 C 
HETATM   19  O24 MIQ B 502      13.173 -23.942 -24.387  1.00146.13    -0.273 OA
HETATM   20  C23 MIQ B 502      11.972 -25.749 -21.815  1.00139.15     0.045 C 
ENDBRANCH  10  12
BRANCH   5  21
HETATM   21  N6  MIQ B 502      13.144 -28.100 -13.967  1.00140.95    -0.377 N 
HETATM   22  C7  MIQ B 502      12.461 -27.453 -12.860  1.00142.12     0.149 C 
HETATM   23  C8  MIQ B 502      12.920 -27.998 -11.513  1.00144.10     0.187 C 
HETATM   24  O9  MIQ B 502      12.938 -29.394 -11.470  1.00148.65    -0.388 OA
HETATM   25  C10 MIQ B 502      12.772 -30.140 -12.639  1.00147.44     0.187 C 
HETATM   26  C11 MIQ B 502      13.257 -29.548 -13.958  1.00144.08     0.149 C 
ENDBRANCH   5  21
TORSDOF 2
ENDMDL
MODEL 9
REMARK VINA RESULT:      -5.8     13.760     17.431
REMARK  2 active torsions:
REMARK  status: ('A' for Active; 'I' for Inactive)
REMARK    1  A    between atoms: C5_5  and  N6_21 
REMARK    2  A    between atoms: C18_14  and  N17_19 
ROOT
HETATM    1  O1  MIQ B 502      -0.419 -23.895 -16.989  1.00142.91    -0.171 OA
HETATM    2  C2  MIQ B 502      -1.303 -23.144 -17.766  1.00141.17     0.195 A 
HETATM    3  C3  MIQ B 502      -1.358 -21.586 -17.855  1.00141.71     0.035 A 
HETATM    4  C4  MIQ B 502      -0.575 -20.501 -17.218  1.00142.86     0.046 A 
HETATM    5  C5  MIQ B 502      -0.866 -19.143 -17.504  1.00139.53     0.031 A 
HETATM    6  C12 MIQ B 502      -1.941 -18.814 -18.430  1.00139.38     0.030 A 
HETATM    7  C13 MIQ B 502      -2.691 -19.854 -19.042  1.00141.18     0.019 A 
HETATM    8  C14 MIQ B 502      -2.379 -21.278 -18.739  1.00138.77     0.033 A 
HETATM    9  C15 MIQ B 502      -2.961 -22.653 -19.203  1.00142.10     0.195 A 
HETATM   10  N17 MIQ B 502      -2.254 -23.579 -18.575  1.00139.42    -0.288 N 
HETATM   11  O16 MIQ B 502      -4.014 -22.857 -20.096  1.00148.93    -0.171 OA
ENDROOT
BRANCH  10  12
HETATM   12  C18 MIQ B 502      -2.529 -24.992 -18.754  1.00139.82     0.187 C 
HETATM   13  C19 MIQ B 502      -2.661 -25.623 -17.362  1.00140.06     0.247 C 
HETATM   14  O25 MIQ B 502      -3.386 -25.130 -16.573  1.00143.95    -0.271 OA
HETATM   15  N20 MIQ B 502      -1.924 -26.813 -16.990  1.00140.02    -0.296 N 
HETATM   16  H13 MIQ B 502      -2.014 -27.211 -16.076  1.00142.77     0.171 HD
HETATM   17  C21 MIQ B 502      -1.037 -27.391 -17.967  1.00142.22     0.224 C 
HETATM   18  C22 MIQ B 502      -0.344 -26.427 -18.911  1.00139.52     0.106 C 
HETATM   19  O24 MIQ B 502      -0.864 -28.558 -18.031  1.00146.13    -0.273 OA
HETATM   20  C23 MIQ B 502      -1.440 -25.642 -19.607  1.00139.15     0.045 C 
ENDBRANCH  10  12
BRANCH   5  21
HETATM   21  N6  MIQ B 502      -0.101 -18.090 -16.862  1.00140.95    -0.377 N 
HETATM   22  C7  MIQ B 502       0.788 -17.281 -17.677  1.00142.12     0.149 C 
HETATM   23  C8  MIQ B 502       1.944 -16.711 -16.865  1.00144.10     0.187 C 
HETATM   24  O9  MIQ B 502       1.529 -16.121 -15.669  1.00148.65    -0.388 OA
HETATM   25  C10 MIQ B 502       0.216 -16.282 -15.219  1.00147.44     0.187 C 
HETATM   26  C11 MIQ B 502      -0.525 -17.567 -15.575  1.00144.08     0.149 C 
ENDBRANCH   5  21
TORSDOF 2
ENDMDL
