MODEL 1
REMARK VINA RESULT:      -7.1      0.000      0.000
REMARK  2 active torsions:
REMARK  status: ('A' for Active; 'I' for Inactive)
REMARK    1  A    between atoms: C5_5  and  N6_21 
REMARK    2  A    between atoms: C18_14  and  N17_19 
ROOT
HETATM    1  O1  MIQ B 502      -8.218 -14.056  10.746  1.00142.91    -0.171 OA
HETATM    2  C2  MIQ B 502      -6.960 -13.933  10.152  1.00141.17     0.195 A 
HETATM    3  C3  MIQ B 502      -6.617 -14.207   8.653  1.00141.71     0.035 A 
HETATM    4  C4  MIQ B 502      -7.422 -14.639   7.486  1.00142.86     0.046 A 
HETATM    5  C5  MIQ B 502      -6.812 -14.805   6.217  1.00139.53     0.031 A 
HETATM    6  C12 MIQ B 502      -5.388 -14.548   6.060  1.00139.38     0.030 A 
HETATM    7  C13 MIQ B 502      -4.616 -14.133   7.179  1.00141.18     0.019 A 
HETATM    8  C14 MIQ B 502      -5.262 -13.958   8.508  1.00138.77     0.033 A 
HETATM    9  C15 MIQ B 502      -4.761 -13.527   9.925  1.00142.10     0.195 A 
HETATM   10  N17 MIQ B 502      -5.822 -13.563  10.714  1.00139.42    -0.288 N 
HETATM   11  O16 MIQ B 502      -3.457 -13.178  10.280  1.00148.93    -0.171 OA
ENDROOT
BRANCH  10  12
HETATM   12  C18 MIQ B 502      -5.728 -13.233  12.125  1.00139.82     0.187 C 
HETATM   13  C19 MIQ B 502      -6.411 -14.358  12.914  1.00140.06     0.247 C 
HETATM   14  O25 MIQ B 502      -6.106 -15.477  12.702  1.00143.95    -0.271 OA
HETATM   15  N20 MIQ B 502      -7.418 -14.083  13.918  1.00140.02    -0.296 N 
HETATM   16  H13 MIQ B 502      -7.861 -14.826  14.422  1.00142.77     0.171 HD
HETATM   17  C21 MIQ B 502      -7.781 -12.709  14.151  1.00142.22     0.224 C 
HETATM   18  C22 MIQ B 502      -7.745 -11.782  12.952  1.00139.52     0.106 C 
HETATM   19  O24 MIQ B 502      -8.086 -12.325  15.226  1.00146.13    -0.273 OA
HETATM   20  C23 MIQ B 502      -6.337 -11.857  12.390  1.00139.15     0.045 C 
ENDBRANCH  10  12
BRANCH   5  21
HETATM   21  N6  MIQ B 502      -7.610 -15.243   5.086  1.00140.95    -0.377 N 
HETATM   22  C7  MIQ B 502      -7.291 -14.722   3.768  1.00142.12     0.149 C 
HETATM   23  C8  MIQ B 502      -8.506 -14.718   2.849  1.00144.10     0.187 C 
HETATM   24  O9  MIQ B 502      -9.200 -15.929   2.860  1.00148.65    -0.388 OA
HETATM   25  C10 MIQ B 502      -8.897 -16.909   3.808  1.00147.44     0.187 C 
HETATM   26  C11 MIQ B 502      -8.385 -16.468   5.175  1.00144.08     0.149 C 
ENDBRANCH   5  21
TORSDOF 2
ENDMDL
MODEL 2
REMARK VINA RESULT:      -6.9     16.792     19.977
REMARK  2 active torsions:
REMARK  status: ('A' for Active; 'I' for Inactive)
REMARK    1  A    between atoms: C5_5  and  N6_21 
REMARK    2  A    between atoms: C18_14  and  N17_19 
ROOT
HETATM    1  O1  MIQ B 502      12.216 -11.429  16.472  1.00142.91    -0.171 OA
HETATM    2  C2  MIQ B 502      11.611 -10.504  15.619  1.00141.17     0.195 A 
HETATM    3  C3  MIQ B 502      10.109 -10.076  15.639  1.00141.71     0.035 A 
HETATM    4  C4  MIQ B 502       8.951 -10.462  16.479  1.00142.86     0.046 A 
HETATM    5  C5  MIQ B 502       7.676  -9.885  16.252  1.00139.53     0.031 A 
HETATM    6  C12 MIQ B 502       7.506  -8.906  15.187  1.00139.38     0.030 A 
HETATM    7  C13 MIQ B 502       8.616  -8.535  14.383  1.00141.18     0.019 A 
HETATM    8  C14 MIQ B 502       9.953  -9.143  14.627  1.00138.77     0.033 A 
HETATM    9  C15 MIQ B 502      11.366  -8.990  13.976  1.00142.10     0.195 A 
HETATM   10  N17 MIQ B 502      12.165  -9.807  14.642  1.00139.42    -0.288 N 
HETATM   11  O16 MIQ B 502      11.708  -8.160  12.907  1.00148.93    -0.171 OA
ENDROOT
BRANCH  10  12
HETATM   12  C18 MIQ B 502      13.568  -9.941  14.297  1.00139.82     0.187 C 
HETATM   13  C19 MIQ B 502      14.189  -8.539  14.310  1.00140.06     0.247 C 
HETATM   14  O25 MIQ B 502      14.032  -7.848  15.253  1.00143.95    -0.271 OA
HETATM   15  N20 MIQ B 502      14.971  -8.040  13.197  1.00140.02    -0.296 N 
HETATM   16  H13 MIQ B 502      15.365  -7.120  13.215  1.00142.77     0.171 HD
HETATM   17  C21 MIQ B 502      15.141  -8.898  12.053  1.00142.22     0.224 C 
HETATM   18  C22 MIQ B 502      13.984  -9.819  11.715  1.00139.52     0.106 C 
HETATM   19  O24 MIQ B 502      16.135  -8.887  11.415  1.00146.13    -0.273 OA
HETATM   20  C23 MIQ B 502      13.720 -10.654  12.954  1.00139.15     0.045 C 
ENDBRANCH  10  12
BRANCH   5  21
HETATM   21  N6  MIQ B 502       6.547 -10.283  17.072  1.00140.95    -0.377 N 
HETATM   22  C7  MIQ B 502       5.211  -9.902  16.648  1.00142.12     0.149 C 
HETATM   23  C8  MIQ B 502       4.250  -9.792  17.825  1.00144.10     0.187 C 
HETATM   24  O9  MIQ B 502       4.313 -10.892  18.682  1.00148.65    -0.388 OA
HETATM   25  C10 MIQ B 502       5.332 -11.838  18.546  1.00147.44     0.187 C 
HETATM   26  C11 MIQ B 502       6.686 -11.380  18.014  1.00144.08     0.149 C 
ENDBRANCH   5  21
TORSDOF 2
ENDMDL
MODEL 3
REMARK VINA RESULT:      -6.9      3.560      4.370
REMARK  2 active torsions:
REMARK  status: ('A' for Active; 'I' for Inactive)
REMARK    1  A    between atoms: C5_5  and  N6_21 
REMARK    2  A    between atoms: C18_14  and  N17_19 
ROOT
HETATM    1  O1  MIQ B 502      -5.905 -15.392  11.703  1.00142.91    -0.171 OA
HETATM    2  C2  MIQ B 502      -6.342 -15.084  10.412  1.00141.17     0.195 A 
HETATM    3  C3  MIQ B 502      -6.892 -16.098   9.359  1.00141.71     0.035 A 
HETATM    4  C4  MIQ B 502      -7.114 -17.564   9.374  1.00142.86     0.046 A 
HETATM    5  C5  MIQ B 502      -7.642 -18.220   8.234  1.00139.53     0.031 A 
HETATM    6  C12 MIQ B 502      -7.970 -17.449   7.043  1.00139.38     0.030 A 
HETATM    7  C13 MIQ B 502      -7.759 -16.044   7.029  1.00141.18     0.019 A 
HETATM    8  C14 MIQ B 502      -7.206 -15.360   8.230  1.00138.77     0.033 A 
HETATM    9  C15 MIQ B 502      -6.849 -13.879   8.584  1.00142.10     0.195 A 
HETATM   10  N17 MIQ B 502      -6.388 -13.902   9.824  1.00139.42    -0.288 N 
HETATM   11  O16 MIQ B 502      -6.988 -12.765   7.755  1.00148.93    -0.171 OA
ENDROOT
BRANCH  10  12
HETATM   12  C18 MIQ B 502      -5.940 -12.691  10.487  1.00139.82     0.187 C 
HETATM   13  C19 MIQ B 502      -4.544 -12.962  11.061  1.00140.06     0.247 C 
HETATM   14  O25 MIQ B 502      -3.710 -13.415  10.359  1.00143.95    -0.271 OA
HETATM   15  N20 MIQ B 502      -4.216 -12.673  12.442  1.00140.02    -0.296 N 
HETATM   16  H13 MIQ B 502      -3.303 -12.860  12.806  1.00142.77     0.171 HD
HETATM   17  C21 MIQ B 502      -5.253 -12.131  13.281  1.00142.22     0.224 C 
HETATM   18  C22 MIQ B 502      -6.670 -12.594  13.000  1.00139.52     0.106 C 
HETATM   19  O24 MIQ B 502      -5.011 -11.359  14.143  1.00146.13    -0.273 OA
HETATM   20  C23 MIQ B 502      -6.952 -12.259  11.547  1.00139.15     0.045 C 
ENDBRANCH  10  12
BRANCH   5  21
HETATM   21  N6  MIQ B 502      -7.840 -19.658   8.258  1.00140.95    -0.377 N 
HETATM   22  C7  MIQ B 502      -6.671 -20.520   8.248  1.00142.12     0.149 C 
HETATM   23  C8  MIQ B 502      -6.975 -21.884   7.641  1.00144.10     0.187 C 
HETATM   24  O9  MIQ B 502      -8.137 -22.461   8.156  1.00148.65    -0.388 OA
HETATM   25  C10 MIQ B 502      -9.003 -21.713   8.958  1.00147.44     0.187 C 
HETATM   26  C11 MIQ B 502      -9.101 -20.210   8.721  1.00144.08     0.149 C 
ENDBRANCH   5  21
TORSDOF 2
ENDMDL
MODEL 4
REMARK VINA RESULT:      -6.7     12.827     16.181
REMARK  2 active torsions:
REMARK  status: ('A' for Active; 'I' for Inactive)
REMARK    1  A    between atoms: C5_5  and  N6_21 
REMARK    2  A    between atoms: C18_14  and  N17_19 
ROOT
HETATM    1  O1  MIQ B 502      -6.605 -13.977  -5.712  1.00142.91    -0.171 OA
HETATM    2  C2  MIQ B 502      -7.594 -14.961  -5.776  1.00141.17     0.195 A 
HETATM    3  C3  MIQ B 502      -7.620 -16.180  -6.752  1.00141.71     0.035 A 
HETATM    4  C4  MIQ B 502      -6.705 -16.651  -7.818  1.00142.86     0.046 A 
HETATM    5  C5  MIQ B 502      -7.005 -17.826  -8.553  1.00139.53     0.031 A 
HETATM    6  C12 MIQ B 502      -8.219 -18.573  -8.257  1.00139.38     0.030 A 
HETATM    7  C13 MIQ B 502      -9.097 -18.122  -7.234  1.00141.18     0.019 A 
HETATM    8  C14 MIQ B 502      -8.775 -16.889  -6.465  1.00138.77     0.033 A 
HETATM    9  C15 MIQ B 502      -9.469 -16.106  -5.303  1.00142.10     0.195 A 
HETATM   10  N17 MIQ B 502      -8.687 -15.072  -5.041  1.00139.42    -0.288 N 
HETATM   11  O16 MIQ B 502     -10.672 -16.435  -4.675  1.00148.93    -0.171 OA
ENDROOT
BRANCH  10  12
HETATM   12  C18 MIQ B 502      -9.029 -14.105  -4.015  1.00139.82     0.187 C 
HETATM   13  C19 MIQ B 502      -9.201 -12.741  -4.696  1.00140.06     0.247 C 
HETATM   14  O25 MIQ B 502      -9.906 -12.653  -5.638  1.00143.95    -0.271 OA
HETATM   15  N20 MIQ B 502      -8.525 -11.555  -4.212  1.00140.02    -0.296 N 
HETATM   16  H13 MIQ B 502      -8.640 -10.672  -4.670  1.00142.77     0.171 HD
HETATM   17  C21 MIQ B 502      -7.661 -11.690  -3.068  1.00142.22     0.224 C 
HETATM   18  C22 MIQ B 502      -6.916 -13.004  -2.929  1.00139.52     0.106 C 
HETATM   19  O24 MIQ B 502      -7.545 -10.822  -2.275  1.00146.13    -0.273 OA
HETATM   20  C23 MIQ B 502      -7.968 -14.098  -2.916  1.00139.15     0.045 C 
ENDBRANCH  10  12
BRANCH   5  21
HETATM   21  N6  MIQ B 502      -6.107 -18.268  -9.604  1.00140.95    -0.377 N 
HETATM   22  C7  MIQ B 502      -5.798 -17.349 -10.686  1.00142.12     0.149 C 
HETATM   23  C8  MIQ B 502      -5.425 -18.084 -11.967  1.00144.10     0.187 C 
HETATM   24  O9  MIQ B 502      -4.487 -19.097 -11.759  1.00148.65    -0.388 OA
HETATM   25  C10 MIQ B 502      -4.152 -19.496 -10.463  1.00147.44     0.187 C 
HETATM   26  C11 MIQ B 502      -5.208 -19.385  -9.369  1.00144.08     0.149 C 
ENDBRANCH   5  21
TORSDOF 2
ENDMDL
MODEL 5
REMARK VINA RESULT:      -6.5      3.558      5.553
REMARK  2 active torsions:
REMARK  status: ('A' for Active; 'I' for Inactive)
REMARK    1  A    between atoms: C5_5  and  N6_21 
REMARK    2  A    between atoms: C18_14  and  N17_19 
ROOT
HETATM    1  O1  MIQ B 502      -9.896 -13.336  11.119  1.00142.91    -0.171 OA
HETATM    2  C2  MIQ B 502      -8.924 -12.824  11.981  1.00141.17     0.195 A 
HETATM    3  C3  MIQ B 502      -7.391 -12.733  11.693  1.00141.71     0.035 A 
HETATM    4  C4  MIQ B 502      -6.548 -13.113  10.535  1.00142.86     0.046 A 
HETATM    5  C5  MIQ B 502      -5.146 -12.900  10.569  1.00139.53     0.031 A 
HETATM    6  C12 MIQ B 502      -4.534 -12.303  11.747  1.00139.38     0.030 A 
HETATM    7  C13 MIQ B 502      -5.343 -11.937  12.857  1.00141.18     0.019 A 
HETATM    8  C14 MIQ B 502      -6.814 -12.162  12.815  1.00138.77     0.033 A 
HETATM    9  C15 MIQ B 502      -7.994 -11.896  13.805  1.00142.10     0.195 A 
HETATM   10  N17 MIQ B 502      -9.088 -12.316  13.191  1.00139.42    -0.288 N 
HETATM   11  O16 MIQ B 502      -7.906 -11.333  15.079  1.00148.93    -0.171 OA
ENDROOT
BRANCH  10  12
HETATM   12  C18 MIQ B 502     -10.390 -12.240  13.825  1.00139.82     0.187 C 
HETATM   13  C19 MIQ B 502     -11.040 -13.625  13.729  1.00140.06     0.247 C 
HETATM   14  O25 MIQ B 502     -10.432 -14.572  14.084  1.00143.95    -0.271 OA
HETATM   15  N20 MIQ B 502     -12.384 -13.805  13.219  1.00140.02    -0.296 N 
HETATM   16  H13 MIQ B 502     -12.794 -14.716  13.155  1.00142.77     0.171 HD
HETATM   17  C21 MIQ B 502     -13.102 -12.636  12.782  1.00142.22     0.224 C 
HETATM   18  C22 MIQ B 502     -12.279 -11.525  12.158  1.00139.52     0.106 C 
HETATM   19  O24 MIQ B 502     -14.273 -12.546  12.911  1.00146.13    -0.273 OA
HETATM   20  C23 MIQ B 502     -11.230 -11.136  13.184  1.00139.15     0.045 C 
ENDBRANCH  10  12
BRANCH   5  21
HETATM   21  N6  MIQ B 502      -4.330 -13.291   9.434  1.00140.95    -0.377 N 
HETATM   22  C7  MIQ B 502      -3.062 -13.953   9.685  1.00142.12     0.149 C 
HETATM   23  C8  MIQ B 502      -2.068 -13.726   8.554  1.00144.10     0.187 C 
HETATM   24  O9  MIQ B 502      -2.619 -13.953   7.291  1.00148.65    -0.388 OA
HETATM   25  C10 MIQ B 502      -3.997 -14.133   7.143  1.00147.44     0.187 C 
HETATM   26  C11 MIQ B 502      -4.934 -13.431   8.120  1.00144.08     0.149 C 
ENDBRANCH   5  21
TORSDOF 2
ENDMDL
MODEL 6
REMARK VINA RESULT:      -6.5     12.369     18.805
REMARK  2 active torsions:
REMARK  status: ('A' for Active; 'I' for Inactive)
REMARK    1  A    between atoms: C5_5  and  N6_21 
REMARK    2  A    between atoms: C18_14  and  N17_19 
ROOT
HETATM    1  O1  MIQ B 502      -9.707 -16.637  -9.151  1.00142.91    -0.171 OA
HETATM    2  C2  MIQ B 502      -8.360 -16.799  -8.821  1.00141.17     0.195 A 
HETATM    3  C3  MIQ B 502      -7.632 -16.180  -7.586  1.00141.71     0.035 A 
HETATM    4  C4  MIQ B 502      -8.077 -15.312  -6.470  1.00142.86     0.046 A 
HETATM    5  C5  MIQ B 502      -7.160 -14.904  -5.469  1.00139.53     0.031 A 
HETATM    6  C12 MIQ B 502      -5.773 -15.342  -5.538  1.00139.38     0.030 A 
HETATM    7  C13 MIQ B 502      -5.346 -16.176  -6.606  1.00141.18     0.019 A 
HETATM    8  C14 MIQ B 502      -6.314 -16.603  -7.654  1.00138.77     0.033 A 
HETATM    9  C15 MIQ B 502      -6.224 -17.489  -8.938  1.00142.10     0.195 A 
HETATM   10  N17 MIQ B 502      -7.438 -17.496  -9.463  1.00139.42    -0.288 N 
HETATM   11  O16 MIQ B 502      -5.089 -18.137  -9.428  1.00148.93    -0.171 OA
ENDROOT
BRANCH  10  12
HETATM   12  C18 MIQ B 502      -7.729 -18.216 -10.689  1.00139.82     0.187 C 
HETATM   13  C19 MIQ B 502      -8.286 -17.208 -11.702  1.00140.06     0.247 C 
HETATM   14  O25 MIQ B 502      -7.692 -16.210 -11.908  1.00143.95    -0.271 OA
HETATM   15  N20 MIQ B 502      -9.521 -17.450 -12.419  1.00140.02    -0.296 N 
HETATM   16  H13 MIQ B 502      -9.878 -16.781 -13.073  1.00142.77     0.171 HD
HETATM   17  C21 MIQ B 502     -10.234 -18.671 -12.143  1.00142.22     0.224 C 
HETATM   18  C22 MIQ B 502     -10.156 -19.199 -10.724  1.00139.52     0.106 C 
HETATM   19  O24 MIQ B 502     -10.844 -19.234 -12.985  1.00146.13    -0.273 OA
HETATM   20  C23 MIQ B 502      -8.682 -19.378 -10.410  1.00139.15     0.045 C 
ENDBRANCH  10  12
BRANCH   5  21
HETATM   21  N6  MIQ B 502      -7.606 -14.041  -4.390  1.00140.95    -0.377 N 
HETATM   22  C7  MIQ B 502      -8.471 -12.919  -4.711  1.00142.12     0.149 C 
HETATM   23  C8  MIQ B 502      -8.336 -11.789  -3.698  1.00144.10     0.187 C 
HETATM   24  O9  MIQ B 502      -8.401 -12.234  -2.376  1.00148.65    -0.388 OA
HETATM   25  C10 MIQ B 502      -8.356 -13.600  -2.086  1.00147.44     0.187 C 
HETATM   26  C11 MIQ B 502      -7.574 -14.519  -3.019  1.00144.08     0.149 C 
ENDBRANCH   5  21
TORSDOF 2
ENDMDL
MODEL 7
REMARK VINA RESULT:      -6.5      3.866      4.985
REMARK  2 active torsions:
REMARK  status: ('A' for Active; 'I' for Inactive)
REMARK    1  A    between atoms: C5_5  and  N6_21 
REMARK    2  A    between atoms: C18_14  and  N17_19 
ROOT
HETATM    1  O1  MIQ B 502      -6.218 -15.044  13.260  1.00142.91    -0.171 OA
HETATM    2  C2  MIQ B 502      -6.285 -14.896  11.873  1.00141.17     0.195 A 
HETATM    3  C3  MIQ B 502      -6.128 -16.035  10.815  1.00141.71     0.035 A 
HETATM    4  C4  MIQ B 502      -5.885 -17.494  10.917  1.00142.86     0.046 A 
HETATM    5  C5  MIQ B 502      -5.789 -18.288   9.746  1.00139.53     0.031 A 
HETATM    6  C12 MIQ B 502      -5.931 -17.665   8.438  1.00139.38     0.030 A 
HETATM    7  C13 MIQ B 502      -6.164 -16.267   8.340  1.00141.18     0.019 A 
HETATM    8  C14 MIQ B 502      -6.266 -15.439   9.573  1.00138.77     0.033 A 
HETATM    9  C15 MIQ B 502      -6.512 -13.922   9.860  1.00142.10     0.195 A 
HETATM   10  N17 MIQ B 502      -6.495 -13.792  11.177  1.00139.42    -0.288 N 
HETATM   11  O16 MIQ B 502      -6.706 -12.913   8.915  1.00148.93    -0.171 OA
ENDROOT
BRANCH  10  12
HETATM   12  C18 MIQ B 502      -6.676 -12.501  11.813  1.00139.82     0.187 C 
HETATM   13  C19 MIQ B 502      -5.471 -12.257  12.729  1.00140.06     0.247 C 
HETATM   14  O25 MIQ B 502      -4.382 -12.385  12.293  1.00143.95    -0.271 OA
HETATM   15  N20 MIQ B 502      -5.630 -11.869  14.115  1.00140.02    -0.296 N 
HETATM   16  H13 MIQ B 502      -4.835 -11.719  14.704  1.00142.77     0.171 HD
HETATM   17  C21 MIQ B 502      -6.970 -11.730  14.626  1.00142.22     0.224 C 
HETATM   18  C22 MIQ B 502      -8.017 -12.667  14.056  1.00139.52     0.106 C 
HETATM   19  O24 MIQ B 502      -7.238 -10.922  15.446  1.00146.13    -0.273 OA
HETATM   20  C23 MIQ B 502      -8.012 -12.456  12.553  1.00139.15     0.045 C 
ENDBRANCH  10  12
BRANCH   5  21
HETATM   21  N6  MIQ B 502      -5.537 -19.712   9.860  1.00140.95    -0.377 N 
HETATM   22  C7  MIQ B 502      -5.427 -20.498   8.643  1.00142.12     0.149 C 
HETATM   23  C8  MIQ B 502      -5.807 -21.955   8.870  1.00144.10     0.187 C 
HETATM   24  O9  MIQ B 502      -5.191 -22.508   9.995  1.00148.65    -0.388 OA
HETATM   25  C10 MIQ B 502      -4.505 -21.693  10.899  1.00147.44     0.187 C 
HETATM   26  C11 MIQ B 502      -4.974 -20.254  11.085  1.00144.08     0.149 C 
ENDBRANCH   5  21
TORSDOF 2
ENDMDL
MODEL 8
REMARK VINA RESULT:      -6.5      2.211      8.052
REMARK  2 active torsions:
REMARK  status: ('A' for Active; 'I' for Inactive)
REMARK    1  A    between atoms: C5_5  and  N6_21 
REMARK    2  A    between atoms: C18_14  and  N17_19 
ROOT
HETATM    1  O1  MIQ B 502      -9.938 -14.590  10.398  1.00142.91    -0.171 OA
HETATM    2  C2  MIQ B 502      -8.630 -14.458   9.925  1.00141.17     0.195 A 
HETATM    3  C3  MIQ B 502      -7.436 -13.802  10.688  1.00141.71     0.035 A 
HETATM    4  C4  MIQ B 502      -7.302 -13.171  12.022  1.00142.86     0.046 A 
HETATM    5  C5  MIQ B 502      -6.053 -12.652  12.448  1.00139.53     0.031 A 
HETATM    6  C12 MIQ B 502      -4.896 -12.740  11.568  1.00139.38     0.030 A 
HETATM    7  C13 MIQ B 502      -5.024 -13.346  10.289  1.00141.18     0.019 A 
HETATM    8  C14 MIQ B 502      -6.337 -13.892   9.849  1.00138.77     0.033 A 
HETATM    9  C15 MIQ B 502      -6.852 -14.609   8.558  1.00142.10     0.195 A 
HETATM   10  N17 MIQ B 502      -8.135 -14.855   8.765  1.00139.42    -0.288 N 
HETATM   11  O16 MIQ B 502      -6.105 -14.921   7.421  1.00148.93    -0.171 OA
ENDROOT
BRANCH  10  12
HETATM   12  C18 MIQ B 502      -8.953 -15.507   7.759  1.00139.82     0.187 C 
HETATM   13  C19 MIQ B 502      -8.305 -16.858   7.433  1.00140.06     0.247 C 
HETATM   14  O25 MIQ B 502      -8.025 -17.590   8.314  1.00143.95    -0.271 OA
HETATM   15  N20 MIQ B 502      -8.032 -17.265   6.070  1.00140.02    -0.296 N 
HETATM   16  H13 MIQ B 502      -7.603 -18.147   5.870  1.00142.77     0.171 HD
HETATM   17  C21 MIQ B 502      -8.373 -16.349   5.011  1.00142.22     0.224 C 
HETATM   18  C22 MIQ B 502      -8.241 -14.871   5.321  1.00139.52     0.106 C 
HETATM   19  O24 MIQ B 502      -8.743 -16.734   3.957  1.00146.13    -0.273 OA
HETATM   20  C23 MIQ B 502      -9.110 -14.605   6.536  1.00139.15     0.045 C 
ENDBRANCH  10  12
BRANCH   5  21
HETATM   21  N6  MIQ B 502      -5.941 -12.023  13.751  1.00140.95    -0.377 N 
HETATM   22  C7  MIQ B 502      -7.040 -12.166  14.689  1.00142.12     0.149 C 
HETATM   23  C8  MIQ B 502      -7.103 -11.006  15.674  1.00144.10     0.187 C 
HETATM   24  O9  MIQ B 502      -5.864 -10.713  16.248  1.00148.65    -0.388 OA
HETATM   25  C10 MIQ B 502      -4.697 -11.301  15.751  1.00147.44     0.187 C 
HETATM   26  C11 MIQ B 502      -4.634 -11.657  14.269  1.00144.08     0.149 C 
ENDBRANCH   5  21
TORSDOF 2
ENDMDL
MODEL 9
REMARK VINA RESULT:      -6.5     13.499     17.589
REMARK  2 active torsions:
REMARK  status: ('A' for Active; 'I' for Inactive)
REMARK    1  A    between atoms: C5_5  and  N6_21 
REMARK    2  A    between atoms: C18_14  and  N17_19 
ROOT
HETATM    1  O1  MIQ B 502      -8.550 -17.042  -8.831  1.00142.91    -0.171 OA
HETATM    2  C2  MIQ B 502      -7.768 -16.763  -7.708  1.00141.17     0.195 A 
HETATM    3  C3  MIQ B 502      -8.289 -16.556  -6.250  1.00141.71     0.035 A 
HETATM    4  C4  MIQ B 502      -9.638 -16.585  -5.636  1.00142.86     0.046 A 
HETATM    5  C5  MIQ B 502      -9.797 -16.354  -4.246  1.00139.53     0.031 A 
HETATM    6  C12 MIQ B 502      -8.629 -16.088  -3.419  1.00139.38     0.030 A 
HETATM    7  C13 MIQ B 502      -7.336 -16.062  -4.007  1.00141.18     0.019 A 
HETATM    8  C14 MIQ B 502      -7.174 -16.307  -5.466  1.00138.77     0.033 A 
HETATM    9  C15 MIQ B 502      -5.954 -16.361  -6.443  1.00142.10     0.195 A 
HETATM   10  N17 MIQ B 502      -6.455 -16.625  -7.638  1.00139.42    -0.288 N 
HETATM   11  O16 MIQ B 502      -4.612 -16.166  -6.115  1.00148.93    -0.171 OA
ENDROOT
BRANCH  10  12
HETATM   12  C18 MIQ B 502      -5.604 -16.734  -8.809  1.00139.82     0.187 C 
HETATM   13  C19 MIQ B 502      -6.168 -15.799  -9.886  1.00140.06     0.247 C 
HETATM   14  O25 MIQ B 502      -6.395 -14.675  -9.610  1.00143.95    -0.271 OA
HETATM   15  N20 MIQ B 502      -6.423 -16.256 -11.236  1.00140.02    -0.296 N 
HETATM   16  H13 MIQ B 502      -6.798 -15.637 -11.928  1.00142.77     0.171 HD
HETATM   17  C21 MIQ B 502      -6.147 -17.635 -11.545  1.00142.22     0.224 C 
HETATM   18  C22 MIQ B 502      -6.370 -18.640 -10.432  1.00139.52     0.106 C 
HETATM   19  O24 MIQ B 502      -5.761 -17.963 -12.613  1.00146.13    -0.273 OA
HETATM   20  C23 MIQ B 502      -5.512 -18.189  -9.265  1.00139.15     0.045 C 
ENDBRANCH  10  12
BRANCH   5  21
HETATM   21  N6  MIQ B 502     -11.126 -16.370  -3.661  1.00140.95    -0.377 N 
HETATM   22  C7  MIQ B 502     -11.290 -16.922  -2.327  1.00142.12     0.149 C 
HETATM   23  C8  MIQ B 502     -12.696 -17.464  -2.105  1.00144.10     0.187 C 
HETATM   24  O9  MIQ B 502     -13.692 -16.572  -2.509  1.00148.65    -0.388 OA
HETATM   25  C10 MIQ B 502     -13.364 -15.431  -3.245  1.00147.44     0.187 C 
HETATM   26  C11 MIQ B 502     -12.155 -15.483  -4.173  1.00144.08     0.149 C 
ENDBRANCH   5  21
TORSDOF 2
ENDMDL
