MODEL 1
REMARK VINA RESULT:      -5.9      0.000      0.000
REMARK  2 active torsions:
REMARK  status: ('A' for Active; 'I' for Inactive)
REMARK    1  A    between atoms: C5_5  and  N6_21 
REMARK    2  A    between atoms: C18_14  and  N17_19 
ROOT
HETATM    1  O1  MIQ B 502      12.012  14.234 -18.088  1.00142.91    -0.171 OA
HETATM    2  C2  MIQ B 502      12.169  14.338 -16.704  1.00141.17     0.195 A 
HETATM    3  C3  MIQ B 502      12.963  15.450 -15.946  1.00141.71     0.035 A 
HETATM    4  C4  MIQ B 502      13.729  16.638 -16.392  1.00142.86     0.046 A 
HETATM    5  C5  MIQ B 502      14.356  17.484 -15.442  1.00139.53     0.031 A 
HETATM    6  C12 MIQ B 502      14.245  17.183 -14.022  1.00139.38     0.030 A 
HETATM    7  C13 MIQ B 502      13.510  16.045 -13.595  1.00141.18     0.019 A 
HETATM    8  C14 MIQ B 502      12.852  15.161 -14.596  1.00138.77     0.033 A 
HETATM    9  C15 MIQ B 502      11.983  13.864 -14.515  1.00142.10     0.195 A 
HETATM   10  N17 MIQ B 502      11.688  13.543 -15.763  1.00139.42    -0.288 N 
HETATM   11  O16 MIQ B 502      11.602  13.185 -13.356  1.00148.93    -0.171 OA
ENDROOT
BRANCH  10  12
HETATM   12  C18 MIQ B 502      10.896  12.368 -16.077  1.00139.82     0.187 C 
HETATM   13  C19 MIQ B 502       9.611  12.434 -15.241  1.00140.06     0.247 C 
HETATM   14  O25 MIQ B 502       8.963  13.419 -15.258  1.00143.95    -0.271 OA
HETATM   15  N20 MIQ B 502       9.167  11.316 -14.435  1.00140.02    -0.296 N 
HETATM   16  H13 MIQ B 502       8.330  11.374 -13.889  1.00142.77     0.171 HD
HETATM   17  C21 MIQ B 502       9.981  10.128 -14.422  1.00142.22     0.224 C 
HETATM   18  C22 MIQ B 502      11.479  10.327 -14.544  1.00139.52     0.106 C 
HETATM   19  O24 MIQ B 502       9.501   9.052 -14.327  1.00146.13    -0.273 OA
HETATM   20  C23 MIQ B 502      11.708  11.098 -15.831  1.00139.15     0.045 C 
ENDBRANCH  10  12
BRANCH   5  21
HETATM   21  N6  MIQ B 502      15.115  18.635 -15.894  1.00140.95    -0.377 N 
HETATM   22  C7  MIQ B 502      16.565  18.586 -15.815  1.00142.12     0.149 C 
HETATM   23  C8  MIQ B 502      17.176  19.975 -15.687  1.00144.10     0.187 C 
HETATM   24  O9  MIQ B 502      16.660  20.883 -16.613  1.00148.65    -0.388 OA
HETATM   25  C10 MIQ B 502      15.542  20.550 -17.383  1.00147.44     0.187 C 
HETATM   26  C11 MIQ B 502      14.505  19.601 -16.791  1.00144.08     0.149 C 
ENDBRANCH   5  21
TORSDOF 2
ENDMDL
MODEL 2
REMARK VINA RESULT:      -5.9      2.475      3.332
REMARK  2 active torsions:
REMARK  status: ('A' for Active; 'I' for Inactive)
REMARK    1  A    between atoms: C5_5  and  N6_21 
REMARK    2  A    between atoms: C18_14  and  N17_19 
ROOT
HETATM    1  O1  MIQ B 502      11.203  13.666 -18.131  1.00142.91    -0.171 OA
HETATM    2  C2  MIQ B 502      11.269  13.340 -16.774  1.00141.17     0.195 A 
HETATM    3  C3  MIQ B 502      12.094  14.095 -15.684  1.00141.71     0.035 A 
HETATM    4  C4  MIQ B 502      12.983  15.281 -15.717  1.00142.86     0.046 A 
HETATM    5  C5  MIQ B 502      13.607  15.743 -14.531  1.00139.53     0.031 A 
HETATM    6  C12 MIQ B 502      13.371  15.048 -13.273  1.00139.38     0.030 A 
HETATM    7  C13 MIQ B 502      12.518  13.913 -13.240  1.00141.18     0.019 A 
HETATM    8  C14 MIQ B 502      11.864  13.433 -14.489  1.00138.77     0.033 A 
HETATM    9  C15 MIQ B 502      10.890  12.262 -14.839  1.00142.10     0.195 A 
HETATM   10  N17 MIQ B 502      10.659  12.354 -16.138  1.00139.42    -0.288 N 
HETATM   11  O16 MIQ B 502      10.374  11.311 -13.956  1.00148.93    -0.171 OA
ENDROOT
BRANCH  10  12
HETATM   12  C18 MIQ B 502       9.800  11.408 -16.825  1.00139.82     0.187 C 
HETATM   13  C19 MIQ B 502      10.599  10.808 -17.987  1.00140.06     0.247 C 
HETATM   14  O25 MIQ B 502      11.670  10.359 -17.779  1.00143.95    -0.271 OA
HETATM   15  N20 MIQ B 502      10.074  10.771 -19.337  1.00140.02    -0.296 N 
HETATM   16  H13 MIQ B 502      10.609  10.382 -20.088  1.00142.77     0.171 HD
HETATM   17  C21 MIQ B 502       8.769  11.334 -19.568  1.00142.22     0.224 C 
HETATM   18  C22 MIQ B 502       8.383  12.530 -18.720  1.00139.52     0.106 C 
HETATM   19  O24 MIQ B 502       8.035  10.881 -20.377  1.00146.13    -0.273 OA
HETATM   20  C23 MIQ B 502       8.508  12.091 -17.273  1.00139.15     0.045 C 
ENDBRANCH  10  12
BRANCH   5  21
HETATM   21  N6  MIQ B 502      14.487  16.896 -14.581  1.00140.95    -0.377 N 
HETATM   22  C7  MIQ B 502      14.180  17.964 -15.517  1.00142.12     0.149 C 
HETATM   23  C8  MIQ B 502      15.427  18.734 -15.931  1.00144.10     0.187 C 
HETATM   24  O9  MIQ B 502      16.224  19.102 -14.845  1.00148.65    -0.388 OA
HETATM   25  C10 MIQ B 502      15.969  18.585 -13.572  1.00147.44     0.187 C 
HETATM   26  C11 MIQ B 502      15.362  17.190 -13.460  1.00144.08     0.149 C 
ENDBRANCH   5  21
TORSDOF 2
ENDMDL
MODEL 3
REMARK VINA RESULT:      -5.8      1.873      2.836
REMARK  2 active torsions:
REMARK  status: ('A' for Active; 'I' for Inactive)
REMARK    1  A    between atoms: C5_5  and  N6_21 
REMARK    2  A    between atoms: C18_14  and  N17_19 
ROOT
HETATM    1  O1  MIQ B 502      12.070  12.058 -13.872  1.00142.91    -0.171 OA
HETATM    2  C2  MIQ B 502      12.059  12.847 -15.024  1.00141.17     0.195 A 
HETATM    3  C3  MIQ B 502      12.841  14.182 -15.236  1.00141.71     0.035 A 
HETATM    4  C4  MIQ B 502      13.759  14.972 -14.381  1.00142.86     0.046 A 
HETATM    5  C5  MIQ B 502      14.330  16.176 -14.864  1.00139.53     0.031 A 
HETATM    6  C12 MIQ B 502      14.014  16.638 -16.207  1.00139.38     0.030 A 
HETATM    7  C13 MIQ B 502      13.135  15.881 -17.028  1.00141.18     0.019 A 
HETATM    8  C14 MIQ B 502      12.539  14.616 -16.516  1.00138.77     0.033 A 
HETATM    9  C15 MIQ B 502      11.565  13.544 -17.104  1.00142.10     0.195 A 
HETATM   10  N17 MIQ B 502      11.406  12.636 -16.155  1.00139.42    -0.288 N 
HETATM   11  O16 MIQ B 502      10.982  13.550 -18.372  1.00148.93    -0.171 OA
ENDROOT
BRANCH  10  12
HETATM   12  C18 MIQ B 502      10.543  11.485 -16.344  1.00139.82     0.187 C 
HETATM   13  C19 MIQ B 502       9.597  11.406 -15.139  1.00140.06     0.247 C 
HETATM   14  O25 MIQ B 502       8.989  12.365 -14.821  1.00143.95    -0.271 OA
HETATM   15  N20 MIQ B 502       9.425  10.183 -14.383  1.00140.02    -0.296 N 
HETATM   16  H13 MIQ B 502       8.809  10.146 -13.594  1.00142.77     0.171 HD
HETATM   17  C21 MIQ B 502      10.186   9.029 -14.784  1.00142.22     0.224 C 
HETATM   18  C22 MIQ B 502      11.567   9.288 -15.355  1.00139.52     0.106 C 
HETATM   19  O24 MIQ B 502       9.752   7.935 -14.679  1.00146.13    -0.273 OA
HETATM   20  C23 MIQ B 502      11.378  10.220 -16.537  1.00139.15     0.045 C 
ENDBRANCH  10  12
BRANCH   5  21
HETATM   21  N6  MIQ B 502      15.216  16.947 -14.010  1.00140.95    -0.377 N 
HETATM   22  C7  MIQ B 502      16.034  16.240 -13.039  1.00142.12     0.149 C 
HETATM   23  C8  MIQ B 502      16.384  17.118 -11.844  1.00144.10     0.187 C 
HETATM   24  O9  MIQ B 502      16.855  18.379 -12.216  1.00148.65    -0.388 OA
HETATM   25  C10 MIQ B 502      16.764  18.805 -13.544  1.00147.44     0.187 C 
HETATM   26  C11 MIQ B 502      15.610  18.290 -14.398  1.00144.08     0.149 C 
ENDBRANCH   5  21
TORSDOF 2
ENDMDL
MODEL 4
REMARK VINA RESULT:      -5.7      2.924      8.620
REMARK  2 active torsions:
REMARK  status: ('A' for Active; 'I' for Inactive)
REMARK    1  A    between atoms: C5_5  and  N6_21 
REMARK    2  A    between atoms: C18_14  and  N17_19 
ROOT
HETATM    1  O1  MIQ B 502      16.825  12.950 -14.041  1.00142.91    -0.171 OA
HETATM    2  C2  MIQ B 502      15.791  13.881 -13.926  1.00141.17     0.195 A 
HETATM    3  C3  MIQ B 502      14.261  13.572 -13.977  1.00141.71     0.035 A 
HETATM    4  C4  MIQ B 502      13.478  12.324 -14.142  1.00142.86     0.046 A 
HETATM    5  C5  MIQ B 502      12.061  12.361 -14.145  1.00139.53     0.031 A 
HETATM    6  C12 MIQ B 502      11.372  13.634 -13.985  1.00139.38     0.030 A 
HETATM    7  C13 MIQ B 502      12.121  14.830 -13.826  1.00141.18     0.019 A 
HETATM    8  C14 MIQ B 502      13.609  14.784 -13.821  1.00138.77     0.033 A 
HETATM    9  C15 MIQ B 502      14.741  15.853 -13.672  1.00142.10     0.195 A 
HETATM   10  N17 MIQ B 502      15.882  15.188 -13.750  1.00139.42    -0.288 N 
HETATM   11  O16 MIQ B 502      14.575  17.227 -13.495  1.00148.93    -0.171 OA
ENDROOT
BRANCH  10  12
HETATM   12  C18 MIQ B 502      17.161  15.868 -13.667  1.00139.82     0.187 C 
HETATM   13  C19 MIQ B 502      17.147  16.739 -12.404  1.00140.06     0.247 C 
HETATM   14  O25 MIQ B 502      16.839  16.254 -11.374  1.00143.95    -0.271 OA
HETATM   15  N20 MIQ B 502      17.509  18.141 -12.439  1.00140.02    -0.296 N 
HETATM   16  H13 MIQ B 502      17.489  18.700 -11.609  1.00142.77     0.171 HD
HETATM   17  C21 MIQ B 502      17.872  18.712 -13.710  1.00142.22     0.224 C 
HETATM   18  C22 MIQ B 502      17.163  18.161 -14.932  1.00139.52     0.106 C 
HETATM   19  O24 MIQ B 502      18.686  19.565 -13.794  1.00146.13    -0.273 OA
HETATM   20  C23 MIQ B 502      17.424  16.665 -14.943  1.00139.15     0.045 C 
ENDBRANCH  10  12
BRANCH   5  21
HETATM   21  N6  MIQ B 502      11.308  11.133 -14.323  1.00140.95    -0.377 N 
HETATM   22  C7  MIQ B 502       9.857  11.206 -14.353  1.00142.12     0.149 C 
HETATM   23  C8  MIQ B 502       9.212   9.903 -13.901  1.00144.10     0.187 C 
HETATM   24  O9  MIQ B 502       9.766   8.780 -14.518  1.00148.65    -0.388 OA
HETATM   25  C10 MIQ B 502      10.935   8.893 -15.275  1.00147.44     0.187 C 
HETATM   26  C11 MIQ B 502      11.952   9.962 -14.891  1.00144.08     0.149 C 
ENDBRANCH   5  21
TORSDOF 2
ENDMDL
MODEL 5
REMARK VINA RESULT:      -5.7      3.376      8.570
REMARK  2 active torsions:
REMARK  status: ('A' for Active; 'I' for Inactive)
REMARK    1  A    between atoms: C5_5  and  N6_21 
REMARK    2  A    between atoms: C18_14  and  N17_19 
ROOT
HETATM    1  O1  MIQ B 502      16.258  14.933 -11.904  1.00142.91    -0.171 OA
HETATM    2  C2  MIQ B 502      15.555  15.576 -12.925  1.00141.17     0.195 A 
HETATM    3  C3  MIQ B 502      14.369  14.977 -13.746  1.00141.71     0.035 A 
HETATM    4  C4  MIQ B 502      13.668  13.671 -13.720  1.00142.86     0.046 A 
HETATM    5  C5  MIQ B 502      12.597  13.415 -14.613  1.00139.53     0.031 A 
HETATM    6  C12 MIQ B 502      12.184  14.441 -15.560  1.00139.38     0.030 A 
HETATM    7  C13 MIQ B 502      12.855  15.693 -15.585  1.00141.18     0.019 A 
HETATM    8  C14 MIQ B 502      13.978  15.957 -14.644  1.00138.77     0.033 A 
HETATM    9  C15 MIQ B 502      14.925  17.172 -14.377  1.00142.10     0.195 A 
HETATM   10  N17 MIQ B 502      15.733  16.797 -13.398  1.00139.42    -0.288 N 
HETATM   11  O16 MIQ B 502      14.919  18.399 -15.042  1.00148.93    -0.171 OA
ENDROOT
BRANCH  10  12
HETATM   12  C18 MIQ B 502      16.769  17.678 -12.892  1.00139.82     0.187 C 
HETATM   13  C19 MIQ B 502      18.098  16.915 -12.943  1.00140.06     0.247 C 
HETATM   14  O25 MIQ B 502      18.420  16.388 -13.948  1.00143.95    -0.271 OA
HETATM   15  N20 MIQ B 502      18.974  16.827 -11.793  1.00140.02    -0.296 N 
HETATM   16  H13 MIQ B 502      19.836  16.321 -11.838  1.00142.77     0.171 HD
HETATM   17  C21 MIQ B 502      18.553  17.470 -10.575  1.00142.22     0.224 C 
HETATM   18  C22 MIQ B 502      17.063  17.493 -10.296  1.00139.52     0.106 C 
HETATM   19  O24 MIQ B 502      19.333  17.960  -9.833  1.00146.13    -0.273 OA
HETATM   20  C23 MIQ B 502      16.411  18.168 -11.490  1.00139.15     0.045 C 
ENDBRANCH  10  12
BRANCH   5  21
HETATM   21  N6  MIQ B 502      11.928  12.127 -14.586  1.00140.95    -0.377 N 
HETATM   22  C7  MIQ B 502      10.489  12.087 -14.777  1.00142.12     0.149 C 
HETATM   23  C8  MIQ B 502       9.860  10.869 -14.112  1.00144.10     0.187 C 
HETATM   24  O9  MIQ B 502      10.534   9.681 -14.404  1.00148.65    -0.388 OA
HETATM   25  C10 MIQ B 502      11.775   9.712 -15.046  1.00147.44     0.187 C 
HETATM   26  C11 MIQ B 502      12.689  10.910 -14.811  1.00144.08     0.149 C 
ENDBRANCH   5  21
TORSDOF 2
ENDMDL
MODEL 6
REMARK VINA RESULT:      -5.6      4.939      6.744
REMARK  2 active torsions:
REMARK  status: ('A' for Active; 'I' for Inactive)
REMARK    1  A    between atoms: C5_5  and  N6_21 
REMARK    2  A    between atoms: C18_14  and  N17_19 
ROOT
HETATM    1  O1  MIQ B 502      11.856  11.915 -17.210  1.00142.91    -0.171 OA
HETATM    2  C2  MIQ B 502      10.592  12.311 -16.769  1.00141.17     0.195 A 
HETATM    3  C3  MIQ B 502       9.499  13.027 -17.626  1.00141.71     0.035 A 
HETATM    4  C4  MIQ B 502       9.443  13.474 -19.038  1.00142.86     0.046 A 
HETATM    5  C5  MIQ B 502       8.281  14.112 -19.542  1.00139.53     0.031 A 
HETATM    6  C12 MIQ B 502       7.138  14.328 -18.667  1.00139.38     0.030 A 
HETATM    7  C13 MIQ B 502       7.191  13.898 -17.313  1.00141.18     0.019 A 
HETATM    8  C14 MIQ B 502       8.413  13.227 -16.790  1.00138.77     0.033 A 
HETATM    9  C15 MIQ B 502       8.833  12.631 -15.407  1.00142.10     0.195 A 
HETATM   10  N17 MIQ B 502      10.060  12.165 -15.568  1.00139.42    -0.288 N 
HETATM   11  O16 MIQ B 502       8.065  12.603 -14.242  1.00148.93    -0.171 OA
ENDROOT
BRANCH  10  12
HETATM   12  C18 MIQ B 502      10.784  11.546 -14.473  1.00139.82     0.187 C 
HETATM   13  C19 MIQ B 502      12.097  12.317 -14.287  1.00140.06     0.247 C 
HETATM   14  O25 MIQ B 502      12.066  13.492 -14.186  1.00143.95    -0.271 OA
HETATM   15  N20 MIQ B 502      13.377  11.641 -14.225  1.00140.02    -0.296 N 
HETATM   16  H13 MIQ B 502      14.228  12.156 -14.110  1.00142.77     0.171 HD
HETATM   17  C21 MIQ B 502      13.390  10.207 -14.361  1.00142.22     0.224 C 
HETATM   18  C22 MIQ B 502      12.343   9.600 -15.274  1.00139.52     0.106 C 
HETATM   19  O24 MIQ B 502      14.176   9.539 -13.784  1.00146.13    -0.273 OA
HETATM   20  C23 MIQ B 502      10.994  10.058 -14.748  1.00139.15     0.045 C 
ENDBRANCH  10  12
BRANCH   5  21
HETATM   21  N6  MIQ B 502       8.245  14.558 -20.923  1.00140.95    -0.377 N 
HETATM   22  C7  MIQ B 502       7.041  15.207 -21.412  1.00142.12     0.149 C 
HETATM   23  C8  MIQ B 502       6.873  15.035 -22.916  1.00144.10     0.187 C 
HETATM   24  O9  MIQ B 502       8.038  15.324 -23.629  1.00148.65    -0.388 OA
HETATM   25  C10 MIQ B 502       9.250  15.512 -22.959  1.00147.44     0.187 C 
HETATM   26  C11 MIQ B 502       9.485  14.762 -21.652  1.00144.08     0.149 C 
ENDBRANCH   5  21
TORSDOF 2
ENDMDL
MODEL 7
REMARK VINA RESULT:      -5.5      1.838      8.399
REMARK  2 active torsions:
REMARK  status: ('A' for Active; 'I' for Inactive)
REMARK    1  A    between atoms: C5_5  and  N6_21 
REMARK    2  A    between atoms: C18_14  and  N17_19 
ROOT
HETATM    1  O1  MIQ B 502      12.610  16.259 -12.920  1.00142.91    -0.171 OA
HETATM    2  C2  MIQ B 502      13.125  15.858 -14.155  1.00141.17     0.195 A 
HETATM    3  C3  MIQ B 502      12.826  14.510 -14.885  1.00141.71     0.035 A 
HETATM    4  C4  MIQ B 502      11.985  13.336 -14.553  1.00142.86     0.046 A 
HETATM    5  C5  MIQ B 502      11.912  12.233 -15.440  1.00139.53     0.031 A 
HETATM    6  C12 MIQ B 502      12.666  12.256 -16.685  1.00139.38     0.030 A 
HETATM    7  C13 MIQ B 502      13.471  13.382 -17.005  1.00141.18     0.019 A 
HETATM    8  C14 MIQ B 502      13.543  14.538 -16.070  1.00138.77     0.033 A 
HETATM    9  C15 MIQ B 502      14.291  15.911 -16.076  1.00142.10     0.195 A 
HETATM   10  N17 MIQ B 502      13.950  16.517 -14.951  1.00139.42    -0.288 N 
HETATM   11  O16 MIQ B 502      15.145  16.393 -17.069  1.00148.93    -0.171 OA
ENDROOT
BRANCH  10  12
HETATM   12  C18 MIQ B 502      14.475  17.825 -14.606  1.00139.82     0.187 C 
HETATM   13  C19 MIQ B 502      14.256  18.749 -15.810  1.00140.06     0.247 C 
HETATM   14  O25 MIQ B 502      13.183  18.819 -16.295  1.00143.95    -0.271 OA
HETATM   15  N20 MIQ B 502      15.331  19.545 -16.367  1.00140.02    -0.296 N 
HETATM   16  H13 MIQ B 502      15.177  20.139 -17.158  1.00142.77     0.171 HD
HETATM   17  C21 MIQ B 502      16.634  19.434 -15.764  1.00142.22     0.224 C 
HETATM   18  C22 MIQ B 502      17.012  18.078 -15.202  1.00139.52     0.106 C 
HETATM   19  O24 MIQ B 502      17.369  20.358 -15.707  1.00146.13    -0.273 OA
HETATM   20  C23 MIQ B 502      15.941  17.717 -14.189  1.00139.15     0.045 C 
ENDBRANCH  10  12
BRANCH   5  21
HETATM   21  N6  MIQ B 502      11.096  11.083 -15.095  1.00140.95    -0.377 N 
HETATM   22  C7  MIQ B 502      11.727   9.775 -15.041  1.00142.12     0.149 C 
HETATM   23  C8  MIQ B 502      10.733   8.653 -15.313  1.00144.10     0.187 C 
HETATM   24  O9  MIQ B 502       9.555   8.778 -14.574  1.00148.65    -0.388 OA
HETATM   25  C10 MIQ B 502       9.287   9.951 -13.864  1.00147.44     0.187 C 
HETATM   26  C11 MIQ B 502       9.834  11.270 -14.400  1.00144.08     0.149 C 
ENDBRANCH   5  21
TORSDOF 2
ENDMDL
MODEL 8
REMARK VINA RESULT:      -5.5      1.939      8.110
REMARK  2 active torsions:
REMARK  status: ('A' for Active; 'I' for Inactive)
REMARK    1  A    between atoms: C5_5  and  N6_21 
REMARK    2  A    between atoms: C18_14  and  N17_19 
ROOT
HETATM    1  O1  MIQ B 502      14.246  16.955 -17.880  1.00142.91    -0.171 OA
HETATM    2  C2  MIQ B 502      14.140  16.800 -16.496  1.00141.17     0.195 A 
HETATM    3  C3  MIQ B 502      13.254  15.752 -15.751  1.00141.71     0.035 A 
HETATM    4  C4  MIQ B 502      12.332  14.686 -16.210  1.00142.86     0.046 A 
HETATM    5  C5  MIQ B 502      11.652  13.872 -15.269  1.00139.53     0.031 A 
HETATM    6  C12 MIQ B 502      11.862  14.086 -13.844  1.00139.38     0.030 A 
HETATM    7  C13 MIQ B 502      12.746  15.107 -13.404  1.00141.18     0.019 A 
HETATM    8  C14 MIQ B 502      13.459  15.957 -14.396  1.00138.77     0.033 A 
HETATM    9  C15 MIQ B 502      14.479  17.138 -14.300  1.00142.10     0.195 A 
HETATM   10  N17 MIQ B 502      14.754  17.485 -15.547  1.00139.42    -0.288 N 
HETATM   11  O16 MIQ B 502      14.989  17.709 -13.133  1.00148.93    -0.171 OA
ENDROOT
BRANCH  10  12
HETATM   12  C18 MIQ B 502      15.665  18.574 -15.846  1.00139.82     0.187 C 
HETATM   13  C19 MIQ B 502      14.956  19.523 -16.820  1.00140.06     0.247 C 
HETATM   14  O25 MIQ B 502      13.875  19.914 -16.559  1.00143.95    -0.271 OA
HETATM   15  N20 MIQ B 502      15.581  19.959 -18.053  1.00140.02    -0.296 N 
HETATM   16  H13 MIQ B 502      15.105  20.573 -18.683  1.00142.77     0.171 HD
HETATM   17  C21 MIQ B 502      16.898  19.460 -18.355  1.00142.22     0.224 C 
HETATM   18  C22 MIQ B 502      17.215  18.051 -17.891  1.00139.52     0.106 C 
HETATM   19  O24 MIQ B 502      17.691  20.119 -18.931  1.00146.13    -0.273 OA
HETATM   20  C23 MIQ B 502      16.984  18.028 -16.391  1.00139.15     0.045 C 
ENDBRANCH  10  12
BRANCH   5  21
HETATM   21  N6  MIQ B 502      10.741  12.842 -15.733  1.00140.95    -0.377 N 
HETATM   22  C7  MIQ B 502      10.121  11.970 -14.750  1.00142.12     0.149 C 
HETATM   23  C8  MIQ B 502       9.752  10.616 -15.343  1.00144.10     0.187 C 
HETATM   24  O9  MIQ B 502       9.074  10.723 -16.559  1.00148.65    -0.388 OA
HETATM   25  C10 MIQ B 502       8.987  11.953 -17.216  1.00147.44     0.187 C 
HETATM   26  C11 MIQ B 502      10.125  12.954 -17.043  1.00144.08     0.149 C 
ENDBRANCH   5  21
TORSDOF 2
ENDMDL
MODEL 9
REMARK VINA RESULT:      -5.5      1.951      8.306
REMARK  2 active torsions:
REMARK  status: ('A' for Active; 'I' for Inactive)
REMARK    1  A    between atoms: C5_5  and  N6_21 
REMARK    2  A    between atoms: C18_14  and  N17_19 
ROOT
HETATM    1  O1  MIQ B 502      13.580  14.575 -18.632  1.00142.91    -0.171 OA
HETATM    2  C2  MIQ B 502      13.469  15.004 -17.307  1.00141.17     0.195 A 
HETATM    3  C3  MIQ B 502      12.813  14.209 -16.133  1.00141.71     0.035 A 
HETATM    4  C4  MIQ B 502      12.163  12.881 -16.040  1.00142.86     0.046 A 
HETATM    5  C5  MIQ B 502      11.650  12.419 -14.801  1.00139.53     0.031 A 
HETATM    6  C12 MIQ B 502      11.765  13.256 -13.615  1.00139.38     0.030 A 
HETATM    7  C13 MIQ B 502      12.389  14.529 -13.704  1.00141.18     0.019 A 
HETATM    8  C14 MIQ B 502      12.928  15.007 -15.007  1.00138.77     0.033 A 
HETATM    9  C15 MIQ B 502      13.660  16.304 -15.484  1.00142.10     0.195 A 
HETATM   10  N17 MIQ B 502      13.889  16.139 -16.776  1.00139.42    -0.288 N 
HETATM   11  O16 MIQ B 502      13.997  17.409 -14.701  1.00148.93    -0.171 OA
ENDROOT
BRANCH  10  12
HETATM   12  C18 MIQ B 502      14.548  17.163 -17.565  1.00139.82     0.187 C 
HETATM   13  C19 MIQ B 502      15.917  17.435 -16.930  1.00140.06     0.247 C 
HETATM   14  O25 MIQ B 502      16.635  16.528 -16.699  1.00143.95    -0.271 OA
HETATM   15  N20 MIQ B 502      16.358  18.777 -16.610  1.00140.02    -0.296 N 
HETATM   16  H13 MIQ B 502      17.252  18.940 -16.190  1.00142.77     0.171 HD
HETATM   17  C21 MIQ B 502      15.460  19.867 -16.892  1.00142.22     0.224 C 
HETATM   18  C22 MIQ B 502      13.977  19.584 -16.744  1.00139.52     0.106 C 
HETATM   19  O24 MIQ B 502      15.861  20.928 -17.226  1.00146.13    -0.273 OA
HETATM   20  C23 MIQ B 502      13.670  18.410 -17.657  1.00139.15     0.045 C 
ENDBRANCH  10  12
BRANCH   5  21
HETATM   21  N6  MIQ B 502      11.003  11.122 -14.727  1.00140.95    -0.377 N 
HETATM   22  C7  MIQ B 502       9.557  11.075 -14.591  1.00142.12     0.149 C 
HETATM   23  C8  MIQ B 502       9.093   9.799 -13.900  1.00144.10     0.187 C 
HETATM   24  O9  MIQ B 502       9.680   8.649 -14.432  1.00148.65    -0.388 OA
HETATM   25  C10 MIQ B 502      10.743   8.749 -15.333  1.00147.44     0.187 C 
HETATM   26  C11 MIQ B 502      11.690   9.939 -15.215  1.00144.08     0.149 C 
ENDBRANCH   5  21
TORSDOF 2
ENDMDL
