MODEL 1
REMARK VINA RESULT:      -6.7      0.000      0.000
REMARK  2 active torsions:
REMARK  status: ('A' for Active; 'I' for Inactive)
REMARK    1  A    between atoms: C5_5  and  N6_21 
REMARK    2  A    between atoms: C18_14  and  N17_19 
ROOT
HETATM    1  O1  MIQ B 502       0.078  24.384  -5.320  1.00142.91    -0.171 OA
HETATM    2  C2  MIQ B 502       0.407  23.164  -4.724  1.00141.17     0.195 A 
HETATM    3  C3  MIQ B 502       0.496  21.780  -5.444  1.00141.71     0.035 A 
HETATM    4  C4  MIQ B 502       0.287  21.345  -6.845  1.00142.86     0.046 A 
HETATM    5  C5  MIQ B 502       0.447  19.983  -7.204  1.00139.53     0.031 A 
HETATM    6  C12 MIQ B 502       0.818  19.007  -6.189  1.00139.38     0.030 A 
HETATM    7  C13 MIQ B 502       1.019  19.424  -4.846  1.00141.18     0.019 A 
HETATM    8  C14 MIQ B 502       0.852  20.856  -4.475  1.00138.77     0.033 A 
HETATM    9  C15 MIQ B 502       0.986  21.670  -3.147  1.00142.10     0.195 A 
HETATM   10  N17 MIQ B 502       0.710  22.926  -3.460  1.00139.42    -0.288 N 
HETATM   11  O16 MIQ B 502       1.325  21.168  -1.890  1.00148.93    -0.171 OA
ENDROOT
BRANCH  10  12
HETATM   12  C18 MIQ B 502       0.721  23.975  -2.458  1.00139.82     0.187 C 
HETATM   13  C19 MIQ B 502      -0.627  24.704  -2.528  1.00140.06     0.247 C 
HETATM   14  O25 MIQ B 502      -1.624  24.074  -2.495  1.00143.95    -0.271 OA
HETATM   15  N20 MIQ B 502      -0.711  26.146  -2.628  1.00140.02    -0.296 N 
HETATM   16  H13 MIQ B 502      -1.597  26.609  -2.680  1.00142.77     0.171 HD
HETATM   17  C21 MIQ B 502       0.520  26.892  -2.677  1.00142.22     0.224 C 
HETATM   18  C22 MIQ B 502       1.692  26.228  -3.375  1.00139.52     0.106 C 
HETATM   19  O24 MIQ B 502       0.612  27.966  -2.192  1.00146.13    -0.273 OA
HETATM   20  C23 MIQ B 502       1.917  24.902  -2.671  1.00139.15     0.045 C 
ENDBRANCH  10  12
BRANCH   5  21
HETATM   21  N6  MIQ B 502       0.225  19.569  -8.578  1.00140.95    -0.377 N 
HETATM   22  C7  MIQ B 502      -0.732  20.310  -9.381  1.00142.12     0.149 C 
HETATM   23  C8  MIQ B 502      -1.333  19.450 -10.486  1.00144.10     0.187 C 
HETATM   24  O9  MIQ B 502      -0.371  18.742 -11.207  1.00148.65    -0.388 OA
HETATM   25  C10 MIQ B 502       0.952  18.689 -10.760  1.00147.44     0.187 C 
HETATM   26  C11 MIQ B 502       1.219  18.758  -9.260  1.00144.08     0.149 C 
ENDBRANCH   5  21
TORSDOF 2
ENDMDL
MODEL 2
REMARK VINA RESULT:      -6.3     18.484     21.738
REMARK  2 active torsions:
REMARK  status: ('A' for Active; 'I' for Inactive)
REMARK    1  A    between atoms: C5_5  and  N6_21 
REMARK    2  A    between atoms: C18_14  and  N17_19 
ROOT
HETATM    1  O1  MIQ B 502       7.905  15.237  11.901  1.00142.91    -0.171 OA
HETATM    2  C2  MIQ B 502       7.417  16.373  12.550  1.00141.17     0.195 A 
HETATM    3  C3  MIQ B 502       8.272  17.459  13.277  1.00141.71     0.035 A 
HETATM    4  C4  MIQ B 502       9.727  17.633  13.495  1.00142.86     0.046 A 
HETATM    5  C5  MIQ B 502      10.216  18.754  14.212  1.00139.53     0.031 A 
HETATM    6  C12 MIQ B 502       9.282  19.739  14.737  1.00139.38     0.030 A 
HETATM    7  C13 MIQ B 502       7.886  19.574  14.527  1.00141.18     0.019 A 
HETATM    8  C14 MIQ B 502       7.379  18.396  13.771  1.00138.77     0.033 A 
HETATM    9  C15 MIQ B 502       5.962  17.889  13.348  1.00142.10     0.195 A 
HETATM   10  N17 MIQ B 502       6.161  16.764  12.681  1.00139.42    -0.288 N 
HETATM   11  O16 MIQ B 502       4.738  18.501  13.624  1.00148.93    -0.171 OA
ENDROOT
BRANCH  10  12
HETATM   12  C18 MIQ B 502       5.053  15.996  12.144  1.00139.82     0.187 C 
HETATM   13  C19 MIQ B 502       4.186  16.947  11.309  1.00140.06     0.247 C 
HETATM   14  O25 MIQ B 502       4.697  17.619  10.485  1.00143.95    -0.271 OA
HETATM   15  N20 MIQ B 502       2.753  17.040  11.501  1.00140.02    -0.296 N 
HETATM   16  H13 MIQ B 502       2.199  17.670  10.954  1.00142.77     0.171 HD
HETATM   17  C21 MIQ B 502       2.154  16.218  12.520  1.00142.22     0.224 C 
HETATM   18  C22 MIQ B 502       2.990  15.947  13.756  1.00139.52     0.106 C 
HETATM   19  O24 MIQ B 502       1.066  15.773  12.395  1.00146.13    -0.273 OA
HETATM   20  C23 MIQ B 502       4.282  15.314  13.272  1.00139.15     0.045 C 
ENDBRANCH  10  12
BRANCH   5  21
HETATM   21  N6  MIQ B 502      11.643  18.903  14.431  1.00140.95    -0.377 N 
HETATM   22  C7  MIQ B 502      12.169  20.230  14.703  1.00142.12     0.149 C 
HETATM   23  C8  MIQ B 502      13.626  20.362  14.279  1.00144.10     0.187 C 
HETATM   24  O9  MIQ B 502      14.420  19.303  14.724  1.00148.65    -0.388 OA
HETATM   25  C10 MIQ B 502      13.833  18.166  15.285  1.00147.44     0.187 C 
HETATM   26  C11 MIQ B 502      12.444  17.752  14.810  1.00144.08     0.149 C 
ENDBRANCH   5  21
TORSDOF 2
ENDMDL
MODEL 3
REMARK VINA RESULT:      -6.3     13.981     17.847
REMARK  2 active torsions:
REMARK  status: ('A' for Active; 'I' for Inactive)
REMARK    1  A    between atoms: C5_5  and  N6_21 
REMARK    2  A    between atoms: C18_14  and  N17_19 
ROOT
HETATM    1  O1  MIQ B 502       3.633  16.040   9.225  1.00142.91    -0.171 OA
HETATM    2  C2  MIQ B 502       3.375  17.390   8.979  1.00141.17     0.195 A 
HETATM    3  C3  MIQ B 502       3.891  18.597   9.826  1.00141.71     0.035 A 
HETATM    4  C4  MIQ B 502       4.736  18.703  11.039  1.00142.86     0.046 A 
HETATM    5  C5  MIQ B 502       5.042  19.973  11.590  1.00139.53     0.031 A 
HETATM    6  C12 MIQ B 502       4.523  21.178  10.960  1.00139.38     0.030 A 
HETATM    7  C13 MIQ B 502       3.713  21.077   9.797  1.00141.18     0.019 A 
HETATM    8  C14 MIQ B 502       3.397  19.741   9.221  1.00138.77     0.033 A 
HETATM    9  C15 MIQ B 502       2.571  19.242   7.991  1.00142.10     0.195 A 
HETATM   10  N17 MIQ B 502       2.663  17.923   8.001  1.00139.42    -0.288 N 
HETATM   11  O16 MIQ B 502       1.876  20.033   7.074  1.00148.93    -0.171 OA
ENDROOT
BRANCH  10  12
HETATM   12  C18 MIQ B 502       1.997  17.110   7.000  1.00139.82     0.187 C 
HETATM   13  C19 MIQ B 502       1.282  15.965   7.727  1.00140.06     0.247 C 
HETATM   14  O25 MIQ B 502       0.572  16.214   8.635  1.00143.95    -0.271 OA
HETATM   15  N20 MIQ B 502       1.450  14.583   7.326  1.00140.02    -0.296 N 
HETATM   16  H13 MIQ B 502       0.982  13.844   7.813  1.00142.77     0.171 HD
HETATM   17  C21 MIQ B 502       2.330  14.303   6.221  1.00142.22     0.224 C 
HETATM   18  C22 MIQ B 502       3.537  15.208   6.065  1.00139.52     0.106 C 
HETATM   19  O24 MIQ B 502       2.118  13.414   5.472  1.00146.13    -0.273 OA
HETATM   20  C23 MIQ B 502       3.002  16.625   5.955  1.00139.15     0.045 C 
ENDBRANCH  10  12
BRANCH   5  21
HETATM   21  N6  MIQ B 502       5.859  20.061  12.787  1.00140.95    -0.377 N 
HETATM   22  C7  MIQ B 502       6.655  18.909  13.171  1.00142.12     0.149 C 
HETATM   23  C8  MIQ B 502       6.918  18.874  14.671  1.00144.10     0.187 C 
HETATM   24  O9  MIQ B 502       7.361  20.099  15.174  1.00148.65    -0.388 OA
HETATM   25  C10 MIQ B 502       7.317  21.247  14.379  1.00147.44     0.187 C 
HETATM   26  C11 MIQ B 502       6.223  21.362  13.322  1.00144.08     0.149 C 
ENDBRANCH   5  21
TORSDOF 2
ENDMDL
MODEL 4
REMARK VINA RESULT:      -6.3      1.773      7.866
REMARK  2 active torsions:
REMARK  status: ('A' for Active; 'I' for Inactive)
REMARK    1  A    between atoms: C5_5  and  N6_21 
REMARK    2  A    between atoms: C18_14  and  N17_19 
ROOT
HETATM    1  O1  MIQ B 502      -0.441  22.128  -7.693  1.00142.91    -0.171 OA
HETATM    2  C2  MIQ B 502       0.082  21.384  -6.633  1.00141.17     0.195 A 
HETATM    3  C3  MIQ B 502       0.438  21.927  -5.212  1.00141.71     0.035 A 
HETATM    4  C4  MIQ B 502       0.348  23.265  -4.581  1.00142.86     0.046 A 
HETATM    5  C5  MIQ B 502       0.758  23.452  -3.237  1.00139.53     0.031 A 
HETATM    6  C12 MIQ B 502       1.268  22.323  -2.473  1.00139.38     0.030 A 
HETATM    7  C13 MIQ B 502       1.353  21.040  -3.078  1.00141.18     0.019 A 
HETATM    8  C14 MIQ B 502       0.920  20.849  -4.489  1.00138.77     0.033 A 
HETATM    9  C15 MIQ B 502       0.862  19.629  -5.465  1.00142.10     0.195 A 
HETATM   10  N17 MIQ B 502       0.374  20.095  -6.603  1.00139.42    -0.288 N 
HETATM   11  O16 MIQ B 502       1.250  18.317  -5.188  1.00148.93    -0.171 OA
ENDROOT
BRANCH  10  12
HETATM   12  C18 MIQ B 502       0.193  19.235  -7.758  1.00139.82     0.187 C 
HETATM   13  C19 MIQ B 502       0.922  19.882  -8.941  1.00140.06     0.247 C 
HETATM   14  O25 MIQ B 502       2.047  20.215  -8.813  1.00143.95    -0.271 OA
HETATM   15  N20 MIQ B 502       0.271  20.091 -10.218  1.00140.02    -0.296 N 
HETATM   16  H13 MIQ B 502       0.756  20.520 -10.981  1.00142.77     0.171 HD
HETATM   17  C21 MIQ B 502      -1.105  19.686 -10.348  1.00142.22     0.224 C 
HETATM   18  C22 MIQ B 502      -1.973  19.816  -9.111  1.00139.52     0.106 C 
HETATM   19  O24 MIQ B 502      -1.533  19.268 -11.367  1.00146.13    -0.273 OA
HETATM   20  C23 MIQ B 502      -1.295  19.005  -8.021  1.00139.15     0.045 C 
ENDBRANCH  10  12
BRANCH   5  21
HETATM   21  N6  MIQ B 502       0.678  24.771  -2.636  1.00140.95    -0.377 N 
HETATM   22  C7  MIQ B 502       1.388  25.011  -1.391  1.00142.12     0.149 C 
HETATM   23  C8  MIQ B 502       0.741  26.121  -0.572  1.00144.10     0.187 C 
HETATM   24  O9  MIQ B 502       0.459  27.260  -1.328  1.00148.65    -0.388 OA
HETATM   25  C10 MIQ B 502       0.566  27.230  -2.721  1.00147.44     0.187 C 
HETATM   26  C11 MIQ B 502       0.296  25.915  -3.445  1.00144.08     0.149 C 
ENDBRANCH   5  21
TORSDOF 2
ENDMDL
MODEL 5
REMARK VINA RESULT:      -6.2      1.995      8.397
REMARK  2 active torsions:
REMARK  status: ('A' for Active; 'I' for Inactive)
REMARK    1  A    between atoms: C5_5  and  N6_21 
REMARK    2  A    between atoms: C18_14  and  N17_19 
ROOT
HETATM    1  O1  MIQ B 502      -0.026  19.462  -5.476  1.00142.91    -0.171 OA
HETATM    2  C2  MIQ B 502       0.164  20.506  -6.385  1.00141.17     0.195 A 
HETATM    3  C3  MIQ B 502       0.432  22.003  -6.027  1.00141.71     0.035 A 
HETATM    4  C4  MIQ B 502       0.565  22.736  -4.746  1.00142.86     0.046 A 
HETATM    5  C5  MIQ B 502       0.817  24.131  -4.742  1.00139.53     0.031 A 
HETATM    6  C12 MIQ B 502       0.946  24.846  -6.003  1.00139.38     0.030 A 
HETATM    7  C13 MIQ B 502       0.820  24.143  -7.232  1.00141.18     0.019 A 
HETATM    8  C14 MIQ B 502       0.558  22.678  -7.230  1.00138.77     0.033 A 
HETATM    9  C15 MIQ B 502       0.367  21.594  -8.341  1.00142.10     0.195 A 
HETATM   10  N17 MIQ B 502       0.161  20.452  -7.705  1.00139.42    -0.288 N 
HETATM   11  O16 MIQ B 502       0.403  21.797  -9.721  1.00148.93    -0.171 OA
ENDROOT
BRANCH  10  12
HETATM   12  C18 MIQ B 502      -0.074  19.216  -8.427  1.00139.82     0.187 C 
HETATM   13  C19 MIQ B 502       1.126  18.979  -9.352  1.00140.06     0.247 C 
HETATM   14  O25 MIQ B 502       2.216  19.026  -8.905  1.00143.95    -0.271 OA
HETATM   15  N20 MIQ B 502       0.958  18.691 -10.762  1.00140.02    -0.296 N 
HETATM   16  H13 MIQ B 502       1.750  18.544 -11.357  1.00142.77     0.171 HD
HETATM   17  C21 MIQ B 502      -0.382  18.648 -11.287  1.00142.22     0.224 C 
HETATM   18  C22 MIQ B 502      -1.390  19.592 -10.660  1.00139.52     0.106 C 
HETATM   19  O24 MIQ B 502      -0.681  17.909 -12.160  1.00146.13    -0.273 OA
HETATM   20  C23 MIQ B 502      -1.405  19.281  -9.174  1.00139.15     0.045 C 
ENDBRANCH  10  12
BRANCH   5  21
HETATM   21  N6  MIQ B 502       0.930  24.840  -3.480  1.00140.95    -0.377 N 
HETATM   22  C7  MIQ B 502       0.106  26.017  -3.268  1.00142.12     0.149 C 
HETATM   23  C8  MIQ B 502       0.741  26.985  -2.278  1.00144.10     0.187 C 
HETATM   24  O9  MIQ B 502       1.193  26.356  -1.116  1.00148.65    -0.388 OA
HETATM   25  C10 MIQ B 502       1.241  24.962  -1.039  1.00147.44     0.187 C 
HETATM   26  C11 MIQ B 502       1.488  24.169  -2.318  1.00144.08     0.149 C 
ENDBRANCH   5  21
TORSDOF 2
ENDMDL
MODEL 6
REMARK VINA RESULT:      -6.2     16.270     19.923
REMARK  2 active torsions:
REMARK  status: ('A' for Active; 'I' for Inactive)
REMARK    1  A    between atoms: C5_5  and  N6_21 
REMARK    2  A    between atoms: C18_14  and  N17_19 
ROOT
HETATM    1  O1  MIQ B 502      11.158  33.168   0.773  1.00142.91    -0.171 OA
HETATM    2  C2  MIQ B 502      11.596  34.445   1.130  1.00141.17     0.195 A 
HETATM    3  C3  MIQ B 502      11.642  35.034   2.575  1.00141.71     0.035 A 
HETATM    4  C4  MIQ B 502      11.280  34.495   3.908  1.00142.86     0.046 A 
HETATM    5  C5  MIQ B 502      11.439  35.291   5.070  1.00139.53     0.031 A 
HETATM    6  C12 MIQ B 502      11.961  36.645   4.953  1.00139.38     0.030 A 
HETATM    7  C13 MIQ B 502      12.309  37.162   3.677  1.00141.18     0.019 A 
HETATM    8  C14 MIQ B 502      12.142  36.321   2.460  1.00138.77     0.033 A 
HETATM    9  C15 MIQ B 502      12.409  36.531   0.933  1.00142.10     0.195 A 
HETATM   10  N17 MIQ B 502      12.057  35.401   0.342  1.00139.42    -0.288 N 
HETATM   11  O16 MIQ B 502      12.914  37.681   0.324  1.00148.93    -0.171 OA
ENDROOT
BRANCH  10  12
HETATM   12  C18 MIQ B 502      12.155  35.237  -1.096  1.00139.82     0.187 C 
HETATM   13  C19 MIQ B 502      10.789  34.763  -1.607  1.00140.06     0.247 C 
HETATM   14  O25 MIQ B 502       9.820  35.360  -1.297  1.00143.95    -0.271 OA
HETATM   15  N20 MIQ B 502      10.655  33.604  -2.466  1.00140.02    -0.296 N 
HETATM   16  H13 MIQ B 502       9.756  33.301  -2.787  1.00142.77     0.171 HD
HETATM   17  C21 MIQ B 502      11.851  32.886  -2.822  1.00142.22     0.224 C 
HETATM   18  C22 MIQ B 502      12.952  32.838  -1.780  1.00139.52     0.106 C 
HETATM   19  O24 MIQ B 502      11.969  32.366  -3.877  1.00146.13    -0.273 OA
HETATM   20  C23 MIQ B 502      13.293  34.279  -1.445  1.00139.15     0.045 C 
ENDBRANCH  10  12
BRANCH   5  21
HETATM   21  N6  MIQ B 502      11.066  34.755   6.367  1.00140.95    -0.377 N 
HETATM   22  C7  MIQ B 502      10.854  33.323   6.492  1.00142.12     0.149 C 
HETATM   23  C8  MIQ B 502       9.892  32.988   7.625  1.00144.10     0.187 C 
HETATM   24  O9  MIQ B 502      10.200  33.651   8.814  1.00148.65    -0.388 OA
HETATM   25  C10 MIQ B 502      11.153  34.674   8.827  1.00147.44     0.187 C 
HETATM   26  C11 MIQ B 502      11.330  35.522   7.572  1.00144.08     0.149 C 
ENDBRANCH   5  21
TORSDOF 2
ENDMDL
MODEL 7
REMARK VINA RESULT:      -6.1     15.137     18.628
REMARK  2 active torsions:
REMARK  status: ('A' for Active; 'I' for Inactive)
REMARK    1  A    between atoms: C5_5  and  N6_21 
REMARK    2  A    between atoms: C18_14  and  N17_19 
ROOT
HETATM    1  O1  MIQ B 502       4.439  18.412   8.688  1.00142.91    -0.171 OA
HETATM    2  C2  MIQ B 502       3.658  17.748   9.636  1.00141.17     0.195 A 
HETATM    3  C3  MIQ B 502       3.973  17.616  11.160  1.00141.71     0.035 A 
HETATM    4  C4  MIQ B 502       5.081  18.100  12.018  1.00142.86     0.046 A 
HETATM    5  C5  MIQ B 502       5.089  17.814  13.407  1.00139.53     0.031 A 
HETATM    6  C12 MIQ B 502       4.003  17.042  13.992  1.00139.38     0.030 A 
HETATM    7  C13 MIQ B 502       2.940  16.579  13.171  1.00141.18     0.019 A 
HETATM    8  C14 MIQ B 502       2.935  16.883  11.714  1.00138.77     0.033 A 
HETATM    9  C15 MIQ B 502       1.970  16.560  10.527  1.00142.10     0.195 A 
HETATM   10  N17 MIQ B 502       2.514  17.110   9.454  1.00139.42    -0.288 N 
HETATM   11  O16 MIQ B 502       0.780  15.834  10.591  1.00148.93    -0.171 OA
ENDROOT
BRANCH  10  12
HETATM   12  C18 MIQ B 502       1.893  16.998   8.147  1.00139.82     0.187 C 
HETATM   13  C19 MIQ B 502       2.906  16.340   7.203  1.00140.06     0.247 C 
HETATM   14  O25 MIQ B 502       3.430  15.334   7.530  1.00143.95    -0.271 OA
HETATM   15  N20 MIQ B 502       3.236  16.916   5.915  1.00140.02    -0.296 N 
HETATM   16  H13 MIQ B 502       3.904  16.480   5.310  1.00142.77     0.171 HD
HETATM   17  C21 MIQ B 502       2.592  18.149   5.543  1.00142.22     0.224 C 
HETATM   18  C22 MIQ B 502       2.282  19.121   6.665  1.00139.52     0.106 C 
HETATM   19  O24 MIQ B 502       2.314  18.386   4.419  1.00146.13    -0.273 OA
HETATM   20  C23 MIQ B 502       1.421  18.368   7.663  1.00139.15     0.045 C 
ENDBRANCH  10  12
BRANCH   5  21
HETATM   21  N6  MIQ B 502       6.188  18.282  14.232  1.00140.95    -0.377 N 
HETATM   22  C7  MIQ B 502       7.327  18.908  13.582  1.00142.12     0.149 C 
HETATM   23  C8  MIQ B 502       8.602  18.757  14.402  1.00144.10     0.187 C 
HETATM   24  O9  MIQ B 502       8.427  19.087  15.747  1.00148.65    -0.388 OA
HETATM   25  C10 MIQ B 502       7.145  19.295  16.263  1.00147.44     0.187 C 
HETATM   26  C11 MIQ B 502       5.978  18.530  15.647  1.00144.08     0.149 C 
ENDBRANCH   5  21
TORSDOF 2
ENDMDL
MODEL 8
REMARK VINA RESULT:      -6.0     18.309     21.448
REMARK  2 active torsions:
REMARK  status: ('A' for Active; 'I' for Inactive)
REMARK    1  A    between atoms: C5_5  and  N6_21 
REMARK    2  A    between atoms: C18_14  and  N17_19 
ROOT
HETATM    1  O1  MIQ B 502       5.357  18.752  13.555  1.00142.91    -0.171 OA
HETATM    2  C2  MIQ B 502       6.084  17.634  13.140  1.00141.17     0.195 A 
HETATM    3  C3  MIQ B 502       7.623  17.423  13.302  1.00141.71     0.035 A 
HETATM    4  C4  MIQ B 502       8.708  18.245  13.890  1.00142.86     0.046 A 
HETATM    5  C5  MIQ B 502      10.045  17.772  13.892  1.00139.53     0.031 A 
HETATM    6  C12 MIQ B 502      10.352  16.471  13.314  1.00139.38     0.030 A 
HETATM    7  C13 MIQ B 502       9.312  15.683  12.752  1.00141.18     0.019 A 
HETATM    8  C14 MIQ B 502       7.910  16.184  12.755  1.00138.77     0.033 A 
HETATM    9  C15 MIQ B 502       6.541  15.622  12.250  1.00142.10     0.195 A 
HETATM   10  N17 MIQ B 502       5.638  16.543  12.541  1.00139.42    -0.288 N 
HETATM   11  O16 MIQ B 502       6.323  14.396  11.618  1.00148.93    -0.171 OA
ENDROOT
BRANCH  10  12
HETATM   12  C18 MIQ B 502       4.239  16.368  12.200  1.00139.82     0.187 C 
HETATM   13  C19 MIQ B 502       3.776  17.629  11.460  1.00140.06     0.247 C 
HETATM   14  O25 MIQ B 502       4.406  18.023  10.545  1.00143.95    -0.271 OA
HETATM   15  N20 MIQ B 502       2.580  18.348  11.851  1.00140.02    -0.296 N 
HETATM   16  H13 MIQ B 502       2.292  19.173  11.364  1.00142.77     0.171 HD
HETATM   17  C21 MIQ B 502       1.833  17.852  12.978  1.00142.22     0.224 C 
HETATM   18  C22 MIQ B 502       2.632  17.202  14.092  1.00139.52     0.106 C 
HETATM   19  O24 MIQ B 502       0.656  17.944  13.028  1.00146.13    -0.273 OA
HETATM   20  C23 MIQ B 502       3.419  16.071  13.455  1.00139.15     0.045 C 
ENDBRANCH  10  12
BRANCH   5  21
HETATM   21  N6  MIQ B 502      11.100  18.593  14.457  1.00140.95    -0.377 N 
HETATM   22  C7  MIQ B 502      10.816  19.990  14.739  1.00142.12     0.149 C 
HETATM   23  C8  MIQ B 502      12.076  20.846  14.695  1.00144.10     0.187 C 
HETATM   24  O9  MIQ B 502      13.134  20.293  15.419  1.00148.65    -0.388 OA
HETATM   25  C10 MIQ B 502      13.052  18.986  15.906  1.00147.44     0.187 C 
HETATM   26  C11 MIQ B 502      12.226  17.968  15.127  1.00144.08     0.149 C 
ENDBRANCH   5  21
TORSDOF 2
ENDMDL
MODEL 9
REMARK VINA RESULT:      -6.0     18.316     21.752
REMARK  2 active torsions:
REMARK  status: ('A' for Active; 'I' for Inactive)
REMARK    1  A    between atoms: C5_5  and  N6_21 
REMARK    2  A    between atoms: C18_14  and  N17_19 
ROOT
HETATM    1  O1  MIQ B 502       4.937  18.513  13.598  1.00142.91    -0.171 OA
HETATM    2  C2  MIQ B 502       6.112  17.824  13.288  1.00141.17     0.195 A 
HETATM    3  C3  MIQ B 502       7.565  18.275  13.641  1.00141.71     0.035 A 
HETATM    4  C4  MIQ B 502       8.124  19.452  14.348  1.00142.86     0.046 A 
HETATM    5  C5  MIQ B 502       9.525  19.586  14.519  1.00139.53     0.031 A 
HETATM    6  C12 MIQ B 502      10.418  18.561  13.999  1.00139.38     0.030 A 
HETATM    7  C13 MIQ B 502       9.883  17.432  13.322  1.00141.18     0.019 A 
HETATM    8  C14 MIQ B 502       8.411  17.295  13.147  1.00138.77     0.033 A 
HETATM    9  C15 MIQ B 502       7.477  16.231  12.484  1.00142.10     0.195 A 
HETATM   10  N17 MIQ B 502       6.242  16.673  12.652  1.00139.42    -0.288 N 
HETATM   11  O16 MIQ B 502       7.873  15.055  11.843  1.00148.93    -0.171 OA
ENDROOT
BRANCH  10  12
HETATM   12  C18 MIQ B 502       5.099  15.938  12.143  1.00139.82     0.187 C 
HETATM   13  C19 MIQ B 502       4.242  16.913  11.326  1.00140.06     0.247 C 
HETATM   14  O25 MIQ B 502       4.754  17.567  10.488  1.00143.95    -0.271 OA
HETATM   15  N20 MIQ B 502       2.818  17.051  11.550  1.00140.02    -0.296 N 
HETATM   16  H13 MIQ B 502       2.271  17.696  11.015  1.00142.77     0.171 HD
HETATM   17  C21 MIQ B 502       2.218  16.251  12.586  1.00142.22     0.224 C 
HETATM   18  C22 MIQ B 502       3.074  15.958  13.803  1.00139.52     0.106 C 
HETATM   19  O24 MIQ B 502       1.114  15.839  12.488  1.00146.13    -0.273 OA
HETATM   20  C23 MIQ B 502       4.334  15.283  13.292  1.00139.15     0.045 C 
ENDBRANCH  10  12
BRANCH   5  21
HETATM   21  N6  MIQ B 502      10.059  20.751  15.201  1.00140.95    -0.377 N 
HETATM   22  C7  MIQ B 502       9.188  21.895  15.408  1.00142.12     0.149 C 
HETATM   23  C8  MIQ B 502       9.973  23.196  15.512  1.00144.10     0.187 C 
HETATM   24  O9  MIQ B 502      11.059  23.107  16.385  1.00148.65    -0.388 OA
HETATM   25  C10 MIQ B 502      11.463  21.868  16.889  1.00147.44     0.187 C 
HETATM   26  C11 MIQ B 502      11.245  20.626  16.031  1.00144.08     0.149 C 
ENDBRANCH   5  21
TORSDOF 2
ENDMDL
