MODEL 1
REMARK VINA RESULT:      -6.9      0.000      0.000
REMARK  2 active torsions:
REMARK  status: ('A' for Active; 'I' for Inactive)
REMARK    1  A    between atoms: C5_5  and  N6_21 
REMARK    2  A    between atoms: C18_14  and  N17_19 
ROOT
HETATM    1  O1  MIQ B 502     -23.845 -11.276   3.437  1.00142.91    -0.171 OA
HETATM    2  C2  MIQ B 502     -24.292 -12.549   3.798  1.00141.17     0.195 A 
HETATM    3  C3  MIQ B 502     -23.521 -13.891   3.587  1.00141.71     0.035 A 
HETATM    4  C4  MIQ B 502     -22.202 -14.227   3.001  1.00142.86     0.046 A 
HETATM    5  C5  MIQ B 502     -21.763 -15.575   2.949  1.00139.53     0.031 A 
HETATM    6  C12 MIQ B 502     -22.614 -16.632   3.476  1.00139.38     0.030 A 
HETATM    7  C13 MIQ B 502     -23.878 -16.310   4.039  1.00141.18     0.019 A 
HETATM    8  C14 MIQ B 502     -24.333 -14.894   4.092  1.00138.77     0.033 A 
HETATM    9  C15 MIQ B 502     -25.614 -14.170   4.621  1.00142.10     0.195 A 
HETATM   10  N17 MIQ B 502     -25.429 -12.881   4.384  1.00139.42    -0.288 N 
HETATM   11  O16 MIQ B 502     -26.725 -14.767   5.217  1.00148.93    -0.171 OA
ENDROOT
BRANCH  10  12
HETATM   12  C18 MIQ B 502     -26.435 -11.895   4.733  1.00139.82     0.187 C 
HETATM   13  C19 MIQ B 502     -26.768 -11.099   3.466  1.00140.06     0.247 C 
HETATM   14  O25 MIQ B 502     -27.045 -11.679   2.477  1.00143.95    -0.271 OA
HETATM   15  N20 MIQ B 502     -26.759  -9.650   3.449  1.00140.02    -0.296 N 
HETATM   16  H13 MIQ B 502     -26.972  -9.142   2.614  1.00142.77     0.171 HD
HETATM   17  C21 MIQ B 502     -26.407  -8.964   4.666  1.00142.22     0.224 C 
HETATM   18  C22 MIQ B 502     -25.387  -9.642   5.560  1.00139.52     0.106 C 
HETATM   19  O24 MIQ B 502     -26.896  -7.927   4.954  1.00146.13    -0.273 OA
HETATM   20  C23 MIQ B 502     -25.942 -11.018   5.883  1.00139.15     0.045 C 
ENDBRANCH  10  12
BRANCH   5  21
HETATM   21  N6  MIQ B 502     -20.475 -15.891   2.359  1.00140.95    -0.377 N 
HETATM   22  C7  MIQ B 502     -19.368 -16.218   3.242  1.00142.12     0.149 C 
HETATM   23  C8  MIQ B 502     -18.021 -15.895   2.608  1.00144.10     0.187 C 
HETATM   24  O9  MIQ B 502     -17.906 -16.377   1.302  1.00148.65    -0.388 OA
HETATM   25  C10 MIQ B 502     -19.024 -16.880   0.632  1.00147.44     0.187 C 
HETATM   26  C11 MIQ B 502     -20.396 -16.306   0.969  1.00144.08     0.149 C 
ENDBRANCH   5  21
TORSDOF 2
ENDMDL
MODEL 2
REMARK VINA RESULT:      -6.7      2.449      8.588
REMARK  2 active torsions:
REMARK  status: ('A' for Active; 'I' for Inactive)
REMARK    1  A    between atoms: C5_5  and  N6_21 
REMARK    2  A    between atoms: C18_14  and  N17_19 
ROOT
HETATM    1  O1  MIQ B 502     -23.015 -17.005   1.848  1.00142.91    -0.171 OA
HETATM    2  C2  MIQ B 502     -22.018 -16.100   2.218  1.00141.17     0.195 A 
HETATM    3  C3  MIQ B 502     -22.198 -14.562   2.423  1.00141.71     0.035 A 
HETATM    4  C4  MIQ B 502     -23.359 -13.647   2.309  1.00142.86     0.046 A 
HETATM    5  C5  MIQ B 502     -23.208 -12.261   2.565  1.00139.53     0.031 A 
HETATM    6  C12 MIQ B 502     -21.904 -11.734   2.943  1.00139.38     0.030 A 
HETATM    7  C13 MIQ B 502     -20.791 -12.611   3.053  1.00141.18     0.019 A 
HETATM    8  C14 MIQ B 502     -20.956 -14.066   2.785  1.00138.77     0.033 A 
HETATM    9  C15 MIQ B 502     -20.001 -15.303   2.807  1.00142.10     0.195 A 
HETATM   10  N17 MIQ B 502     -20.744 -16.345   2.473  1.00139.42    -0.288 N 
HETATM   11  O16 MIQ B 502     -18.639 -15.302   3.113  1.00148.93    -0.171 OA
ENDROOT
BRANCH  10  12
HETATM   12  C18 MIQ B 502     -20.180 -17.678   2.374  1.00139.82     0.187 C 
HETATM   13  C19 MIQ B 502     -19.494 -17.996   3.709  1.00140.06     0.247 C 
HETATM   14  O25 MIQ B 502     -20.093 -17.845   4.714  1.00143.95    -0.271 OA
HETATM   15  N20 MIQ B 502     -18.132 -18.483   3.771  1.00140.02    -0.296 N 
HETATM   16  H13 MIQ B 502     -17.694 -18.681   4.649  1.00142.77     0.171 HD
HETATM   17  C21 MIQ B 502     -17.418 -18.649   2.531  1.00142.22     0.224 C 
HETATM   18  C22 MIQ B 502     -17.740 -17.666   1.422  1.00139.52     0.106 C 
HETATM   19  O24 MIQ B 502     -16.625 -19.513   2.386  1.00146.13    -0.273 OA
HETATM   20  C23 MIQ B 502     -19.234 -17.767   1.177  1.00139.15     0.045 C 
ENDBRANCH  10  12
BRANCH   5  21
HETATM   21  N6  MIQ B 502     -24.350 -11.375   2.435  1.00140.95    -0.377 N 
HETATM   22  C7  MIQ B 502     -24.626 -10.436   3.508  1.00142.12     0.149 C 
HETATM   23  C8  MIQ B 502     -26.102 -10.065   3.573  1.00144.10     0.187 C 
HETATM   24  O9  MIQ B 502     -26.631  -9.720   2.328  1.00148.65    -0.388 OA
HETATM   25  C10 MIQ B 502     -25.895  -9.942   1.161  1.00147.44     0.187 C 
HETATM   26  C11 MIQ B 502     -24.920 -11.114   1.125  1.00144.08     0.149 C 
ENDBRANCH   5  21
TORSDOF 2
ENDMDL
MODEL 3
REMARK VINA RESULT:      -6.6      2.188      8.488
REMARK  2 active torsions:
REMARK  status: ('A' for Active; 'I' for Inactive)
REMARK    1  A    between atoms: C5_5  and  N6_21 
REMARK    2  A    between atoms: C18_14  and  N17_19 
ROOT
HETATM    1  O1  MIQ B 502     -19.361 -13.461   3.952  1.00142.91    -0.171 OA
HETATM    2  C2  MIQ B 502     -20.179 -14.230   3.120  1.00141.17     0.195 A 
HETATM    3  C3  MIQ B 502     -21.656 -13.910   2.727  1.00141.71     0.035 A 
HETATM    4  C4  MIQ B 502     -22.583 -12.803   3.065  1.00142.86     0.046 A 
HETATM    5  C5  MIQ B 502     -23.900 -12.786   2.540  1.00139.53     0.031 A 
HETATM    6  C12 MIQ B 502     -24.342 -13.862   1.663  1.00139.38     0.030 A 
HETATM    7  C13 MIQ B 502     -23.454 -14.921   1.339  1.00141.18     0.019 A 
HETATM    8  C14 MIQ B 502     -22.072 -14.933   1.891  1.00138.77     0.033 A 
HETATM    9  C15 MIQ B 502     -20.845 -15.894   1.763  1.00142.10     0.195 A 
HETATM   10  N17 MIQ B 502     -19.884 -15.359   2.499  1.00139.42    -0.288 N 
HETATM   11  O16 MIQ B 502     -20.782 -17.076   1.023  1.00148.93    -0.171 OA
ENDROOT
BRANCH  10  12
HETATM   12  C18 MIQ B 502     -18.587 -15.997   2.631  1.00139.82     0.187 C 
HETATM   13  C19 MIQ B 502     -18.075 -16.310   1.219  1.00140.06     0.247 C 
HETATM   14  O25 MIQ B 502     -18.065 -15.455   0.407  1.00143.95    -0.271 OA
HETATM   15  N20 MIQ B 502     -17.597 -17.628   0.856  1.00140.02    -0.296 N 
HETATM   16  H13 MIQ B 502     -17.271 -17.821  -0.071  1.00142.77     0.171 HD
HETATM   17  C21 MIQ B 502     -17.628 -18.658   1.861  1.00142.22     0.224 C 
HETATM   18  C22 MIQ B 502     -18.766 -18.599   2.862  1.00139.52     0.106 C 
HETATM   19  O24 MIQ B 502     -16.804 -19.504   1.906  1.00146.13    -0.273 OA
HETATM   20  C23 MIQ B 502     -18.690 -17.234   3.521  1.00139.15     0.045 C 
ENDBRANCH  10  12
BRANCH   5  21
HETATM   21  N6  MIQ B 502     -24.802 -11.705   2.891  1.00140.95    -0.377 N 
HETATM   22  C7  MIQ B 502     -24.264 -10.551   3.591  1.00142.12     0.149 C 
HETATM   23  C8  MIQ B 502     -25.323  -9.853   4.434  1.00144.10     0.187 C 
HETATM   24  O9  MIQ B 502     -26.512  -9.627   3.737  1.00148.65    -0.388 OA
HETATM   25  C10 MIQ B 502     -26.721 -10.214   2.486  1.00147.44     0.187 C 
HETATM   26  C11 MIQ B 502     -26.069 -11.561   2.194  1.00144.08     0.149 C 
ENDBRANCH   5  21
TORSDOF 2
ENDMDL
MODEL 4
REMARK VINA RESULT:      -6.3      5.262      7.599
REMARK  2 active torsions:
REMARK  status: ('A' for Active; 'I' for Inactive)
REMARK    1  A    between atoms: C5_5  and  N6_21 
REMARK    2  A    between atoms: C18_14  and  N17_19 
ROOT
HETATM    1  O1  MIQ B 502     -17.790 -16.618   3.237  1.00142.91    -0.171 OA
HETATM    2  C2  MIQ B 502     -18.762 -17.604   3.422  1.00141.17     0.195 A 
HETATM    3  C3  MIQ B 502     -18.514 -19.145   3.467  1.00141.71     0.035 A 
HETATM    4  C4  MIQ B 502     -17.300 -19.987   3.345  1.00142.86     0.046 A 
HETATM    5  C5  MIQ B 502     -17.395 -21.399   3.431  1.00139.53     0.031 A 
HETATM    6  C12 MIQ B 502     -18.693 -22.024   3.642  1.00139.38     0.030 A 
HETATM    7  C13 MIQ B 502     -19.857 -21.218   3.760  1.00141.18     0.019 A 
HETATM    8  C14 MIQ B 502     -19.751 -19.736   3.671  1.00138.77     0.033 A 
HETATM    9  C15 MIQ B 502     -20.771 -18.554   3.754  1.00142.10     0.195 A 
HETATM   10  N17 MIQ B 502     -20.062 -17.448   3.600  1.00139.42    -0.288 N 
HETATM   11  O16 MIQ B 502     -22.150 -18.652   3.948  1.00148.93    -0.171 OA
ENDROOT
BRANCH  10  12
HETATM   12  C18 MIQ B 502     -20.689 -16.139   3.606  1.00139.82     0.187 C 
HETATM   13  C19 MIQ B 502     -20.130 -15.347   2.418  1.00140.06     0.247 C 
HETATM   14  O25 MIQ B 502     -20.140 -15.836   1.344  1.00143.95    -0.271 OA
HETATM   15  N20 MIQ B 502     -19.593 -14.011   2.576  1.00140.02    -0.296 N 
HETATM   16  H13 MIQ B 502     -19.225 -13.507   1.793  1.00142.77     0.171 HD
HETATM   17  C21 MIQ B 502     -19.582 -13.440   3.898  1.00142.22     0.224 C 
HETATM   18  C22 MIQ B 502     -19.369 -14.401   5.053  1.00139.52     0.106 C 
HETATM   19  O24 MIQ B 502     -19.736 -12.282   4.072  1.00146.13    -0.273 OA
HETATM   20  C23 MIQ B 502     -20.463 -15.448   4.950  1.00139.15     0.045 C 
ENDBRANCH  10  12
BRANCH   5  21
HETATM   21  N6  MIQ B 502     -16.200 -22.211   3.295  1.00140.95    -0.377 N 
HETATM   22  C7  MIQ B 502     -14.905 -21.554   3.335  1.00142.12     0.149 C 
HETATM   23  C8  MIQ B 502     -13.846 -22.337   2.571  1.00144.10     0.187 C 
HETATM   24  O9  MIQ B 502     -13.836 -23.696   2.893  1.00148.65    -0.388 OA
HETATM   25  C10 MIQ B 502     -14.865 -24.248   3.659  1.00147.44     0.187 C 
HETATM   26  C11 MIQ B 502     -16.259 -23.638   3.558  1.00144.08     0.149 C 
ENDBRANCH   5  21
TORSDOF 2
ENDMDL
MODEL 5
REMARK VINA RESULT:      -6.0     19.645     23.047
REMARK  2 active torsions:
REMARK  status: ('A' for Active; 'I' for Inactive)
REMARK    1  A    between atoms: C5_5  and  N6_21 
REMARK    2  A    between atoms: C18_14  and  N17_19 
ROOT
HETATM    1  O1  MIQ B 502     -19.222   5.497  12.559  1.00142.91    -0.171 OA
HETATM    2  C2  MIQ B 502     -18.898   5.203  13.886  1.00141.17     0.195 A 
HETATM    3  C3  MIQ B 502     -17.578   5.595  14.622  1.00141.71     0.035 A 
HETATM    4  C4  MIQ B 502     -16.360   6.333  14.207  1.00142.86     0.046 A 
HETATM    5  C5  MIQ B 502     -15.299   6.538  15.124  1.00139.53     0.031 A 
HETATM    6  C12 MIQ B 502     -15.407   6.021  16.481  1.00139.38     0.030 A 
HETATM    7  C13 MIQ B 502     -16.574   5.315  16.879  1.00141.18     0.019 A 
HETATM    8  C14 MIQ B 502     -17.686   5.105  15.913  1.00138.77     0.033 A 
HETATM    9  C15 MIQ B 502     -19.083   4.405  15.979  1.00142.10     0.195 A 
HETATM   10  N17 MIQ B 502     -19.622   4.552  14.780  1.00139.42    -0.288 N 
HETATM   11  O16 MIQ B 502     -19.640   3.755  17.081  1.00148.93    -0.171 OA
ENDROOT
BRANCH  10  12
HETATM   12  C18 MIQ B 502     -20.930   4.007  14.466  1.00139.82     0.187 C 
HETATM   13  C19 MIQ B 502     -20.780   3.118  13.225  1.00140.06     0.247 C 
HETATM   14  O25 MIQ B 502     -19.941   2.289  13.208  1.00143.95    -0.271 OA
HETATM   15  N20 MIQ B 502     -21.644   3.264  12.072  1.00140.02    -0.296 N 
HETATM   16  H13 MIQ B 502     -21.532   2.682  11.265  1.00142.77     0.171 HD
HETATM   17  C21 MIQ B 502     -22.654   4.291  12.112  1.00142.22     0.224 C 
HETATM   18  C22 MIQ B 502     -22.307   5.559  12.868  1.00139.52     0.106 C 
HETATM   19  O24 MIQ B 502     -23.702   4.147  11.585  1.00146.13    -0.273 OA
HETATM   20  C23 MIQ B 502     -21.945   5.133  14.280  1.00139.15     0.045 C 
ENDBRANCH  10  12
BRANCH   5  21
HETATM   21  N6  MIQ B 502     -14.107   7.249  14.700  1.00140.95    -0.377 N 
HETATM   22  C7  MIQ B 502     -14.261   8.426  13.864  1.00142.12     0.149 C 
HETATM   23  C8  MIQ B 502     -13.033   8.673  12.996  1.00144.10     0.187 C 
HETATM   24  O9  MIQ B 502     -11.838   8.602  13.714  1.00148.65    -0.388 OA
HETATM   25  C10 MIQ B 502     -11.827   8.122  15.026  1.00147.44     0.187 C 
HETATM   26  C11 MIQ B 502     -12.862   7.077  15.428  1.00144.08     0.149 C 
ENDBRANCH   5  21
TORSDOF 2
ENDMDL
MODEL 6
REMARK VINA RESULT:      -6.0      2.493      8.218
REMARK  2 active torsions:
REMARK  status: ('A' for Active; 'I' for Inactive)
REMARK    1  A    between atoms: C5_5  and  N6_21 
REMARK    2  A    between atoms: C18_14  and  N17_19 
ROOT
HETATM    1  O1  MIQ B 502     -24.171 -16.307   2.091  1.00142.91    -0.171 OA
HETATM    2  C2  MIQ B 502     -23.487 -15.136   2.425  1.00141.17     0.195 A 
HETATM    3  C3  MIQ B 502     -24.098 -13.701   2.500  1.00141.71     0.035 A 
HETATM    4  C4  MIQ B 502     -25.458 -13.159   2.271  1.00142.86     0.046 A 
HETATM    5  C5  MIQ B 502     -25.712 -11.772   2.422  1.00139.53     0.031 A 
HETATM    6  C12 MIQ B 502     -24.630 -10.877   2.805  1.00139.38     0.030 A 
HETATM    7  C13 MIQ B 502     -23.326 -11.396   3.026  1.00141.18     0.019 A 
HETATM    8  C14 MIQ B 502     -23.066 -12.853   2.868  1.00138.77     0.033 A 
HETATM    9  C15 MIQ B 502     -21.807 -13.768   3.023  1.00142.10     0.195 A 
HETATM   10  N17 MIQ B 502     -22.212 -14.996   2.746  1.00139.42    -0.288 N 
HETATM   11  O16 MIQ B 502     -20.519 -13.364   3.379  1.00148.93    -0.171 OA
ENDROOT
BRANCH  10  12
HETATM   12  C18 MIQ B 502     -21.295 -16.120   2.774  1.00139.82     0.187 C 
HETATM   13  C19 MIQ B 502     -20.532 -16.069   4.104  1.00140.06     0.247 C 
HETATM   14  O25 MIQ B 502     -21.137 -15.969   5.111  1.00143.95    -0.271 OA
HETATM   15  N20 MIQ B 502     -19.087 -16.145   4.158  1.00140.02    -0.296 N 
HETATM   16  H13 MIQ B 502     -18.600 -16.103   5.032  1.00142.77     0.171 HD
HETATM   17  C21 MIQ B 502     -18.370 -16.256   2.914  1.00142.22     0.224 C 
HETATM   18  C22 MIQ B 502     -18.970 -15.546   1.716  1.00139.52     0.106 C 
HETATM   19  O24 MIQ B 502     -17.367 -16.876   2.832  1.00146.13    -0.273 OA
HETATM   20  C23 MIQ B 502     -20.378 -16.089   1.553  1.00139.15     0.045 C 
ENDBRANCH  10  12
BRANCH   5  21
HETATM   21  N6  MIQ B 502     -27.046 -11.253   2.179  1.00140.95    -0.377 N 
HETATM   22  C7  MIQ B 502     -28.178 -11.942   2.775  1.00142.12     0.149 C 
HETATM   23  C8  MIQ B 502     -29.456 -11.734   1.972  1.00144.10     0.187 C 
HETATM   24  O9  MIQ B 502     -29.679 -10.396   1.641  1.00148.65    -0.388 OA
HETATM   25  C10 MIQ B 502     -28.681  -9.441   1.848  1.00147.44     0.187 C 
HETATM   26  C11 MIQ B 502     -27.222  -9.876   1.752  1.00144.08     0.149 C 
ENDBRANCH   5  21
TORSDOF 2
ENDMDL
MODEL 7
REMARK VINA RESULT:      -6.0      2.136      3.190
REMARK  2 active torsions:
REMARK  status: ('A' for Active; 'I' for Inactive)
REMARK    1  A    between atoms: C5_5  and  N6_21 
REMARK    2  A    between atoms: C18_14  and  N17_19 
ROOT
HETATM    1  O1  MIQ B 502     -24.614 -15.993   3.439  1.00142.91    -0.171 OA
HETATM    2  C2  MIQ B 502     -23.617 -15.027   3.288  1.00141.17     0.195 A 
HETATM    3  C3  MIQ B 502     -22.082 -15.294   3.182  1.00141.71     0.035 A 
HETATM    4  C4  MIQ B 502     -21.259 -16.526   3.200  1.00142.86     0.046 A 
HETATM    5  C5  MIQ B 502     -19.848 -16.447   3.079  1.00139.53     0.031 A 
HETATM    6  C12 MIQ B 502     -19.207 -15.148   2.935  1.00139.38     0.030 A 
HETATM    7  C13 MIQ B 502     -19.996 -13.967   2.916  1.00141.18     0.019 A 
HETATM    8  C14 MIQ B 502     -21.476 -14.056   3.042  1.00138.77     0.033 A 
HETATM    9  C15 MIQ B 502     -22.642 -13.014   3.060  1.00142.10     0.195 A 
HETATM   10  N17 MIQ B 502     -23.756 -13.715   3.200  1.00139.42    -0.288 N 
HETATM   11  O16 MIQ B 502     -22.526 -11.627   2.953  1.00148.93    -0.171 OA
ENDROOT
BRANCH  10  12
HETATM   12  C18 MIQ B 502     -25.053 -13.069   3.273  1.00139.82     0.187 C 
HETATM   13  C19 MIQ B 502     -25.201 -12.176   2.035  1.00140.06     0.247 C 
HETATM   14  O25 MIQ B 502     -24.997 -12.633   0.967  1.00143.95    -0.271 OA
HETATM   15  N20 MIQ B 502     -25.592 -10.785   2.139  1.00140.02    -0.296 N 
HETATM   16  H13 MIQ B 502     -25.679 -10.210   1.324  1.00142.77     0.171 HD
HETATM   17  C21 MIQ B 502     -25.826 -10.247   3.455  1.00142.22     0.224 C 
HETATM   18  C22 MIQ B 502     -24.972 -10.801   4.579  1.00139.52     0.106 C 
HETATM   19  O24 MIQ B 502     -26.646  -9.418   3.646  1.00146.13    -0.273 OA
HETATM   20  C23 MIQ B 502     -25.192 -12.303   4.587  1.00139.15     0.045 C 
ENDBRANCH  10  12
BRANCH   5  21
HETATM   21  N6  MIQ B 502     -19.053 -17.661   3.113  1.00140.95    -0.377 N 
HETATM   22  C7  MIQ B 502     -19.700 -18.924   2.803  1.00142.12     0.149 C 
HETATM   23  C8  MIQ B 502     -19.001 -20.101   3.472  1.00144.10     0.187 C 
HETATM   24  O9  MIQ B 502     -17.616 -20.081   3.298  1.00148.65    -0.388 OA
HETATM   25  C10 MIQ B 502     -16.986 -18.954   2.764  1.00147.44     0.187 C 
HETATM   26  C11 MIQ B 502     -17.606 -17.584   3.015  1.00144.08     0.149 C 
ENDBRANCH   5  21
TORSDOF 2
ENDMDL
MODEL 8
REMARK VINA RESULT:      -5.9     31.511     33.962
REMARK  2 active torsions:
REMARK  status: ('A' for Active; 'I' for Inactive)
REMARK    1  A    between atoms: C5_5  and  N6_21 
REMARK    2  A    between atoms: C18_14  and  N17_19 
ROOT
HETATM    1  O1  MIQ B 502      -3.692   5.556  20.772  1.00142.91    -0.171 OA
HETATM    2  C2  MIQ B 502      -4.192   6.485  21.687  1.00141.17     0.195 A 
HETATM    3  C3  MIQ B 502      -5.216   7.623  21.378  1.00141.71     0.035 A 
HETATM    4  C4  MIQ B 502      -5.925   8.051  20.148  1.00142.86     0.046 A 
HETATM    5  C5  MIQ B 502      -6.820   9.150  20.182  1.00139.53     0.031 A 
HETATM    6  C12 MIQ B 502      -7.043   9.862  21.432  1.00139.38     0.030 A 
HETATM    7  C13 MIQ B 502      -6.365   9.451  22.612  1.00141.18     0.019 A 
HETATM    8  C14 MIQ B 502      -5.428   8.295  22.571  1.00138.77     0.033 A 
HETATM    9  C15 MIQ B 502      -4.531   7.569  23.626  1.00142.10     0.195 A 
HETATM   10  N17 MIQ B 502      -3.919   6.594  22.975  1.00139.42    -0.288 N 
HETATM   11  O16 MIQ B 502      -4.405   7.891  24.978  1.00148.93    -0.171 OA
ENDROOT
BRANCH  10  12
HETATM   12  C18 MIQ B 502      -2.982   5.710  23.643  1.00139.82     0.187 C 
HETATM   13  C19 MIQ B 502      -1.658   5.761  22.871  1.00140.06     0.247 C 
HETATM   14  O25 MIQ B 502      -1.175   6.809  22.625  1.00143.95    -0.271 OA
HETATM   15  N20 MIQ B 502      -0.978   4.557  22.439  1.00140.02    -0.296 N 
HETATM   16  H13 MIQ B 502      -0.118   4.605  21.930  1.00142.77     0.171 HD
HETATM   17  C21 MIQ B 502      -1.592   3.290  22.742  1.00142.22     0.224 C 
HETATM   18  C22 MIQ B 502      -3.108   3.252  22.748  1.00139.52     0.106 C 
HETATM   19  O24 MIQ B 502      -0.944   2.331  22.980  1.00146.13    -0.273 OA
HETATM   20  C23 MIQ B 502      -3.563   4.300  23.747  1.00139.15     0.045 C 
ENDBRANCH  10  12
BRANCH   5  21
HETATM   21  N6  MIQ B 502      -7.495   9.567  18.967  1.00140.95    -0.377 N 
HETATM   22  C7  MIQ B 502      -8.804   9.009  18.674  1.00142.12     0.149 C 
HETATM   23  C8  MIQ B 502      -9.094   8.994  17.178  1.00144.10     0.187 C 
HETATM   24  O9  MIQ B 502      -8.812  10.213  16.558  1.00148.65    -0.388 OA
HETATM   25  C10 MIQ B 502      -8.121  11.214  17.246  1.00147.44     0.187 C 
HETATM   26  C11 MIQ B 502      -7.108  10.802  18.309  1.00144.08     0.149 C 
ENDBRANCH   5  21
TORSDOF 2
ENDMDL
MODEL 9
REMARK VINA RESULT:      -5.8     19.617     22.920
REMARK  2 active torsions:
REMARK  status: ('A' for Active; 'I' for Inactive)
REMARK    1  A    between atoms: C5_5  and  N6_21 
REMARK    2  A    between atoms: C18_14  and  N17_19 
ROOT
HETATM    1  O1  MIQ B 502     -19.349   5.299  13.186  1.00142.91    -0.171 OA
HETATM    2  C2  MIQ B 502     -19.226   4.868  14.508  1.00141.17     0.195 A 
HETATM    3  C3  MIQ B 502     -17.999   5.107  15.446  1.00141.71     0.035 A 
HETATM    4  C4  MIQ B 502     -16.700   5.798  15.268  1.00142.86     0.046 A 
HETATM    5  C5  MIQ B 502     -15.765   5.851  16.332  1.00139.53     0.031 A 
HETATM    6  C12 MIQ B 502     -16.084   5.224  17.607  1.00139.38     0.030 A 
HETATM    7  C13 MIQ B 502     -17.331   4.563  17.778  1.00141.18     0.019 A 
HETATM    8  C14 MIQ B 502     -18.309   4.512  16.658  1.00138.77     0.033 A 
HETATM    9  C15 MIQ B 502     -19.736   3.902  16.472  1.00142.10     0.195 A 
HETATM   10  N17 MIQ B 502     -20.098   4.189  15.233  1.00139.42    -0.288 N 
HETATM   11  O16 MIQ B 502     -20.473   3.195  17.424  1.00148.93    -0.171 OA
ENDROOT
BRANCH  10  12
HETATM   12  C18 MIQ B 502     -21.377   3.760  14.698  1.00139.82     0.187 C 
HETATM   13  C19 MIQ B 502     -21.107   2.991  13.399  1.00140.06     0.247 C 
HETATM   14  O25 MIQ B 502     -20.315   2.117  13.401  1.00143.95    -0.271 OA
HETATM   15  N20 MIQ B 502     -21.802   3.304  12.167  1.00140.02    -0.296 N 
HETATM   16  H13 MIQ B 502     -21.612   2.799  11.324  1.00142.77     0.171 HD
HETATM   17  C21 MIQ B 502     -22.757   4.382  12.187  1.00142.22     0.224 C 
HETATM   18  C22 MIQ B 502     -22.453   5.545  13.113  1.00139.52     0.106 C 
HETATM   19  O24 MIQ B 502     -23.731   4.357  11.519  1.00146.13    -0.273 OA
HETATM   20  C23 MIQ B 502     -22.303   4.960  14.505  1.00139.15     0.045 C 
ENDBRANCH  10  12
BRANCH   5  21
HETATM   21  N6  MIQ B 502     -14.490   6.518  16.139  1.00140.95    -0.377 N 
HETATM   22  C7  MIQ B 502     -13.368   6.126  16.975  1.00142.12     0.149 C 
HETATM   23  C8  MIQ B 502     -12.360   7.257  17.139  1.00144.10     0.187 C 
HETATM   24  O9  MIQ B 502     -12.019   7.862  15.928  1.00148.65    -0.388 OA
HETATM   25  C10 MIQ B 502     -12.738   7.572  14.765  1.00147.44     0.187 C 
HETATM   26  C11 MIQ B 502     -14.214   7.208  14.892  1.00144.08     0.149 C 
ENDBRANCH   5  21
TORSDOF 2
ENDMDL
