MODEL 1
REMARK VINA RESULT:      -6.8      0.000      0.000
REMARK  2 active torsions:
REMARK  status: ('A' for Active; 'I' for Inactive)
REMARK    1  A    between atoms: C5_5  and  N6_21 
REMARK    2  A    between atoms: C18_14  and  N17_19 
ROOT
HETATM    1  O1  MIQ B 502     -25.772 -11.701   0.051  1.00142.91    -0.171 OA
HETATM    2  C2  MIQ B 502     -25.497 -10.507   0.721  1.00141.17     0.195 A 
HETATM    3  C3  MIQ B 502     -25.007 -10.370   2.198  1.00141.71     0.035 A 
HETATM    4  C4  MIQ B 502     -24.701 -11.351   3.265  1.00142.86     0.046 A 
HETATM    5  C5  MIQ B 502     -24.262 -10.911   4.540  1.00139.53     0.031 A 
HETATM    6  C12 MIQ B 502     -24.112  -9.486   4.800  1.00139.38     0.030 A 
HETATM    7  C13 MIQ B 502     -24.404  -8.545   3.776  1.00141.18     0.019 A 
HETATM    8  C14 MIQ B 502     -24.862  -9.013   2.440  1.00138.77     0.033 A 
HETATM    9  C15 MIQ B 502     -25.263  -8.304   1.105  1.00142.10     0.195 A 
HETATM   10  N17 MIQ B 502     -25.584  -9.271   0.260  1.00139.42    -0.288 N 
HETATM   11  O16 MIQ B 502     -25.280  -6.930   0.861  1.00148.93    -0.171 OA
ENDROOT
BRANCH  10  12
HETATM   12  C18 MIQ B 502     -26.027  -8.980  -1.090  1.00139.82     0.187 C 
HETATM   13  C19 MIQ B 502     -27.366  -9.695  -1.308  1.00140.06     0.247 C 
HETATM   14  O25 MIQ B 502     -28.231  -9.549  -0.519  1.00143.95    -0.271 OA
HETATM   15  N20 MIQ B 502     -27.602 -10.542  -2.459  1.00140.02    -0.296 N 
HETATM   16  H13 MIQ B 502     -28.478 -11.008  -2.586  1.00142.77     0.171 HD
HETATM   17  C21 MIQ B 502     -26.527 -10.713  -3.402  1.00142.22     0.224 C 
HETATM   18  C22 MIQ B 502     -25.119 -10.706  -2.838  1.00139.52     0.106 C 
HETATM   19  O24 MIQ B 502     -26.734 -10.848  -4.557  1.00146.13    -0.273 OA
HETATM   20  C23 MIQ B 502     -24.956  -9.389  -2.101  1.00139.15     0.045 C 
ENDBRANCH  10  12
BRANCH   5  21
HETATM   21  N6  MIQ B 502     -23.980 -11.883   5.580  1.00140.95    -0.377 N 
HETATM   22  C7  MIQ B 502     -24.632 -11.729   6.870  1.00142.12     0.149 C 
HETATM   23  C8  MIQ B 502     -23.818 -12.350   7.997  1.00144.10     0.187 C 
HETATM   24  O9  MIQ B 502     -23.377 -13.642   7.701  1.00148.65    -0.388 OA
HETATM   25  C10 MIQ B 502     -23.503 -14.154   6.407  1.00147.44     0.187 C 
HETATM   26  C11 MIQ B 502     -23.441 -13.185   5.230  1.00144.08     0.149 C 
ENDBRANCH   5  21
TORSDOF 2
ENDMDL
MODEL 2
REMARK VINA RESULT:      -6.5     19.562     22.715
REMARK  2 active torsions:
REMARK  status: ('A' for Active; 'I' for Inactive)
REMARK    1  A    between atoms: C5_5  and  N6_21 
REMARK    2  A    between atoms: C18_14  and  N17_19 
ROOT
HETATM    1  O1  MIQ B 502     -19.352   8.995  -1.708  1.00142.91    -0.171 OA
HETATM    2  C2  MIQ B 502     -20.094  10.173  -1.822  1.00141.17     0.195 A 
HETATM    3  C3  MIQ B 502     -21.465  10.331  -2.553  1.00141.71     0.035 A 
HETATM    4  C4  MIQ B 502     -22.343   9.390  -3.288  1.00142.86     0.046 A 
HETATM    5  C5  MIQ B 502     -23.561   9.841  -3.856  1.00139.53     0.031 A 
HETATM    6  C12 MIQ B 502     -23.951  11.237  -3.716  1.00139.38     0.030 A 
HETATM    7  C13 MIQ B 502     -23.110  12.140  -3.010  1.00141.18     0.019 A 
HETATM    8  C14 MIQ B 502     -21.833  11.660  -2.414  1.00138.77     0.033 A 
HETATM    9  C15 MIQ B 502     -20.685  12.329  -1.591  1.00142.10     0.195 A 
HETATM   10  N17 MIQ B 502     -19.807  11.371  -1.343  1.00139.42    -0.288 N 
HETATM   11  O16 MIQ B 502     -20.605  13.668  -1.202  1.00148.93    -0.171 OA
ENDROOT
BRANCH  10  12
HETATM   12  C18 MIQ B 502     -18.587  11.635  -0.604  1.00139.82     0.187 C 
HETATM   13  C19 MIQ B 502     -17.406  11.194  -1.478  1.00140.06     0.247 C 
HETATM   14  O25 MIQ B 502     -17.338  11.579  -2.591  1.00143.95    -0.271 OA
HETATM   15  N20 MIQ B 502     -16.365  10.322  -0.973  1.00140.02    -0.296 N 
HETATM   16  H13 MIQ B 502     -15.603  10.036  -1.555  1.00142.77     0.171 HD
HETATM   17  C21 MIQ B 502     -16.476   9.857   0.386  1.00142.22     0.224 C 
HETATM   18  C22 MIQ B 502     -17.878   9.622   0.914  1.00139.52     0.106 C 
HETATM   19  O24 MIQ B 502     -15.519   9.674   1.056  1.00146.13    -0.273 OA
HETATM   20  C23 MIQ B 502     -18.625  10.933   0.753  1.00139.15     0.045 C 
ENDBRANCH  10  12
BRANCH   5  21
HETATM   21  N6  MIQ B 502     -24.404   8.912  -4.586  1.00140.95    -0.377 N 
HETATM   22  C7  MIQ B 502     -24.614   9.132  -6.006  1.00142.12     0.149 C 
HETATM   23  C8  MIQ B 502     -25.938   8.548  -6.483  1.00144.10     0.187 C 
HETATM   24  O9  MIQ B 502     -26.142   7.238  -6.046  1.00148.65    -0.388 OA
HETATM   25  C10 MIQ B 502     -25.299   6.672  -5.087  1.00147.44     0.187 C 
HETATM   26  C11 MIQ B 502     -24.659   7.587  -4.048  1.00144.08     0.149 C 
ENDBRANCH   5  21
TORSDOF 2
ENDMDL
MODEL 3
REMARK VINA RESULT:      -6.5      2.288      7.685
REMARK  2 active torsions:
REMARK  status: ('A' for Active; 'I' for Inactive)
REMARK    1  A    between atoms: C5_5  and  N6_21 
REMARK    2  A    between atoms: C18_14  and  N17_19 
ROOT
HETATM    1  O1  MIQ B 502     -26.712 -11.751   2.725  1.00142.91    -0.171 OA
HETATM    2  C2  MIQ B 502     -25.821 -10.745   2.344  1.00141.17     0.195 A 
HETATM    3  C3  MIQ B 502     -25.360 -10.425   0.887  1.00141.71     0.035 A 
HETATM    4  C4  MIQ B 502     -25.680 -11.014  -0.436  1.00142.86     0.046 A 
HETATM    5  C5  MIQ B 502     -25.088 -10.493  -1.614  1.00139.53     0.031 A 
HETATM    6  C12 MIQ B 502     -24.162  -9.373  -1.523  1.00139.38     0.030 A 
HETATM    7  C13 MIQ B 502     -23.856  -8.808  -0.256  1.00141.18     0.019 A 
HETATM    8  C14 MIQ B 502     -24.482  -9.357   0.977  1.00138.77     0.033 A 
HETATM    9  C15 MIQ B 502     -24.399  -9.012   2.500  1.00142.10     0.195 A 
HETATM   10  N17 MIQ B 502     -25.198  -9.869   3.113  1.00139.42    -0.288 N 
HETATM   11  O16 MIQ B 502     -23.632  -8.004   3.088  1.00148.93    -0.171 OA
ENDROOT
BRANCH  10  12
HETATM   12  C18 MIQ B 502     -25.360  -9.855   4.555  1.00139.82     0.187 C 
HETATM   13  C19 MIQ B 502     -25.041 -11.262   5.076  1.00140.06     0.247 C 
HETATM   14  O25 MIQ B 502     -24.033 -11.781   4.751  1.00143.95    -0.271 OA
HETATM   15  N20 MIQ B 502     -25.942 -11.971   5.961  1.00140.02    -0.296 N 
HETATM   16  H13 MIQ B 502     -25.725 -12.892   6.289  1.00142.77     0.171 HD
HETATM   17  C21 MIQ B 502     -27.171 -11.320   6.335  1.00142.22     0.224 C 
HETATM   18  C22 MIQ B 502     -27.808 -10.418   5.296  1.00139.52     0.106 C 
HETATM   19  O24 MIQ B 502     -27.655 -11.479   7.402  1.00146.13    -0.273 OA
HETATM   20  C23 MIQ B 502     -26.764  -9.380   4.928  1.00139.15     0.045 C 
ENDBRANCH  10  12
BRANCH   5  21
HETATM   21  N6  MIQ B 502     -25.399 -11.088  -2.901  1.00140.95    -0.377 N 
HETATM   22  C7  MIQ B 502     -26.174 -12.317  -2.929  1.00142.12     0.149 C 
HETATM   23  C8  MIQ B 502     -25.885 -13.143  -4.175  1.00144.10     0.187 C 
HETATM   24  O9  MIQ B 502     -25.922 -12.388  -5.349  1.00148.65    -0.388 OA
HETATM   25  C10 MIQ B 502     -25.987 -10.993  -5.291  1.00147.44     0.187 C 
HETATM   26  C11 MIQ B 502     -25.340 -10.282  -4.107  1.00144.08     0.149 C 
ENDBRANCH   5  21
TORSDOF 2
ENDMDL
MODEL 4
REMARK VINA RESULT:      -5.9      2.599      4.320
REMARK  2 active torsions:
REMARK  status: ('A' for Active; 'I' for Inactive)
REMARK    1  A    between atoms: C5_5  and  N6_21 
REMARK    2  A    between atoms: C18_14  and  N17_19 
ROOT
HETATM    1  O1  MIQ B 502     -27.091 -13.019  -1.710  1.00142.91    -0.171 OA
HETATM    2  C2  MIQ B 502     -26.339 -11.901  -2.078  1.00141.17     0.195 A 
HETATM    3  C3  MIQ B 502     -25.559 -10.956  -1.109  1.00141.71     0.035 A 
HETATM    4  C4  MIQ B 502     -25.373 -10.931   0.361  1.00142.86     0.046 A 
HETATM    5  C5  MIQ B 502     -24.586  -9.920   0.967  1.00139.53     0.031 A 
HETATM    6  C12 MIQ B 502     -23.957  -8.901   0.140  1.00139.38     0.030 A 
HETATM    7  C13 MIQ B 502     -24.133  -8.924  -1.270  1.00141.18     0.019 A 
HETATM    8  C14 MIQ B 502     -24.959  -9.990  -1.901  1.00138.77     0.033 A 
HETATM    9  C15 MIQ B 502     -25.368 -10.338  -3.370  1.00142.10     0.195 A 
HETATM   10  N17 MIQ B 502     -26.126 -11.420  -3.291  1.00139.42    -0.288 N 
HETATM   11  O16 MIQ B 502     -25.007  -9.644  -4.525  1.00148.93    -0.171 OA
ENDROOT
BRANCH  10  12
HETATM   12  C18 MIQ B 502     -26.706 -12.026  -4.474  1.00139.82     0.187 C 
HETATM   13  C19 MIQ B 502     -28.217 -12.152  -4.243  1.00140.06     0.247 C 
HETATM   14  O25 MIQ B 502     -28.826 -11.205  -3.889  1.00143.95    -0.271 OA
HETATM   15  N20 MIQ B 502     -28.920 -13.401  -4.452  1.00140.02    -0.296 N 
HETATM   16  H13 MIQ B 502     -29.906 -13.471  -4.291  1.00142.77     0.171 HD
HETATM   17  C21 MIQ B 502     -28.153 -14.545  -4.873  1.00142.22     0.224 C 
HETATM   18  C22 MIQ B 502     -26.733 -14.642  -4.352  1.00139.52     0.106 C 
HETATM   19  O24 MIQ B 502     -28.609 -15.362  -5.595  1.00146.13    -0.273 OA
HETATM   20  C23 MIQ B 502     -26.030 -13.364  -4.772  1.00139.15     0.045 C 
ENDBRANCH  10  12
BRANCH   5  21
HETATM   21  N6  MIQ B 502     -24.425  -9.899   2.410  1.00140.95    -0.377 N 
HETATM   22  C7  MIQ B 502     -24.001  -8.663   3.044  1.00142.12     0.149 C 
HETATM   23  C8  MIQ B 502     -23.273  -8.918   4.357  1.00144.10     0.187 C 
HETATM   24  O9  MIQ B 502     -23.949  -9.814   5.188  1.00148.65    -0.388 OA
HETATM   25  C10 MIQ B 502     -25.042 -10.538   4.707  1.00147.44     0.187 C 
HETATM   26  C11 MIQ B 502     -25.080 -10.906   3.227  1.00144.08     0.149 C 
ENDBRANCH   5  21
TORSDOF 2
ENDMDL
MODEL 5
REMARK VINA RESULT:      -5.9     25.501     28.563
REMARK  2 active torsions:
REMARK  status: ('A' for Active; 'I' for Inactive)
REMARK    1  A    between atoms: C5_5  and  N6_21 
REMARK    2  A    between atoms: C18_14  and  N17_19 
ROOT
HETATM    1  O1  MIQ B 502     -14.907  13.381  -8.080  1.00142.91    -0.171 OA
HETATM    2  C2  MIQ B 502     -15.697  13.710  -9.184  1.00141.17     0.195 A 
HETATM    3  C3  MIQ B 502     -16.184  12.727 -10.295  1.00141.71     0.035 A 
HETATM    4  C4  MIQ B 502     -15.998  11.274 -10.524  1.00142.86     0.046 A 
HETATM    5  C5  MIQ B 502     -16.581  10.646 -11.653  1.00139.53     0.031 A 
HETATM    6  C12 MIQ B 502     -17.368  11.433 -12.592  1.00139.38     0.030 A 
HETATM    7  C13 MIQ B 502     -17.548  12.825 -12.372  1.00141.18     0.019 A 
HETATM    8  C14 MIQ B 502     -16.935  13.479 -11.184  1.00138.77     0.033 A 
HETATM    9  C15 MIQ B 502     -16.914  14.938 -10.621  1.00142.10     0.195 A 
HETATM   10  N17 MIQ B 502     -16.191  14.891  -9.514  1.00139.42    -0.288 N 
HETATM   11  O16 MIQ B 502     -17.532  16.058 -11.179  1.00148.93    -0.171 OA
ENDROOT
BRANCH  10  12
HETATM   12  C18 MIQ B 502     -15.940  16.081  -8.723  1.00139.82     0.187 C 
HETATM   13  C19 MIQ B 502     -14.425  16.197  -8.518  1.00140.06     0.247 C 
HETATM   14  O25 MIQ B 502     -13.711  16.132  -9.455  1.00143.95    -0.271 OA
HETATM   15  N20 MIQ B 502     -13.844  16.389  -7.205  1.00140.02    -0.296 N 
HETATM   16  H13 MIQ B 502     -12.853  16.456  -7.084  1.00142.77     0.171 HD
HETATM   17  C21 MIQ B 502     -14.736  16.453  -6.076  1.00142.22     0.224 C 
HETATM   18  C22 MIQ B 502     -15.990  15.604  -6.148  1.00139.52     0.106 C 
HETATM   19  O24 MIQ B 502     -14.502  17.140  -5.142  1.00146.13    -0.273 OA
HETATM   20  C23 MIQ B 502     -16.721  16.022  -7.411  1.00139.15     0.045 C 
ENDBRANCH  10  12
BRANCH   5  21
HETATM   21  N6  MIQ B 502     -16.377   9.226 -11.873  1.00140.95    -0.377 N 
HETATM   22  C7  MIQ B 502     -17.246   8.285 -11.186  1.00142.12     0.149 C 
HETATM   23  C8  MIQ B 502     -16.570   6.936 -10.975  1.00144.10     0.187 C 
HETATM   24  O9  MIQ B 502     -15.957   6.449 -12.131  1.00148.65    -0.388 OA
HETATM   25  C10 MIQ B 502     -15.815   7.266 -13.255  1.00147.44     0.187 C 
HETATM   26  C11 MIQ B 502     -15.658   8.769 -13.049  1.00144.08     0.149 C 
ENDBRANCH   5  21
TORSDOF 2
ENDMDL
MODEL 6
REMARK VINA RESULT:      -5.9     12.256     15.319
REMARK  2 active torsions:
REMARK  status: ('A' for Active; 'I' for Inactive)
REMARK    1  A    between atoms: C5_5  and  N6_21 
REMARK    2  A    between atoms: C18_14  and  N17_19 
ROOT
HETATM    1  O1  MIQ B 502     -18.221  -9.856  -9.639  1.00142.91    -0.171 OA
HETATM    2  C2  MIQ B 502     -17.192  -9.017  -9.206  1.00141.17     0.195 A 
HETATM    3  C3  MIQ B 502     -15.660  -9.292  -9.338  1.00141.71     0.035 A 
HETATM    4  C4  MIQ B 502     -14.871 -10.410  -9.907  1.00142.86     0.046 A 
HETATM    5  C5  MIQ B 502     -13.454 -10.372  -9.881  1.00139.53     0.031 A 
HETATM    6  C12 MIQ B 502     -12.772  -9.229  -9.292  1.00139.38     0.030 A 
HETATM    7  C13 MIQ B 502     -13.528  -8.156  -8.748  1.00141.18     0.019 A 
HETATM    8  C14 MIQ B 502     -15.016  -8.200  -8.780  1.00138.77     0.033 A 
HETATM    9  C15 MIQ B 502     -16.154  -7.241  -8.299  1.00142.10     0.195 A 
HETATM   10  N17 MIQ B 502     -17.291  -7.840  -8.612  1.00139.42    -0.288 N 
HETATM   11  O16 MIQ B 502     -15.996  -6.007  -7.666  1.00148.93    -0.171 OA
ENDROOT
BRANCH  10  12
HETATM   12  C18 MIQ B 502     -18.574  -7.239  -8.297  1.00139.82     0.187 C 
HETATM   13  C19 MIQ B 502     -19.418  -8.294  -7.571  1.00140.06     0.247 C 
HETATM   14  O25 MIQ B 502     -18.959  -8.861  -6.644  1.00143.95    -0.271 OA
HETATM   15  N20 MIQ B 502     -20.770  -8.610  -7.987  1.00140.02    -0.296 N 
HETATM   16  H13 MIQ B 502     -21.308  -9.305  -7.508  1.00142.77     0.171 HD
HETATM   17  C21 MIQ B 502     -21.305  -7.911  -9.127  1.00142.22     0.224 C 
HETATM   18  C22 MIQ B 502     -20.323  -7.542 -10.222  1.00139.52     0.106 C 
HETATM   19  O24 MIQ B 502     -22.452  -7.635  -9.200  1.00146.13    -0.273 OA
HETATM   20  C23 MIQ B 502     -19.238  -6.708  -9.566  1.00139.15     0.045 C 
ENDBRANCH  10  12
BRANCH   5  21
HETATM   21  N6  MIQ B 502     -12.694 -11.481 -10.429  1.00140.95    -0.377 N 
HETATM   22  C7  MIQ B 502     -12.388 -12.608  -9.565  1.00142.12     0.149 C 
HETATM   23  C8  MIQ B 502     -11.122 -13.333 -10.003  1.00144.10     0.187 C 
HETATM   24  O9  MIQ B 502     -11.099 -13.608 -11.371  1.00148.65    -0.388 OA
HETATM   25  C10 MIQ B 502     -12.052 -13.042 -12.223  1.00147.44     0.187 C 
HETATM   26  C11 MIQ B 502     -12.629 -11.676 -11.867  1.00144.08     0.149 C 
ENDBRANCH   5  21
TORSDOF 2
ENDMDL
MODEL 7
REMARK VINA RESULT:      -5.9     23.884     26.699
REMARK  2 active torsions:
REMARK  status: ('A' for Active; 'I' for Inactive)
REMARK    1  A    between atoms: C5_5  and  N6_21 
REMARK    2  A    between atoms: C18_14  and  N17_19 
ROOT
HETATM    1  O1  MIQ B 502     -17.283  16.007  -2.758  1.00142.91    -0.171 OA
HETATM    2  C2  MIQ B 502     -16.999  15.119  -1.719  1.00141.17     0.195 A 
HETATM    3  C3  MIQ B 502     -17.776  13.804  -1.392  1.00141.71     0.035 A 
HETATM    4  C4  MIQ B 502     -18.943  13.130  -2.007  1.00142.86     0.046 A 
HETATM    5  C5  MIQ B 502     -19.432  11.911  -1.472  1.00139.53     0.031 A 
HETATM    6  C12 MIQ B 502     -18.782  11.319  -0.312  1.00139.38     0.030 A 
HETATM    7  C13 MIQ B 502     -17.662  11.965   0.278  1.00141.18     0.019 A 
HETATM    8  C14 MIQ B 502     -17.152  13.242  -0.289  1.00138.77     0.033 A 
HETATM    9  C15 MIQ B 502     -15.981  14.214   0.069  1.00142.10     0.195 A 
HETATM   10  N17 MIQ B 502     -16.035  15.195  -0.817  1.00139.42    -0.288 N 
HETATM   11  O16 MIQ B 502     -15.068  14.073   1.116  1.00148.93    -0.171 OA
ENDROOT
BRANCH  10  12
HETATM   12  C18 MIQ B 502     -15.097  16.301  -0.781  1.00139.82     0.187 C 
HETATM   13  C19 MIQ B 502     -13.680  15.714  -0.813  1.00140.06     0.247 C 
HETATM   14  O25 MIQ B 502     -13.401  14.927  -1.646  1.00143.95    -0.271 OA
HETATM   15  N20 MIQ B 502     -12.671  16.104   0.150  1.00140.02    -0.296 N 
HETATM   16  H13 MIQ B 502     -11.752  15.709   0.123  1.00142.77     0.171 HD
HETATM   17  C21 MIQ B 502     -13.039  17.059   1.164  1.00142.22     0.224 C 
HETATM   18  C22 MIQ B 502     -14.470  17.007   1.661  1.00139.52     0.106 C 
HETATM   19  O24 MIQ B 502     -12.262  17.846   1.582  1.00146.13    -0.273 OA
HETATM   20  C23 MIQ B 502     -15.357  17.179   0.442  1.00139.15     0.045 C 
ENDBRANCH  10  12
BRANCH   5  21
HETATM   21  N6  MIQ B 502     -20.586  11.270  -2.076  1.00140.95    -0.377 N 
HETATM   22  C7  MIQ B 502     -20.948  11.630  -3.436  1.00142.12     0.149 C 
HETATM   23  C8  MIQ B 502     -22.434  11.424  -3.703  1.00144.10     0.187 C 
HETATM   24  O9  MIQ B 502     -22.896  10.179  -3.272  1.00148.65    -0.388 OA
HETATM   25  C10 MIQ B 502     -22.087   9.359  -2.481  1.00147.44     0.187 C 
HETATM   26  C11 MIQ B 502     -21.083  10.016  -1.538  1.00144.08     0.149 C 
ENDBRANCH   5  21
TORSDOF 2
ENDMDL
MODEL 8
REMARK VINA RESULT:      -5.9     20.561     22.631
REMARK  2 active torsions:
REMARK  status: ('A' for Active; 'I' for Inactive)
REMARK    1  A    between atoms: C5_5  and  N6_21 
REMARK    2  A    between atoms: C18_14  and  N17_19 
ROOT
HETATM    1  O1  MIQ B 502     -23.966  10.377   8.858  1.00142.91    -0.171 OA
HETATM    2  C2  MIQ B 502     -24.161   9.887  10.152  1.00141.17     0.195 A 
HETATM    3  C3  MIQ B 502     -25.446   9.176  10.684  1.00141.71     0.035 A 
HETATM    4  C4  MIQ B 502     -26.745   8.820  10.064  1.00142.86     0.046 A 
HETATM    5  C5  MIQ B 502     -27.743   8.158  10.823  1.00139.53     0.031 A 
HETATM    6  C12 MIQ B 502     -27.490   7.826  12.218  1.00139.38     0.030 A 
HETATM    7  C13 MIQ B 502     -26.245   8.167  12.812  1.00141.18     0.019 A 
HETATM    8  C14 MIQ B 502     -25.199   8.860  12.010  1.00138.77     0.033 A 
HETATM    9  C15 MIQ B 502     -23.753   9.376  12.302  1.00142.10     0.195 A 
HETATM   10  N17 MIQ B 502     -23.322   9.913  11.172  1.00139.42    -0.288 N 
HETATM   11  O16 MIQ B 502     -23.062   9.289  13.512  1.00148.93    -0.171 OA
ENDROOT
BRANCH  10  12
HETATM   12  C18 MIQ B 502     -22.006  10.516  11.074  1.00139.82     0.187 C 
HETATM   13  C19 MIQ B 502     -22.184  11.947  10.552  1.00140.06     0.247 C 
HETATM   14  O25 MIQ B 502     -22.957  12.662  11.084  1.00143.95    -0.271 OA
HETATM   15  N20 MIQ B 502     -21.425  12.449   9.425  1.00140.02    -0.296 N 
HETATM   16  H13 MIQ B 502     -21.555  13.383   9.090  1.00142.77     0.171 HD
HETATM   17  C21 MIQ B 502     -20.495  11.554   8.786  1.00142.22     0.224 C 
HETATM   18  C22 MIQ B 502     -20.876  10.087   8.751  1.00139.52     0.106 C 
HETATM   19  O24 MIQ B 502     -19.483  11.946   8.318  1.00146.13    -0.273 OA
HETATM   20  C23 MIQ B 502     -21.095   9.664  10.192  1.00139.15     0.045 C 
ENDBRANCH  10  12
BRANCH   5  21
HETATM   21  N6  MIQ B 502     -29.016   7.828  10.207  1.00140.95    -0.377 N 
HETATM   22  C7  MIQ B 502     -30.153   7.554  11.068  1.00142.12     0.149 C 
HETATM   23  C8  MIQ B 502     -31.167   6.637  10.396  1.00144.10     0.187 C 
HETATM   24  O9  MIQ B 502     -31.485   7.039   9.097  1.00148.65    -0.388 OA
HETATM   25  C10 MIQ B 502     -30.742   8.038   8.464  1.00147.44     0.187 C 
HETATM   26  C11 MIQ B 502     -29.268   8.191   8.824  1.00144.08     0.149 C 
ENDBRANCH   5  21
TORSDOF 2
ENDMDL
MODEL 9
REMARK VINA RESULT:      -5.9      2.600      4.670
REMARK  2 active torsions:
REMARK  status: ('A' for Active; 'I' for Inactive)
REMARK    1  A    between atoms: C5_5  and  N6_21 
REMARK    2  A    between atoms: C18_14  and  N17_19 
ROOT
HETATM    1  O1  MIQ B 502     -27.936 -12.606  -1.381  1.00142.91    -0.171 OA
HETATM    2  C2  MIQ B 502     -26.960 -11.774  -1.933  1.00141.17     0.195 A 
HETATM    3  C3  MIQ B 502     -25.906 -10.936  -1.140  1.00141.71     0.035 A 
HETATM    4  C4  MIQ B 502     -25.618 -10.765   0.303  1.00142.86     0.046 A 
HETATM    5  C5  MIQ B 502     -24.567  -9.914   0.728  1.00139.53     0.031 A 
HETATM    6  C12 MIQ B 502     -23.766  -9.206  -0.261  1.00139.38     0.030 A 
HETATM    7  C13 MIQ B 502     -24.041  -9.371  -1.645  1.00141.18     0.019 A 
HETATM    8  C14 MIQ B 502     -25.145 -10.267  -2.085  1.00138.77     0.033 A 
HETATM    9  C15 MIQ B 502     -25.729 -10.693  -3.472  1.00142.10     0.195 A 
HETATM   10  N17 MIQ B 502     -26.721 -11.527  -3.210  1.00139.42    -0.288 N 
HETATM   11  O16 MIQ B 502     -25.290 -10.271  -4.728  1.00148.93    -0.171 OA
ENDROOT
BRANCH  10  12
HETATM   12  C18 MIQ B 502     -27.514 -12.118  -4.272  1.00139.82     0.187 C 
HETATM   13  C19 MIQ B 502     -26.550 -12.798  -5.252  1.00140.06     0.247 C 
HETATM   14  O25 MIQ B 502     -25.740 -13.548  -4.836  1.00143.95    -0.271 OA
HETATM   15  N20 MIQ B 502     -26.609 -12.548  -6.678  1.00140.02    -0.296 N 
HETATM   16  H13 MIQ B 502     -25.969 -12.993  -7.306  1.00142.77     0.171 HD
HETATM   17  C21 MIQ B 502     -27.599 -11.620  -7.160  1.00142.22     0.224 C 
HETATM   18  C22 MIQ B 502     -27.942 -10.456  -6.249  1.00139.52     0.106 C 
HETATM   19  O24 MIQ B 502     -28.120 -11.763  -8.210  1.00146.13    -0.273 OA
HETATM   20  C23 MIQ B 502     -28.394 -11.058  -4.932  1.00139.15     0.045 C 
ENDBRANCH  10  12
BRANCH   5  21
HETATM   21  N6  MIQ B 502     -24.305  -9.744   2.146  1.00140.95    -0.377 N 
HETATM   22  C7  MIQ B 502     -24.025  -8.409   2.645  1.00142.12     0.149 C 
HETATM   23  C8  MIQ B 502     -23.172  -8.441   3.907  1.00144.10     0.187 C 
HETATM   24  O9  MIQ B 502     -23.644  -9.347   4.859  1.00148.65    -0.388 OA
HETATM   25  C10 MIQ B 502     -24.650 -10.259   4.529  1.00147.44     0.187 C 
HETATM   26  C11 MIQ B 502     -24.740 -10.757   3.091  1.00144.08     0.149 C 
ENDBRANCH   5  21
TORSDOF 2
ENDMDL
