MODEL 1
REMARK VINA RESULT:      -6.6      0.000      0.000
REMARK  2 active torsions:
REMARK  status: ('A' for Active; 'I' for Inactive)
REMARK    1  A    between atoms: C5_5  and  N6_21 
REMARK    2  A    between atoms: C18_14  and  N17_19 
ROOT
HETATM    1  O1  MIQ B 502      11.206 -24.548  -5.347  1.00142.91    -0.171 OA
HETATM    2  C2  MIQ B 502      10.440 -24.977  -4.260  1.00141.17     0.195 A 
HETATM    3  C3  MIQ B 502      10.657 -24.578  -2.766  1.00141.71     0.035 A 
HETATM    4  C4  MIQ B 502      11.636 -23.706  -2.075  1.00142.86     0.046 A 
HETATM    5  C5  MIQ B 502      11.577 -23.535  -0.669  1.00139.53     0.031 A 
HETATM    6  C12 MIQ B 502      10.547 -24.219   0.100  1.00139.38     0.030 A 
HETATM    7  C13 MIQ B 502       9.607 -25.055  -0.562  1.00141.18     0.019 A 
HETATM    8  C14 MIQ B 502       9.673 -25.229  -2.039  1.00138.77     0.033 A 
HETATM    9  C15 MIQ B 502       8.841 -26.035  -3.089  1.00142.10     0.195 A 
HETATM   10  N17 MIQ B 502       9.394 -25.785  -4.264  1.00139.42    -0.288 N 
HETATM   11  O16 MIQ B 502       7.740 -26.855  -2.831  1.00148.93    -0.171 OA
ENDROOT
BRANCH  10  12
HETATM   12  C18 MIQ B 502       8.886 -26.385  -5.483  1.00139.82     0.187 C 
HETATM   13  C19 MIQ B 502      10.046 -27.130  -6.156  1.00140.06     0.247 C 
HETATM   14  O25 MIQ B 502      10.685 -27.893  -5.522  1.00143.95    -0.271 OA
HETATM   15  N20 MIQ B 502      10.376 -26.928  -7.552  1.00140.02    -0.296 N 
HETATM   16  H13 MIQ B 502      11.140 -27.415  -7.977  1.00142.77     0.171 HD
HETATM   17  C21 MIQ B 502       9.588 -25.983  -8.301  1.00142.22     0.224 C 
HETATM   18  C22 MIQ B 502       9.066 -24.778  -7.543  1.00139.52     0.106 C 
HETATM   19  O24 MIQ B 502       9.357 -26.145  -9.449  1.00146.13    -0.273 OA
HETATM   20  C23 MIQ B 502       8.256 -25.319  -6.379  1.00139.15     0.045 C 
ENDBRANCH  10  12
BRANCH   5  21
HETATM   21  N6  MIQ B 502      12.552 -22.689  -0.004  1.00140.95    -0.377 N 
HETATM   22  C7  MIQ B 502      12.532 -22.615   1.447  1.00142.12     0.149 C 
HETATM   23  C8  MIQ B 502      13.099 -21.296   1.956  1.00144.10     0.187 C 
HETATM   24  O9  MIQ B 502      14.315 -20.960   1.358  1.00148.65    -0.388 OA
HETATM   25  C10 MIQ B 502      14.782 -21.677   0.254  1.00147.44     0.187 C 
HETATM   26  C11 MIQ B 502      13.764 -22.294  -0.700  1.00144.08     0.149 C 
ENDBRANCH   5  21
TORSDOF 2
ENDMDL
MODEL 2
REMARK VINA RESULT:      -6.5      2.139      8.741
REMARK  2 active torsions:
REMARK  status: ('A' for Active; 'I' for Inactive)
REMARK    1  A    between atoms: C5_5  and  N6_21 
REMARK    2  A    between atoms: C18_14  and  N17_19 
ROOT
HETATM    1  O1  MIQ B 502      14.114 -22.188   0.174  1.00142.91    -0.171 OA
HETATM    2  C2  MIQ B 502      13.054 -22.855   0.792  1.00141.17     0.195 A 
HETATM    3  C3  MIQ B 502      11.941 -23.683   0.073  1.00141.71     0.035 A 
HETATM    4  C4  MIQ B 502      11.669 -24.006  -1.348  1.00142.86     0.046 A 
HETATM    5  C5  MIQ B 502      10.551 -24.804  -1.700  1.00139.53     0.031 A 
HETATM    6  C12 MIQ B 502       9.667 -25.309  -0.659  1.00139.38     0.030 A 
HETATM    7  C13 MIQ B 502       9.929 -25.000   0.703  1.00141.18     0.019 A 
HETATM    8  C14 MIQ B 502      11.105 -24.164   1.067  1.00138.77     0.033 A 
HETATM    9  C15 MIQ B 502      11.702 -23.632   2.411  1.00142.10     0.195 A 
HETATM   10  N17 MIQ B 502      12.775 -22.932   2.082  1.00139.42    -0.288 N 
HETATM   11  O16 MIQ B 502      11.199 -23.853   3.694  1.00148.93    -0.171 OA
ENDROOT
BRANCH  10  12
HETATM   12  C18 MIQ B 502      13.583 -22.268   3.087  1.00139.82     0.187 C 
HETATM   13  C19 MIQ B 502      13.676 -20.785   2.708  1.00140.06     0.247 C 
HETATM   14  O25 MIQ B 502      12.686 -20.187   2.474  1.00143.95    -0.271 OA
HETATM   15  N20 MIQ B 502      14.947 -20.093   2.635  1.00140.02    -0.296 N 
HETATM   16  H13 MIQ B 502      14.994 -19.126   2.380  1.00142.77     0.171 HD
HETATM   17  C21 MIQ B 502      16.142 -20.847   2.915  1.00142.22     0.224 C 
HETATM   18  C22 MIQ B 502      16.137 -22.308   2.508  1.00139.52     0.106 C 
HETATM   19  O24 MIQ B 502      17.077 -20.350   3.440  1.00146.13    -0.273 OA
HETATM   20  C23 MIQ B 502      14.948 -22.945   3.204  1.00139.15     0.045 C 
ENDBRANCH  10  12
BRANCH   5  21
HETATM   21  N6  MIQ B 502      10.288 -25.100  -3.097  1.00140.95    -0.377 N 
HETATM   22  C7  MIQ B 502       8.912 -25.299  -3.517  1.00142.12     0.149 C 
HETATM   23  C8  MIQ B 502       8.817 -26.193  -4.747  1.00144.10     0.187 C 
HETATM   24  O9  MIQ B 502       9.703 -25.821  -5.760  1.00148.65    -0.388 OA
HETATM   25  C10 MIQ B 502      10.701 -24.875  -5.514  1.00147.44     0.187 C 
HETATM   26  C11 MIQ B 502      11.279 -24.772  -4.107  1.00144.08     0.149 C 
ENDBRANCH   5  21
TORSDOF 2
ENDMDL
MODEL 3
REMARK VINA RESULT:      -6.4      2.553      9.016
REMARK  2 active torsions:
REMARK  status: ('A' for Active; 'I' for Inactive)
REMARK    1  A    between atoms: C5_5  and  N6_21 
REMARK    2  A    between atoms: C18_14  and  N17_19 
ROOT
HETATM    1  O1  MIQ B 502      15.666 -22.906  -0.142  1.00142.91    -0.171 OA
HETATM    2  C2  MIQ B 502      14.471 -22.755   0.564  1.00141.17     0.195 A 
HETATM    3  C3  MIQ B 502      13.040 -23.102   0.041  1.00141.71     0.035 A 
HETATM    4  C4  MIQ B 502      12.528 -23.651  -1.237  1.00142.86     0.046 A 
HETATM    5  C5  MIQ B 502      11.138 -23.863  -1.420  1.00139.53     0.031 A 
HETATM    6  C12 MIQ B 502      10.211 -23.541  -0.345  1.00139.38     0.030 A 
HETATM    7  C13 MIQ B 502      10.702 -23.016   0.881  1.00141.18     0.019 A 
HETATM    8  C14 MIQ B 502      12.162 -22.797   1.068  1.00138.77     0.033 A 
HETATM    9  C15 MIQ B 502      13.052 -22.259   2.235  1.00142.10     0.195 A 
HETATM   10  N17 MIQ B 502      14.298 -22.303   1.795  1.00139.42    -0.288 N 
HETATM   11  O16 MIQ B 502      12.614 -21.818   3.485  1.00148.93    -0.171 OA
ENDROOT
BRANCH  10  12
HETATM   12  C18 MIQ B 502      15.409 -21.859   2.616  1.00139.82     0.187 C 
HETATM   13  C19 MIQ B 502      16.212 -20.836   1.803  1.00140.06     0.247 C 
HETATM   14  O25 MIQ B 502      15.648 -19.932   1.297  1.00143.95    -0.271 OA
HETATM   15  N20 MIQ B 502      17.647 -20.946   1.643  1.00140.02    -0.296 N 
HETATM   16  H13 MIQ B 502      18.159 -20.276   1.104  1.00142.77     0.171 HD
HETATM   17  C21 MIQ B 502      18.311 -22.065   2.261  1.00142.22     0.224 C 
HETATM   18  C22 MIQ B 502      17.533 -23.364   2.334  1.00139.52     0.106 C 
HETATM   19  O24 MIQ B 502      19.407 -21.971   2.694  1.00146.13    -0.273 OA
HETATM   20  C23 MIQ B 502      16.244 -23.053   3.073  1.00139.15     0.045 C 
ENDBRANCH  10  12
BRANCH   5  21
HETATM   21  N6  MIQ B 502      10.649 -24.387  -2.682  1.00140.95    -0.377 N 
HETATM   22  C7  MIQ B 502      11.615 -24.852  -3.662  1.00142.12     0.149 C 
HETATM   23  C8  MIQ B 502      11.075 -24.755  -5.083  1.00144.10     0.187 C 
HETATM   24  O9  MIQ B 502       9.790 -25.285  -5.214  1.00148.65    -0.388 OA
HETATM   25  C10 MIQ B 502       9.049 -25.632  -4.081  1.00147.44     0.187 C 
HETATM   26  C11 MIQ B 502       9.276 -24.848  -2.793  1.00144.08     0.149 C 
ENDBRANCH   5  21
TORSDOF 2
ENDMDL
MODEL 4
REMARK VINA RESULT:      -6.2      2.287      8.067
REMARK  2 active torsions:
REMARK  status: ('A' for Active; 'I' for Inactive)
REMARK    1  A    between atoms: C5_5  and  N6_21 
REMARK    2  A    between atoms: C18_14  and  N17_19 
ROOT
HETATM    1  O1  MIQ B 502      11.786 -22.683  -1.645  1.00142.91    -0.171 OA
HETATM    2  C2  MIQ B 502      12.103 -24.044  -1.670  1.00141.17     0.195 A 
HETATM    3  C3  MIQ B 502      11.781 -25.045  -2.825  1.00141.71     0.035 A 
HETATM    4  C4  MIQ B 502      11.110 -24.903  -4.138  1.00142.86     0.046 A 
HETATM    5  C5  MIQ B 502      10.964 -26.024  -4.994  1.00139.53     0.031 A 
HETATM    6  C12 MIQ B 502      11.478 -27.322  -4.578  1.00139.38     0.030 A 
HETATM    7  C13 MIQ B 502      12.123 -27.457  -3.319  1.00141.18     0.019 A 
HETATM    8  C14 MIQ B 502      12.275 -26.276  -2.426  1.00138.77     0.033 A 
HETATM    9  C15 MIQ B 502      12.907 -26.038  -1.016  1.00142.10     0.195 A 
HETATM   10  N17 MIQ B 502      12.730 -24.755  -0.748  1.00139.42    -0.288 N 
HETATM   11  O16 MIQ B 502      13.529 -26.991  -0.208  1.00148.93    -0.171 OA
ENDROOT
BRANCH  10  12
HETATM   12  C18 MIQ B 502      13.183 -24.172   0.501  1.00139.82     0.187 C 
HETATM   13  C19 MIQ B 502      12.002 -23.414   1.119  1.00140.06     0.247 C 
HETATM   14  O25 MIQ B 502      10.964 -23.962   1.239  1.00143.95    -0.271 OA
HETATM   15  N20 MIQ B 502      12.125 -22.041   1.565  1.00140.02    -0.296 N 
HETATM   16  H13 MIQ B 502      11.344 -21.555   1.960  1.00142.77     0.171 HD
HETATM   17  C21 MIQ B 502      13.398 -21.389   1.398  1.00142.22     0.224 C 
HETATM   18  C22 MIQ B 502      14.212 -21.786   0.181  1.00139.52     0.106 C 
HETATM   19  O24 MIQ B 502      13.790 -20.589   2.174  1.00146.13    -0.273 OA
HETATM   20  C23 MIQ B 502      14.406 -23.289   0.263  1.00139.15     0.045 C 
ENDBRANCH  10  12
BRANCH   5  21
HETATM   21  N6  MIQ B 502      10.291 -25.874  -6.271  1.00140.95    -0.377 N 
HETATM   22  C7  MIQ B 502       9.743 -27.058  -6.910  1.00142.12     0.149 C 
HETATM   23  C8  MIQ B 502       9.668 -26.904  -8.424  1.00144.10     0.187 C 
HETATM   24  O9  MIQ B 502       9.097 -25.693  -8.820  1.00148.65    -0.388 OA
HETATM   25  C10 MIQ B 502       8.861 -24.683  -7.884  1.00147.44     0.187 C 
HETATM   26  C11 MIQ B 502       9.789 -24.574  -6.678  1.00144.08     0.149 C 
ENDBRANCH   5  21
TORSDOF 2
ENDMDL
MODEL 5
REMARK VINA RESULT:      -6.1     23.461     25.204
REMARK  2 active torsions:
REMARK  status: ('A' for Active; 'I' for Inactive)
REMARK    1  A    between atoms: C5_5  and  N6_21 
REMARK    2  A    between atoms: C18_14  and  N17_19 
ROOT
HETATM    1  O1  MIQ B 502      32.868 -20.769 -13.451  1.00142.91    -0.171 OA
HETATM    2  C2  MIQ B 502      32.585 -21.697 -14.456  1.00141.17     0.195 A 
HETATM    3  C3  MIQ B 502      32.442 -23.241 -14.271  1.00141.71     0.035 A 
HETATM    4  C4  MIQ B 502      32.545 -24.141 -13.098  1.00142.86     0.046 A 
HETATM    5  C5  MIQ B 502      32.359 -25.539 -13.248  1.00139.53     0.031 A 
HETATM    6  C12 MIQ B 502      32.065 -26.091 -14.563  1.00139.38     0.030 A 
HETATM    7  C13 MIQ B 502      31.965 -25.229 -15.687  1.00141.18     0.019 A 
HETATM    8  C14 MIQ B 502      32.159 -23.762 -15.523  1.00138.77     0.033 A 
HETATM    9  C15 MIQ B 502      32.125 -22.534 -16.490  1.00142.10     0.195 A 
HETATM   10  N17 MIQ B 502      32.377 -21.473 -15.742  1.00139.42    -0.288 N 
HETATM   11  O16 MIQ B 502      31.880 -22.559 -17.865  1.00148.93    -0.171 OA
ENDROOT
BRANCH  10  12
HETATM   12  C18 MIQ B 502      32.441 -20.141 -16.314  1.00139.82     0.187 C 
HETATM   13  C19 MIQ B 502      33.789 -19.526 -15.918  1.00140.06     0.247 C 
HETATM   14  O25 MIQ B 502      34.779 -20.137 -16.113  1.00143.95    -0.271 OA
HETATM   15  N20 MIQ B 502      33.882 -18.212 -15.317  1.00140.02    -0.296 N 
HETATM   16  H13 MIQ B 502      34.768 -17.824 -15.057  1.00142.77     0.171 HD
HETATM   17  C21 MIQ B 502      32.658 -17.490 -15.080  1.00142.22     0.224 C 
HETATM   18  C22 MIQ B 502      31.438 -18.317 -14.724  1.00139.52     0.106 C 
HETATM   19  O24 MIQ B 502      32.609 -16.312 -15.164  1.00146.13    -0.273 OA
HETATM   20  C23 MIQ B 502      31.243 -19.308 -15.857  1.00139.15     0.045 C 
ENDBRANCH  10  12
BRANCH   5  21
HETATM   21  N6  MIQ B 502      32.478 -26.410 -12.093  1.00140.95    -0.377 N 
HETATM   22  C7  MIQ B 502      31.329 -27.211 -11.707  1.00142.12     0.149 C 
HETATM   23  C8  MIQ B 502      31.340 -27.542 -10.220  1.00144.10     0.187 C 
HETATM   24  O9  MIQ B 502      32.576 -28.018  -9.779  1.00148.65    -0.388 OA
HETATM   25  C10 MIQ B 502      33.699 -27.949 -10.608  1.00147.44     0.187 C 
HETATM   26  C11 MIQ B 502      33.790 -26.810 -11.618  1.00144.08     0.149 C 
ENDBRANCH   5  21
TORSDOF 2
ENDMDL
MODEL 6
REMARK VINA RESULT:      -6.1     18.641     21.721
REMARK  2 active torsions:
REMARK  status: ('A' for Active; 'I' for Inactive)
REMARK    1  A    between atoms: C5_5  and  N6_21 
REMARK    2  A    between atoms: C18_14  and  N17_19 
ROOT
HETATM    1  O1  MIQ B 502      24.989  -8.551  -2.004  1.00142.91    -0.171 OA
HETATM    2  C2  MIQ B 502      24.129  -9.264  -2.842  1.00141.17     0.195 A 
HETATM    3  C3  MIQ B 502      24.324  -9.508  -4.372  1.00141.71     0.035 A 
HETATM    4  C4  MIQ B 502      25.372  -9.111  -5.342  1.00142.86     0.046 A 
HETATM    5  C5  MIQ B 502      25.271  -9.494  -6.703  1.00139.53     0.031 A 
HETATM    6  C12 MIQ B 502      24.131 -10.281  -7.150  1.00139.38     0.030 A 
HETATM    7  C13 MIQ B 502      23.126 -10.662  -6.221  1.00141.18     0.019 A 
HETATM    8  C14 MIQ B 502      23.238 -10.260  -4.792  1.00138.77     0.033 A 
HETATM    9  C15 MIQ B 502      22.365 -10.484  -3.515  1.00142.10     0.195 A 
HETATM   10  N17 MIQ B 502      22.999  -9.873  -2.527  1.00139.42    -0.288 N 
HETATM   11  O16 MIQ B 502      21.161 -11.186  -3.438  1.00148.93    -0.171 OA
ENDROOT
BRANCH  10  12
HETATM   12  C18 MIQ B 502      22.464  -9.859  -1.178  1.00139.82     0.187 C 
HETATM   13  C19 MIQ B 502      22.366  -8.396  -0.729  1.00140.06     0.247 C 
HETATM   14  O25 MIQ B 502      21.822  -7.615  -1.426  1.00143.95    -0.271 OA
HETATM   15  N20 MIQ B 502      22.917  -7.946   0.533  1.00140.02    -0.296 N 
HETATM   16  H13 MIQ B 502      22.852  -6.987   0.811  1.00142.77     0.171 HD
HETATM   17  C21 MIQ B 502      23.585  -8.916   1.361  1.00142.22     0.224 C 
HETATM   18  C22 MIQ B 502      24.336 -10.022   0.645  1.00139.52     0.106 C 
HETATM   19  O24 MIQ B 502      23.543  -8.854   2.541  1.00146.13    -0.273 OA
HETATM   20  C23 MIQ B 502      23.329 -10.715  -0.254  1.00139.15     0.045 C 
ENDBRANCH  10  12
BRANCH   5  21
HETATM   21  N6  MIQ B 502      26.298  -9.086  -7.645  1.00140.95    -0.377 N 
HETATM   22  C7  MIQ B 502      27.432  -8.325  -7.150  1.00142.12     0.149 C 
HETATM   23  C8  MIQ B 502      28.044  -7.446  -8.233  1.00144.10     0.187 C 
HETATM   24  O9  MIQ B 502      28.262  -8.131  -9.430  1.00148.65    -0.388 OA
HETATM   25  C10 MIQ B 502      27.736  -9.412  -9.618  1.00147.44     0.187 C 
HETATM   26  C11 MIQ B 502      26.431  -9.775  -8.917  1.00144.08     0.149 C 
ENDBRANCH   5  21
TORSDOF 2
ENDMDL
MODEL 7
REMARK VINA RESULT:      -6.0     17.729     20.668
REMARK  2 active torsions:
REMARK  status: ('A' for Active; 'I' for Inactive)
REMARK    1  A    between atoms: C5_5  and  N6_21 
REMARK    2  A    between atoms: C18_14  and  N17_19 
ROOT
HETATM    1  O1  MIQ B 502      20.769  -9.868  -6.781  1.00142.91    -0.171 OA
HETATM    2  C2  MIQ B 502      21.322  -9.403  -7.976  1.00141.17     0.195 A 
HETATM    3  C3  MIQ B 502      20.548  -9.126  -9.304  1.00141.71     0.035 A 
HETATM    4  C4  MIQ B 502      19.124  -9.246  -9.697  1.00142.86     0.046 A 
HETATM    5  C5  MIQ B 502      18.712  -8.910 -11.012  1.00139.53     0.031 A 
HETATM    6  C12 MIQ B 502      19.695  -8.443 -11.979  1.00139.38     0.030 A 
HETATM    7  C13 MIQ B 502      21.060  -8.327 -11.602  1.00141.18     0.019 A 
HETATM    8  C14 MIQ B 502      21.486  -8.679 -10.220  1.00138.77     0.033 A 
HETATM    9  C15 MIQ B 502      22.850  -8.679  -9.456  1.00142.10     0.195 A 
HETATM   10  N17 MIQ B 502      22.583  -9.102  -8.232  1.00139.42    -0.288 N 
HETATM   11  O16 MIQ B 502      24.095  -8.309  -9.969  1.00148.93    -0.171 OA
ENDROOT
BRANCH  10  12
HETATM   12  C18 MIQ B 502      23.628  -9.245  -7.235  1.00139.82     0.187 C 
HETATM   13  C19 MIQ B 502      23.588 -10.688  -6.719  1.00140.06     0.247 C 
HETATM   14  O25 MIQ B 502      23.594 -11.577  -7.494  1.00143.95    -0.271 OA
HETATM   15  N20 MIQ B 502      23.549 -10.992  -5.303  1.00140.02    -0.296 N 
HETATM   16  H13 MIQ B 502      23.516 -11.939  -4.980  1.00142.77     0.171 HD
HETATM   17  C21 MIQ B 502      23.532  -9.890  -4.377  1.00142.22     0.224 C 
HETATM   18  C22 MIQ B 502      22.807  -8.635  -4.825  1.00139.52     0.106 C 
HETATM   19  O24 MIQ B 502      24.061  -9.960  -3.323  1.00146.13    -0.273 OA
HETATM   20  C23 MIQ B 502      23.454  -8.206  -6.129  1.00139.15     0.045 C 
ENDBRANCH  10  12
BRANCH   5  21
HETATM   21  N6  MIQ B 502      17.317  -9.046 -11.388  1.00140.95    -0.377 N 
HETATM   22  C7  MIQ B 502      16.423  -9.760 -10.492  1.00142.12     0.149 C 
HETATM   23  C8  MIQ B 502      15.246 -10.377 -11.237  1.00144.10     0.187 C 
HETATM   24  O9  MIQ B 502      14.626  -9.481 -12.110  1.00148.65    -0.388 OA
HETATM   25  C10 MIQ B 502      15.216  -8.248 -12.395  1.00147.44     0.187 C 
HETATM   26  C11 MIQ B 502      16.737  -8.143 -12.366  1.00144.08     0.149 C 
ENDBRANCH   5  21
TORSDOF 2
ENDMDL
MODEL 8
REMARK VINA RESULT:      -6.0      1.600      2.260
REMARK  2 active torsions:
REMARK  status: ('A' for Active; 'I' for Inactive)
REMARK    1  A    between atoms: C5_5  and  N6_21 
REMARK    2  A    between atoms: C18_14  and  N17_19 
ROOT
HETATM    1  O1  MIQ B 502      13.282 -25.652  -4.160  1.00142.91    -0.171 OA
HETATM    2  C2  MIQ B 502      12.030 -25.300  -3.650  1.00141.17     0.195 A 
HETATM    3  C3  MIQ B 502      11.763 -24.430  -2.380  1.00141.71     0.035 A 
HETATM    4  C4  MIQ B 502      12.650 -23.757  -1.402  1.00142.86     0.046 A 
HETATM    5  C5  MIQ B 502      12.098 -23.017  -0.325  1.00139.53     0.031 A 
HETATM    6  C12 MIQ B 502      10.653 -22.919  -0.182  1.00139.38     0.030 A 
HETATM    7  C13 MIQ B 502       9.802 -23.564  -1.121  1.00141.18     0.019 A 
HETATM    8  C14 MIQ B 502      10.387 -24.337  -2.250  1.00138.77     0.033 A 
HETATM    9  C15 MIQ B 502       9.797 -25.153  -3.446  1.00142.10     0.195 A 
HETATM   10  N17 MIQ B 502      10.836 -25.615  -4.121  1.00139.42    -0.288 N 
HETATM   11  O16 MIQ B 502       8.446 -25.352  -3.735  1.00148.93    -0.171 OA
ENDROOT
BRANCH  10  12
HETATM   12  C18 MIQ B 502      10.665 -26.441  -5.302  1.00139.82     0.187 C 
HETATM   13  C19 MIQ B 502       9.742 -25.690  -6.269  1.00140.06     0.247 C 
HETATM   14  O25 MIQ B 502       9.989 -24.570  -6.547  1.00143.95    -0.271 OA
HETATM   15  N20 MIQ B 502       8.578 -26.318  -6.857  1.00140.02    -0.296 N 
HETATM   16  H13 MIQ B 502       7.979 -25.815  -7.482  1.00142.77     0.171 HD
HETATM   17  C21 MIQ B 502       8.292 -27.683  -6.495  1.00142.22     0.224 C 
HETATM   18  C22 MIQ B 502       8.652 -28.102  -5.083  1.00139.52     0.106 C 
HETATM   19  O24 MIQ B 502       7.806 -28.437  -7.264  1.00146.13    -0.273 OA
HETATM   20  C23 MIQ B 502      10.134 -27.820  -4.914  1.00139.15     0.045 C 
ENDBRANCH  10  12
BRANCH   5  21
HETATM   21  N6  MIQ B 502      12.978 -22.375   0.634  1.00140.95    -0.377 N 
HETATM   22  C7  MIQ B 502      14.223 -21.798   0.157  1.00142.12     0.149 C 
HETATM   23  C8  MIQ B 502      15.286 -21.759   1.247  1.00144.10     0.187 C 
HETATM   24  O9  MIQ B 502      14.810 -21.239   2.452  1.00148.65    -0.388 OA
HETATM   25  C10 MIQ B 502      13.443 -21.020   2.638  1.00147.44     0.187 C 
HETATM   26  C11 MIQ B 502      12.454 -21.927   1.913  1.00144.08     0.149 C 
ENDBRANCH   5  21
TORSDOF 2
ENDMDL
MODEL 9
REMARK VINA RESULT:      -6.0      2.052      3.170
REMARK  2 active torsions:
REMARK  status: ('A' for Active; 'I' for Inactive)
REMARK    1  A    between atoms: C5_5  and  N6_21 
REMARK    2  A    between atoms: C18_14  and  N17_19 
ROOT
HETATM    1  O1  MIQ B 502       7.609 -27.536  -3.311  1.00142.91    -0.171 OA
HETATM    2  C2  MIQ B 502       8.598 -26.587  -3.581  1.00141.17     0.195 A 
HETATM    3  C3  MIQ B 502       9.305 -25.668  -2.534  1.00141.71     0.035 A 
HETATM    4  C4  MIQ B 502       9.179 -25.513  -1.066  1.00142.86     0.046 A 
HETATM    5  C5  MIQ B 502       9.980 -24.569  -0.374  1.00139.53     0.031 A 
HETATM    6  C12 MIQ B 502      10.930 -23.749  -1.111  1.00139.38     0.030 A 
HETATM    7  C13 MIQ B 502      11.051 -23.898  -2.519  1.00141.18     0.019 A 
HETATM    8  C14 MIQ B 502      10.210 -24.892  -3.240  1.00138.77     0.033 A 
HETATM    9  C15 MIQ B 502      10.065 -25.333  -4.733  1.00142.10     0.195 A 
HETATM   10  N17 MIQ B 502       9.138 -26.276  -4.747  1.00139.42    -0.288 N 
HETATM   11  O16 MIQ B 502      10.772 -24.828  -5.826  1.00148.93    -0.171 OA
ENDROOT
BRANCH  10  12
HETATM   12  C18 MIQ B 502       8.726 -26.915  -5.984  1.00139.82     0.187 C 
HETATM   13  C19 MIQ B 502       9.979 -27.498  -6.649  1.00140.06     0.247 C 
HETATM   14  O25 MIQ B 502      10.699 -28.185  -6.018  1.00143.95    -0.271 OA
HETATM   15  N20 MIQ B 502      10.300 -27.232  -8.037  1.00140.02    -0.296 N 
HETATM   16  H13 MIQ B 502      11.124 -27.613  -8.457  1.00142.77     0.171 HD
HETATM   17  C21 MIQ B 502       9.410 -26.381  -8.784  1.00142.22     0.224 C 
HETATM   18  C22 MIQ B 502       8.731 -25.263  -8.016  1.00139.52     0.106 C 
HETATM   19  O24 MIQ B 502       9.217 -26.551  -9.937  1.00146.13    -0.273 OA
HETATM   20  C23 MIQ B 502       7.980 -25.921  -6.872  1.00139.15     0.045 C 
ENDBRANCH  10  12
BRANCH   5  21
HETATM   21  N6  MIQ B 502       9.836 -24.417   1.062  1.00140.95    -0.377 N 
HETATM   22  C7  MIQ B 502      10.752 -23.533   1.763  1.00142.12     0.149 C 
HETATM   23  C8  MIQ B 502      10.930 -23.938   3.220  1.00144.10     0.187 C 
HETATM   24  O9  MIQ B 502       9.718 -24.177   3.870  1.00148.65    -0.388 OA
HETATM   25  C10 MIQ B 502       8.527 -24.250   3.143  1.00147.44     0.187 C 
HETATM   26  C11 MIQ B 502       8.580 -24.761   1.706  1.00144.08     0.149 C 
ENDBRANCH   5  21
TORSDOF 2
ENDMDL
