MODEL 1
REMARK VINA RESULT:      -7.0      0.000      0.000
REMARK  2 active torsions:
REMARK  status: ('A' for Active; 'I' for Inactive)
REMARK    1  A    between atoms: C5_5  and  N6_21 
REMARK    2  A    between atoms: C18_14  and  N17_19 
ROOT
HETATM    1  O1  MIQ B 502       7.935  -5.759 -12.725  1.00142.91    -0.171 OA
HETATM    2  C2  MIQ B 502       6.616  -6.124 -13.002  1.00141.17     0.195 A 
HETATM    3  C3  MIQ B 502       5.612  -5.338 -13.904  1.00141.71     0.035 A 
HETATM    4  C4  MIQ B 502       5.711  -4.082 -14.684  1.00142.86     0.046 A 
HETATM    5  C5  MIQ B 502       4.599  -3.610 -15.426  1.00139.53     0.031 A 
HETATM    6  C12 MIQ B 502       3.353  -4.363 -15.420  1.00139.38     0.030 A 
HETATM    7  C13 MIQ B 502       3.258  -5.568 -14.672  1.00141.18     0.019 A 
HETATM    8  C14 MIQ B 502       4.430  -6.061 -13.897  1.00138.77     0.033 A 
HETATM    9  C15 MIQ B 502       4.702  -7.302 -12.987  1.00142.10     0.195 A 
HETATM   10  N17 MIQ B 502       5.954  -7.187 -12.576  1.00139.42    -0.288 N 
HETATM   11  O16 MIQ B 502       3.801  -8.322 -12.673  1.00148.93    -0.171 OA
ENDROOT
BRANCH  10  12
HETATM   12  C18 MIQ B 502       6.553  -8.166 -11.689  1.00139.82     0.187 C 
HETATM   13  C19 MIQ B 502       6.461  -9.535 -12.374  1.00140.06     0.247 C 
HETATM   14  O25 MIQ B 502       6.846  -9.652 -13.483  1.00143.95    -0.271 OA
HETATM   15  N20 MIQ B 502       5.920 -10.694 -11.694  1.00140.02    -0.296 N 
HETATM   16  H13 MIQ B 502       5.859 -11.581 -12.154  1.00142.77     0.171 HD
HETATM   17  C21 MIQ B 502       5.447 -10.524 -10.344  1.00142.22     0.224 C 
HETATM   18  C22 MIQ B 502       4.827  -9.183 -10.003  1.00139.52     0.106 C 
HETATM   19  O24 MIQ B 502       5.543 -11.387  -9.543  1.00146.13    -0.273 OA
HETATM   20  C23 MIQ B 502       5.874  -8.131 -10.321  1.00139.15     0.045 C 
ENDBRANCH  10  12
BRANCH   5  21
HETATM   21  N6  MIQ B 502       4.706  -2.370 -16.174  1.00140.95    -0.377 N 
HETATM   22  C7  MIQ B 502       6.028  -1.824 -16.428  1.00142.12     0.149 C 
HETATM   23  C8  MIQ B 502       5.993  -0.312 -16.611  1.00144.10     0.187 C 
HETATM   24  O9  MIQ B 502       4.995   0.106 -17.493  1.00148.65    -0.388 OA
HETATM   25  C10 MIQ B 502       4.021  -0.793 -17.938  1.00147.44     0.187 C 
HETATM   26  C11 MIQ B 502       3.604  -1.933 -17.014  1.00144.08     0.149 C 
ENDBRANCH   5  21
TORSDOF 2
ENDMDL
MODEL 2
REMARK VINA RESULT:      -6.7      2.347      3.257
REMARK  2 active torsions:
REMARK  status: ('A' for Active; 'I' for Inactive)
REMARK    1  A    between atoms: C5_5  and  N6_21 
REMARK    2  A    between atoms: C18_14  and  N17_19 
ROOT
HETATM    1  O1  MIQ B 502       7.206  -9.155 -12.632  1.00142.91    -0.171 OA
HETATM    2  C2  MIQ B 502       5.911  -8.717 -12.347  1.00141.17     0.195 A 
HETATM    3  C3  MIQ B 502       5.042  -7.769 -13.234  1.00141.71     0.035 A 
HETATM    4  C4  MIQ B 502       5.274  -7.093 -14.533  1.00142.86     0.046 A 
HETATM    5  C5  MIQ B 502       4.267  -6.274 -15.104  1.00139.53     0.031 A 
HETATM    6  C12 MIQ B 502       3.000  -6.096 -14.409  1.00139.38     0.030 A 
HETATM    7  C13 MIQ B 502       2.778  -6.744 -13.165  1.00141.18     0.019 A 
HETATM    8  C14 MIQ B 502       3.837  -7.606 -12.571  1.00138.77     0.033 A 
HETATM    9  C15 MIQ B 502       3.957  -8.458 -11.266  1.00142.10     0.195 A 
HETATM   10  N17 MIQ B 502       5.160  -9.007 -11.298  1.00139.42    -0.288 N 
HETATM   11  O16 MIQ B 502       2.990  -8.603 -10.270  1.00148.93    -0.171 OA
ENDROOT
BRANCH  10  12
HETATM   12  C18 MIQ B 502       5.631  -9.863 -10.225  1.00139.82     0.187 C 
HETATM   13  C19 MIQ B 502       6.987  -9.321  -9.755  1.00140.06     0.247 C 
HETATM   14  O25 MIQ B 502       7.087  -8.178  -9.483  1.00143.95    -0.271 OA
HETATM   15  N20 MIQ B 502       8.149 -10.176  -9.631  1.00140.02    -0.296 N 
HETATM   16  H13 MIQ B 502       9.030  -9.809  -9.329  1.00142.77     0.171 HD
HETATM   17  C21 MIQ B 502       8.005 -11.566  -9.979  1.00142.22     0.224 C 
HETATM   18  C22 MIQ B 502       7.038 -11.890 -11.102  1.00139.52     0.106 C 
HETATM   19  O24 MIQ B 502       8.606 -12.411  -9.413  1.00146.13    -0.273 OA
HETATM   20  C23 MIQ B 502       5.694 -11.316 -10.693  1.00139.15     0.045 C 
ENDBRANCH  10  12
BRANCH   5  21
HETATM   21  N6  MIQ B 502       4.513  -5.606 -16.369  1.00140.95    -0.377 N 
HETATM   22  C7  MIQ B 502       4.009  -6.218 -17.586  1.00142.12     0.149 C 
HETATM   23  C8  MIQ B 502       4.835  -5.825 -18.805  1.00144.10     0.187 C 
HETATM   24  O9  MIQ B 502       5.071  -4.451 -18.881  1.00148.65    -0.388 OA
HETATM   25  C10 MIQ B 502       4.760  -3.618 -17.802  1.00147.44     0.187 C 
HETATM   26  C11 MIQ B 502       4.841  -4.191 -16.391  1.00144.08     0.149 C 
ENDBRANCH   5  21
TORSDOF 2
ENDMDL
MODEL 3
REMARK VINA RESULT:      -6.7      2.216      7.991
REMARK  2 active torsions:
REMARK  status: ('A' for Active; 'I' for Inactive)
REMARK    1  A    between atoms: C5_5  and  N6_21 
REMARK    2  A    between atoms: C18_14  and  N17_19 
ROOT
HETATM    1  O1  MIQ B 502       6.579  -5.319 -15.138  1.00142.91    -0.171 OA
HETATM    2  C2  MIQ B 502       5.280  -5.594 -14.706  1.00141.17     0.195 A 
HETATM    3  C3  MIQ B 502       4.875  -6.602 -13.583  1.00141.71     0.035 A 
HETATM    4  C4  MIQ B 502       5.648  -7.503 -12.696  1.00142.86     0.046 A 
HETATM    5  C5  MIQ B 502       4.981  -8.320 -11.748  1.00139.53     0.031 A 
HETATM    6  C12 MIQ B 502       3.530  -8.273 -11.647  1.00139.38     0.030 A 
HETATM    7  C13 MIQ B 502       2.789  -7.408 -12.497  1.00141.18     0.019 A 
HETATM    8  C14 MIQ B 502       3.494  -6.550 -13.488  1.00138.77     0.033 A 
HETATM    9  C15 MIQ B 502       3.039  -5.504 -14.557  1.00142.10     0.195 A 
HETATM   10  N17 MIQ B 502       4.145  -5.071 -15.138  1.00139.42    -0.288 N 
HETATM   11  O16 MIQ B 502       1.729  -5.114 -14.839  1.00148.93    -0.171 OA
ENDROOT
BRANCH  10  12
HETATM   12  C18 MIQ B 502       4.106  -4.089 -16.206  1.00139.82     0.187 C 
HETATM   13  C19 MIQ B 502       4.861  -4.672 -17.406  1.00140.06     0.247 C 
HETATM   14  O25 MIQ B 502       4.585  -5.753 -17.791  1.00143.95    -0.271 OA
HETATM   15  N20 MIQ B 502       5.903  -3.931 -18.086  1.00140.02    -0.296 N 
HETATM   16  H13 MIQ B 502       6.393  -4.326 -18.865  1.00142.77     0.171 HD
HETATM   17  C21 MIQ B 502       6.230  -2.618 -17.592  1.00142.22     0.224 C 
HETATM   18  C22 MIQ B 502       6.107  -2.404 -16.095  1.00139.52     0.106 C 
HETATM   19  O24 MIQ B 502       6.571  -1.751 -18.319  1.00146.13    -0.273 OA
HETATM   20  C23 MIQ B 502       4.678  -2.757 -15.725  1.00139.15     0.045 C 
ENDBRANCH  10  12
BRANCH   5  21
HETATM   21  N6  MIQ B 502       5.750  -9.209 -10.896  1.00140.95    -0.377 N 
HETATM   22  C7  MIQ B 502       6.650  -8.626  -9.916  1.00142.12     0.149 C 
HETATM   23  C8  MIQ B 502       7.804  -9.560  -9.577  1.00144.10     0.187 C 
HETATM   24  O9  MIQ B 502       7.385 -10.863  -9.300  1.00148.65    -0.388 OA
HETATM   25  C10 MIQ B 502       6.068 -11.252  -9.557  1.00147.44     0.187 C 
HETATM   26  C11 MIQ B 502       5.321 -10.584 -10.707  1.00144.08     0.149 C 
ENDBRANCH   5  21
TORSDOF 2
ENDMDL
MODEL 4
REMARK VINA RESULT:      -6.5      2.426      8.909
REMARK  2 active torsions:
REMARK  status: ('A' for Active; 'I' for Inactive)
REMARK    1  A    between atoms: C5_5  and  N6_21 
REMARK    2  A    between atoms: C18_14  and  N17_19 
ROOT
HETATM    1  O1  MIQ B 502       7.712  -8.905 -14.706  1.00142.91    -0.171 OA
HETATM    2  C2  MIQ B 502       6.688  -8.665 -13.787  1.00141.17     0.195 A 
HETATM    3  C3  MIQ B 502       6.366  -9.520 -12.521  1.00141.71     0.035 A 
HETATM    4  C4  MIQ B 502       6.973 -10.738 -11.932  1.00142.86     0.046 A 
HETATM    5  C5  MIQ B 502       6.446 -11.298 -10.741  1.00139.53     0.031 A 
HETATM    6  C12 MIQ B 502       5.302 -10.671 -10.093  1.00139.38     0.030 A 
HETATM    7  C13 MIQ B 502       4.721  -9.503 -10.656  1.00141.18     0.019 A 
HETATM    8  C14 MIQ B 502       5.280  -8.919 -11.906  1.00138.77     0.033 A 
HETATM    9  C15 MIQ B 502       4.927  -7.682 -12.795  1.00142.10     0.195 A 
HETATM   10  N17 MIQ B 502       5.801  -7.685 -13.788  1.00139.42    -0.288 N 
HETATM   11  O16 MIQ B 502       3.896  -6.766 -12.580  1.00148.93    -0.171 OA
ENDROOT
BRANCH  10  12
HETATM   12  C18 MIQ B 502       5.765  -6.677 -14.831  1.00139.82     0.187 C 
HETATM   13  C19 MIQ B 502       5.870  -5.303 -14.157  1.00140.06     0.247 C 
HETATM   14  O25 MIQ B 502       6.739  -5.106 -13.383  1.00143.95    -0.271 OA
HETATM   15  N20 MIQ B 502       4.935  -4.236 -14.448  1.00140.02    -0.296 N 
HETATM   16  H13 MIQ B 502       5.011  -3.346 -13.996  1.00142.77     0.171 HD
HETATM   17  C21 MIQ B 502       3.877  -4.504 -15.388  1.00142.22     0.224 C 
HETATM   18  C22 MIQ B 502       3.327  -5.917 -15.410  1.00139.52     0.106 C 
HETATM   19  O24 MIQ B 502       3.464  -3.664 -16.109  1.00146.13    -0.273 OA
HETATM   20  C23 MIQ B 502       4.505  -6.834 -15.681  1.00139.15     0.045 C 
ENDBRANCH  10  12
BRANCH   5  21
HETATM   21  N6  MIQ B 502       7.040 -12.499 -10.184  1.00140.95    -0.377 N 
HETATM   22  C7  MIQ B 502       8.140 -13.125 -10.898  1.00142.12     0.149 C 
HETATM   23  C8  MIQ B 502       8.228 -14.618 -10.610  1.00144.10     0.187 C 
HETATM   24  O9  MIQ B 502       8.156 -14.914  -9.247  1.00148.65    -0.388 OA
HETATM   25  C10 MIQ B 502       7.803 -13.924  -8.326  1.00147.44     0.187 C 
HETATM   26  C11 MIQ B 502       6.865 -12.810  -8.776  1.00144.08     0.149 C 
ENDBRANCH   5  21
TORSDOF 2
ENDMDL
MODEL 5
REMARK VINA RESULT:      -6.5      2.141      8.244
REMARK  2 active torsions:
REMARK  status: ('A' for Active; 'I' for Inactive)
REMARK    1  A    between atoms: C5_5  and  N6_21 
REMARK    2  A    between atoms: C18_14  and  N17_19 
ROOT
HETATM    1  O1  MIQ B 502       7.567  -3.282 -15.907  1.00142.91    -0.171 OA
HETATM    2  C2  MIQ B 502       6.172  -3.309 -15.966  1.00141.17     0.195 A 
HETATM    3  C3  MIQ B 502       5.239  -4.338 -15.252  1.00141.71     0.035 A 
HETATM    4  C4  MIQ B 502       5.491  -5.499 -14.366  1.00142.86     0.046 A 
HETATM    5  C5  MIQ B 502       4.409  -6.262 -13.858  1.00139.53     0.031 A 
HETATM    6  C12 MIQ B 502       3.043  -5.900 -14.208  1.00139.38     0.030 A 
HETATM    7  C13 MIQ B 502       2.801  -4.786 -15.056  1.00141.18     0.019 A 
HETATM    8  C14 MIQ B 502       3.940  -3.988 -15.585  1.00138.77     0.033 A 
HETATM    9  C15 MIQ B 502       4.068  -2.734 -16.511  1.00142.10     0.195 A 
HETATM   10  N17 MIQ B 502       5.364  -2.490 -16.618  1.00139.42    -0.288 N 
HETATM   11  O16 MIQ B 502       3.024  -2.023 -17.104  1.00148.93    -0.171 OA
ENDROOT
BRANCH  10  12
HETATM   12  C18 MIQ B 502       5.864  -1.393 -17.425  1.00139.82     0.187 C 
HETATM   13  C19 MIQ B 502       6.868  -1.972 -18.430  1.00140.06     0.247 C 
HETATM   14  O25 MIQ B 502       6.554  -2.898 -19.090  1.00143.95    -0.271 OA
HETATM   15  N20 MIQ B 502       8.193  -1.409 -18.595  1.00140.02    -0.296 N 
HETATM   16  H13 MIQ B 502       8.842  -1.801 -19.250  1.00142.77     0.171 HD
HETATM   17  C21 MIQ B 502       8.557  -0.286 -17.770  1.00142.22     0.224 C 
HETATM   18  C22 MIQ B 502       7.972  -0.250 -16.372  1.00139.52     0.106 C 
HETATM   19  O24 MIQ B 502       9.272   0.566 -18.168  1.00146.13    -0.273 OA
HETATM   20  C23 MIQ B 502       6.463  -0.307 -16.534  1.00139.15     0.045 C 
ENDBRANCH  10  12
BRANCH   5  21
HETATM   21  N6  MIQ B 502       4.672  -7.405 -13.004  1.00140.95    -0.377 N 
HETATM   22  C7  MIQ B 502       6.049  -7.712 -12.658  1.00142.12     0.149 C 
HETATM   23  C8  MIQ B 502       6.242  -9.192 -12.349  1.00144.10     0.187 C 
HETATM   24  O9  MIQ B 502       5.280  -9.693 -11.470  1.00148.65    -0.388 OA
HETATM   25  C10 MIQ B 502       4.158  -8.929 -11.138  1.00147.44     0.187 C 
HETATM   26  C11 MIQ B 502       3.613  -7.946 -12.169  1.00144.08     0.149 C 
ENDBRANCH   5  21
TORSDOF 2
ENDMDL
MODEL 6
REMARK VINA RESULT:      -6.4      2.435      8.322
REMARK  2 active torsions:
REMARK  status: ('A' for Active; 'I' for Inactive)
REMARK    1  A    between atoms: C5_5  and  N6_21 
REMARK    2  A    between atoms: C18_14  and  N17_19 
ROOT
HETATM    1  O1  MIQ B 502       7.065  -7.138 -14.460  1.00142.91    -0.171 OA
HETATM    2  C2  MIQ B 502       5.847  -7.256 -13.787  1.00141.17     0.195 A 
HETATM    3  C3  MIQ B 502       5.572  -8.136 -12.525  1.00141.71     0.035 A 
HETATM    4  C4  MIQ B 502       6.417  -9.038 -11.708  1.00142.86     0.046 A 
HETATM    5  C5  MIQ B 502       5.869  -9.716 -10.590  1.00139.53     0.031 A 
HETATM    6  C12 MIQ B 502       4.468  -9.525 -10.244  1.00139.38     0.030 A 
HETATM    7  C13 MIQ B 502       3.657  -8.659 -11.027  1.00141.18     0.019 A 
HETATM    8  C14 MIQ B 502       4.239  -7.948 -12.198  1.00138.77     0.033 A 
HETATM    9  C15 MIQ B 502       3.684  -6.945 -13.262  1.00142.10     0.195 A 
HETATM   10  N17 MIQ B 502       4.699  -6.662 -14.061  1.00139.42    -0.288 N 
HETATM   11  O16 MIQ B 502       2.380  -6.454 -13.347  1.00148.93    -0.171 OA
ENDROOT
BRANCH  10  12
HETATM   12  C18 MIQ B 502       4.546  -5.762 -15.190  1.00139.82     0.187 C 
HETATM   13  C19 MIQ B 502       5.079  -6.480 -16.436  1.00140.06     0.247 C 
HETATM   14  O25 MIQ B 502       4.693  -7.567 -16.684  1.00143.95    -0.271 OA
HETATM   15  N20 MIQ B 502       6.041  -5.858 -17.323  1.00140.02    -0.296 N 
HETATM   16  H13 MIQ B 502       6.386  -6.340 -18.129  1.00142.77     0.171 HD
HETATM   17  C21 MIQ B 502       6.505  -4.535 -16.993  1.00142.22     0.224 C 
HETATM   18  C22 MIQ B 502       6.624  -4.202 -15.518  1.00139.52     0.106 C 
HETATM   19  O24 MIQ B 502       6.774  -3.748 -17.833  1.00146.13    -0.273 OA
HETATM   20  C23 MIQ B 502       5.252  -4.436 -14.912  1.00139.15     0.045 C 
ENDBRANCH  10  12
BRANCH   5  21
HETATM   21  N6  MIQ B 502       6.705 -10.608  -9.807  1.00140.95    -0.377 N 
HETATM   22  C7  MIQ B 502       6.626 -12.036 -10.062  1.00142.12     0.149 C 
HETATM   23  C8  MIQ B 502       7.003 -12.855  -8.833  1.00144.10     0.187 C 
HETATM   24  O9  MIQ B 502       8.186 -12.420  -8.233  1.00148.65    -0.388 OA
HETATM   25  C10 MIQ B 502       8.779 -11.217  -8.626  1.00147.44     0.187 C 
HETATM   26  C11 MIQ B 502       7.881 -10.092  -9.129  1.00144.08     0.149 C 
ENDBRANCH   5  21
TORSDOF 2
ENDMDL
MODEL 7
REMARK VINA RESULT:      -6.4      1.993      8.487
REMARK  2 active torsions:
REMARK  status: ('A' for Active; 'I' for Inactive)
REMARK    1  A    between atoms: C5_5  and  N6_21 
REMARK    2  A    between atoms: C18_14  and  N17_19 
ROOT
HETATM    1  O1  MIQ B 502       7.956  -3.945 -15.120  1.00142.91    -0.171 OA
HETATM    2  C2  MIQ B 502       6.613  -3.907 -15.503  1.00141.17     0.195 A 
HETATM    3  C3  MIQ B 502       5.456  -4.760 -14.894  1.00141.71     0.035 A 
HETATM    4  C4  MIQ B 502       5.398  -5.780 -13.820  1.00142.86     0.046 A 
HETATM    5  C5  MIQ B 502       4.166  -6.395 -13.480  1.00139.53     0.031 A 
HETATM    6  C12 MIQ B 502       2.952  -6.020 -14.192  1.00139.38     0.030 A 
HETATM    7  C13 MIQ B 502       3.007  -5.042 -15.220  1.00141.18     0.019 A 
HETATM    8  C14 MIQ B 502       4.302  -4.398 -15.570  1.00138.77     0.033 A 
HETATM    9  C15 MIQ B 502       4.747  -3.314 -16.606  1.00142.10     0.195 A 
HETATM   10  N17 MIQ B 502       6.049  -3.159 -16.436  1.00139.42    -0.288 N 
HETATM   11  O16 MIQ B 502       3.931  -2.651 -17.524  1.00148.93    -0.171 OA
ENDROOT
BRANCH  10  12
HETATM   12  C18 MIQ B 502       6.814  -2.230 -17.248  1.00139.82     0.187 C 
HETATM   13  C19 MIQ B 502       6.149  -0.853 -17.135  1.00140.06     0.247 C 
HETATM   14  O25 MIQ B 502       5.914  -0.413 -16.066  1.00143.95    -0.271 OA
HETATM   15  N20 MIQ B 502       5.806  -0.073 -18.306  1.00140.02    -0.296 N 
HETATM   16  H13 MIQ B 502       5.366   0.822 -18.219  1.00142.77     0.171 HD
HETATM   17  C21 MIQ B 502       6.093  -0.636 -19.600  1.00142.22     0.224 C 
HETATM   18  C22 MIQ B 502       5.978  -2.142 -19.728  1.00139.52     0.106 C 
HETATM   19  O24 MIQ B 502       6.408   0.045 -20.514  1.00146.13    -0.273 OA
HETATM   20  C23 MIQ B 502       6.909  -2.736 -18.686  1.00139.15     0.045 C 
ENDBRANCH  10  12
BRANCH   5  21
HETATM   21  N6  MIQ B 502       4.126  -7.403 -12.437  1.00140.95    -0.377 N 
HETATM   22  C7  MIQ B 502       2.838  -7.771 -11.876  1.00142.12     0.149 C 
HETATM   23  C8  MIQ B 502       2.967  -8.290 -10.449  1.00144.10     0.187 C 
HETATM   24  O9  MIQ B 502       3.975  -9.245 -10.307  1.00148.65    -0.388 OA
HETATM   25  C10 MIQ B 502       4.881  -9.477 -11.345  1.00147.44     0.187 C 
HETATM   26  C11 MIQ B 502       5.240  -8.321 -12.272  1.00144.08     0.149 C 
ENDBRANCH   5  21
TORSDOF 2
ENDMDL
MODEL 8
REMARK VINA RESULT:      -6.4      2.399      8.593
REMARK  2 active torsions:
REMARK  status: ('A' for Active; 'I' for Inactive)
REMARK    1  A    between atoms: C5_5  and  N6_21 
REMARK    2  A    between atoms: C18_14  and  N17_19 
ROOT
HETATM    1  O1  MIQ B 502       3.864  -2.239 -15.632  1.00142.91    -0.171 OA
HETATM    2  C2  MIQ B 502       4.547  -3.300 -16.231  1.00141.17     0.195 A 
HETATM    3  C3  MIQ B 502       4.729  -4.732 -15.636  1.00141.71     0.035 A 
HETATM    4  C4  MIQ B 502       4.284  -5.377 -14.378  1.00142.86     0.046 A 
HETATM    5  C5  MIQ B 502       4.611  -6.731 -14.112  1.00139.53     0.031 A 
HETATM    6  C12 MIQ B 502       5.387  -7.491 -15.081  1.00139.38     0.030 A 
HETATM    7  C13 MIQ B 502       5.813  -6.873 -16.288  1.00141.18     0.019 A 
HETATM    8  C14 MIQ B 502       5.464  -5.452 -16.563  1.00138.77     0.033 A 
HETATM    9  C15 MIQ B 502       5.740  -4.461 -17.741  1.00142.10     0.195 A 
HETATM   10  N17 MIQ B 502       5.164  -3.320 -17.400  1.00139.42    -0.288 N 
HETATM   11  O16 MIQ B 502       6.453  -4.731 -18.910  1.00148.93    -0.171 OA
ENDROOT
BRANCH  10  12
HETATM   12  C18 MIQ B 502       5.230  -2.153 -18.259  1.00139.82     0.187 C 
HETATM   13  C19 MIQ B 502       5.741  -0.979 -17.415  1.00140.06     0.247 C 
HETATM   14  O25 MIQ B 502       6.725  -1.113 -16.778  1.00143.95    -0.271 OA
HETATM   15  N20 MIQ B 502       5.052   0.295 -17.381  1.00140.02    -0.296 N 
HETATM   16  H13 MIQ B 502       5.392   1.051 -16.821  1.00142.77     0.171 HD
HETATM   17  C21 MIQ B 502       3.847   0.431 -18.159  1.00142.22     0.224 C 
HETATM   18  C22 MIQ B 502       2.983  -0.808 -18.298  1.00139.52     0.106 C 
HETATM   19  O24 MIQ B 502       3.552   1.456 -18.666  1.00146.13    -0.273 OA
HETATM   20  C23 MIQ B 502       3.868  -1.886 -18.898  1.00139.15     0.045 C 
ENDBRANCH  10  12
BRANCH   5  21
HETATM   21  N6  MIQ B 502       4.182  -7.345 -12.868  1.00140.95    -0.377 N 
HETATM   22  C7  MIQ B 502       2.775  -7.281 -12.511  1.00142.12     0.149 C 
HETATM   23  C8  MIQ B 502       2.567  -7.352 -11.004  1.00144.10     0.187 C 
HETATM   24  O9  MIQ B 502       3.289  -8.385 -10.404  1.00148.65    -0.388 OA
HETATM   25  C10 MIQ B 502       4.257  -9.086 -11.128  1.00147.44     0.187 C 
HETATM   26  C11 MIQ B 502       5.010  -8.356 -12.235  1.00144.08     0.149 C 
ENDBRANCH   5  21
TORSDOF 2
ENDMDL
MODEL 9
REMARK VINA RESULT:      -6.4      3.001      8.060
REMARK  2 active torsions:
REMARK  status: ('A' for Active; 'I' for Inactive)
REMARK    1  A    between atoms: C5_5  and  N6_21 
REMARK    2  A    between atoms: C18_14  and  N17_19 
ROOT
HETATM    1  O1  MIQ B 502       6.111  -7.498 -16.120  1.00142.91    -0.171 OA
HETATM    2  C2  MIQ B 502       5.080  -7.064 -15.285  1.00141.17     0.195 A 
HETATM    3  C3  MIQ B 502       4.877  -7.461 -13.787  1.00141.71     0.035 A 
HETATM    4  C4  MIQ B 502       5.630  -8.331 -12.853  1.00142.86     0.046 A 
HETATM    5  C5  MIQ B 502       5.188  -8.498 -11.516  1.00139.53     0.031 A 
HETATM    6  C12 MIQ B 502       3.989  -7.810 -11.060  1.00139.38     0.030 A 
HETATM    7  C13 MIQ B 502       3.268  -6.975 -11.955  1.00141.18     0.019 A 
HETATM    8  C14 MIQ B 502       3.737  -6.801 -13.357  1.00138.77     0.033 A 
HETATM    9  C15 MIQ B 502       3.230  -5.990 -14.594  1.00142.10     0.195 A 
HETATM   10  N17 MIQ B 502       4.084  -6.244 -15.572  1.00139.42    -0.288 N 
HETATM   11  O16 MIQ B 502       2.102  -5.169 -14.649  1.00148.93    -0.171 OA
ENDROOT
BRANCH  10  12
HETATM   12  C18 MIQ B 502       3.916  -5.665 -16.892  1.00139.82     0.187 C 
HETATM   13  C19 MIQ B 502       3.823  -6.818 -17.899  1.00140.06     0.247 C 
HETATM   14  O25 MIQ B 502       3.059  -7.695 -17.703  1.00143.95    -0.271 OA
HETATM   15  N20 MIQ B 502       4.645  -6.858 -19.092  1.00140.02    -0.296 N 
HETATM   16  H13 MIQ B 502       4.579  -7.620 -19.738  1.00142.77     0.171 HD
HETATM   17  C21 MIQ B 502       5.578  -5.782 -19.304  1.00142.22     0.224 C 
HETATM   18  C22 MIQ B 502       6.203  -5.167 -18.067  1.00139.52     0.106 C 
HETATM   19  O24 MIQ B 502       5.838  -5.396 -20.391  1.00146.13    -0.273 OA
HETATM   20  C23 MIQ B 502       5.055  -4.693 -17.195  1.00139.15     0.045 C 
ENDBRANCH  10  12
BRANCH   5  21
HETATM   21  N6  MIQ B 502       5.927  -9.365 -10.616  1.00140.95    -0.377 N 
HETATM   22  C7  MIQ B 502       5.876 -10.800 -10.837  1.00142.12     0.149 C 
HETATM   23  C8  MIQ B 502       6.108 -11.582  -9.550  1.00144.10     0.187 C 
HETATM   24  O9  MIQ B 502       7.214 -11.127  -8.829  1.00148.65    -0.388 OA
HETATM   25  C10 MIQ B 502       7.849  -9.935  -9.185  1.00147.44     0.187 C 
HETATM   26  C11 MIQ B 502       7.016  -8.826  -9.821  1.00144.08     0.149 C 
ENDBRANCH   5  21
TORSDOF 2
ENDMDL
