MODEL 1
REMARK VINA RESULT:      -6.8      0.000      0.000
REMARK  2 active torsions:
REMARK  status: ('A' for Active; 'I' for Inactive)
REMARK    1  A    between atoms: C5_5  and  N6_21 
REMARK    2  A    between atoms: C18_14  and  N17_19 
ROOT
HETATM    1  O1  MIQ B 502      -5.208   9.079  18.705  1.00142.91    -0.171 OA
HETATM    2  C2  MIQ B 502      -6.236   9.542  19.528  1.00141.17     0.195 A 
HETATM    3  C3  MIQ B 502      -7.191   8.661  20.395  1.00141.71     0.035 A 
HETATM    4  C4  MIQ B 502      -7.312   7.200  20.613  1.00142.86     0.046 A 
HETATM    5  C5  MIQ B 502      -8.305   6.685  21.484  1.00139.53     0.031 A 
HETATM    6  C12 MIQ B 502      -9.211   7.597  22.167  1.00139.38     0.030 A 
HETATM    7  C13 MIQ B 502      -9.094   8.998  21.960  1.00141.18     0.019 A 
HETATM    8  C14 MIQ B 502      -8.048   9.533  21.046  1.00138.77     0.033 A 
HETATM    9  C15 MIQ B 502      -7.622  10.964  20.581  1.00142.10     0.195 A 
HETATM   10  N17 MIQ B 502      -6.608  10.791  19.749  1.00139.42    -0.288 N 
HETATM   11  O16 MIQ B 502      -8.199  12.175  20.968  1.00148.93    -0.171 OA
ENDROOT
BRANCH  10  12
HETATM   12  C18 MIQ B 502      -5.959  11.916  19.102  1.00139.82     0.187 C 
HETATM   13  C19 MIQ B 502      -5.607  12.941  20.187  1.00140.06     0.247 C 
HETATM   14  O25 MIQ B 502      -5.018  12.585  21.146  1.00143.95    -0.271 OA
HETATM   15  N20 MIQ B 502      -5.971  14.337  20.066  1.00140.02    -0.296 N 
HETATM   16  H13 MIQ B 502      -5.741  14.995  20.785  1.00142.77     0.171 HD
HETATM   17  C21 MIQ B 502      -6.698  14.745  18.892  1.00142.22     0.224 C 
HETATM   18  C22 MIQ B 502      -7.665  13.736  18.304  1.00139.52     0.106 C 
HETATM   19  O24 MIQ B 502      -6.543  15.813  18.409  1.00146.13    -0.273 OA
HETATM   20  C23 MIQ B 502      -6.856  12.487  18.004  1.00139.15     0.045 C 
ENDBRANCH  10  12
BRANCH   5  21
HETATM   21  N6  MIQ B 502      -8.422   5.251  21.676  1.00140.95    -0.377 N 
HETATM   22  C7  MIQ B 502      -7.462   4.381  21.019  1.00142.12     0.149 C 
HETATM   23  C8  MIQ B 502      -8.035   2.994  20.760  1.00144.10     0.187 C 
HETATM   24  O9  MIQ B 502      -8.664   2.448  21.881  1.00148.65    -0.388 OA
HETATM   25  C10 MIQ B 502      -8.912   3.237  23.007  1.00147.44     0.187 C 
HETATM   26  C11 MIQ B 502      -9.161   4.729  22.813  1.00144.08     0.149 C 
ENDBRANCH   5  21
TORSDOF 2
ENDMDL
MODEL 2
REMARK VINA RESULT:      -6.7     25.423     26.595
REMARK  2 active torsions:
REMARK  status: ('A' for Active; 'I' for Inactive)
REMARK    1  A    between atoms: C5_5  and  N6_21 
REMARK    2  A    between atoms: C18_14  and  N17_19 
ROOT
HETATM    1  O1  MIQ B 502      -6.337 -12.014   8.847  1.00142.91    -0.171 OA
HETATM    2  C2  MIQ B 502      -7.022 -13.203   9.108  1.00141.17     0.195 A 
HETATM    3  C3  MIQ B 502      -6.580 -14.323  10.104  1.00141.71     0.035 A 
HETATM    4  C4  MIQ B 502      -5.416 -14.482  11.007  1.00142.86     0.046 A 
HETATM    5  C5  MIQ B 502      -5.287 -15.642  11.813  1.00139.53     0.031 A 
HETATM    6  C12 MIQ B 502      -6.305 -16.681  11.751  1.00139.38     0.030 A 
HETATM    7  C13 MIQ B 502      -7.422 -16.528  10.886  1.00141.18     0.019 A 
HETATM    8  C14 MIQ B 502      -7.553 -15.307  10.044  1.00138.77     0.033 A 
HETATM    9  C15 MIQ B 502      -8.605 -14.795   9.007  1.00142.10     0.195 A 
HETATM   10  N17 MIQ B 502      -8.163 -13.621   8.588  1.00139.42    -0.288 N 
HETATM   11  O16 MIQ B 502      -9.770 -15.451   8.606  1.00148.93    -0.171 OA
ENDROOT
BRANCH  10  12
HETATM   12  C18 MIQ B 502      -8.887 -12.850   7.595  1.00139.82     0.187 C 
HETATM   13  C19 MIQ B 502     -10.263 -12.508   8.180  1.00140.06     0.247 C 
HETATM   14  O25 MIQ B 502     -10.328 -12.018   9.251  1.00143.95    -0.271 OA
HETATM   15  N20 MIQ B 502     -11.488 -12.766   7.451  1.00140.02    -0.296 N 
HETATM   16  H13 MIQ B 502     -12.381 -12.544   7.846  1.00142.77     0.171 HD
HETATM   17  C21 MIQ B 502     -11.384 -13.374   6.149  1.00142.22     0.224 C 
HETATM   18  C22 MIQ B 502     -10.251 -14.362   5.948  1.00139.52     0.106 C 
HETATM   19  O24 MIQ B 502     -12.141 -13.110   5.281  1.00146.13    -0.273 OA
HETATM   20  C23 MIQ B 502      -8.968 -13.621   6.278  1.00139.15     0.045 C 
ENDBRANCH  10  12
BRANCH   5  21
HETATM   21  N6  MIQ B 502      -4.135 -15.791  12.682  1.00140.95    -0.377 N 
HETATM   22  C7  MIQ B 502      -4.168 -16.818  13.709  1.00142.12     0.149 C 
HETATM   23  C8  MIQ B 502      -3.274 -16.468  14.892  1.00144.10     0.187 C 
HETATM   24  O9  MIQ B 502      -1.998 -16.052  14.505  1.00148.65    -0.388 OA
HETATM   25  C10 MIQ B 502      -1.719 -15.783  13.162  1.00147.44     0.187 C 
HETATM   26  C11 MIQ B 502      -2.844 -15.265  12.273  1.00144.08     0.149 C 
ENDBRANCH   5  21
TORSDOF 2
ENDMDL
MODEL 3
REMARK VINA RESULT:      -6.5      1.914      8.636
REMARK  2 active torsions:
REMARK  status: ('A' for Active; 'I' for Inactive)
REMARK    1  A    between atoms: C5_5  and  N6_21 
REMARK    2  A    between atoms: C18_14  and  N17_19 
ROOT
HETATM    1  O1  MIQ B 502      -7.062   4.435  20.696  1.00142.91    -0.171 OA
HETATM    2  C2  MIQ B 502      -7.937   5.192  21.479  1.00141.17     0.195 A 
HETATM    3  C3  MIQ B 502      -8.087   6.746  21.452  1.00141.71     0.035 A 
HETATM    4  C4  MIQ B 502      -7.429   7.821  20.672  1.00142.86     0.046 A 
HETATM    5  C5  MIQ B 502      -7.789   9.177  20.874  1.00139.53     0.031 A 
HETATM    6  C12 MIQ B 502      -8.812   9.514  21.854  1.00139.38     0.030 A 
HETATM    7  C13 MIQ B 502      -9.444   8.484  22.602  1.00141.18     0.019 A 
HETATM    8  C14 MIQ B 502      -9.064   7.062  22.383  1.00138.77     0.033 A 
HETATM    9  C15 MIQ B 502      -9.522   5.696  22.990  1.00142.10     0.195 A 
HETATM   10  N17 MIQ B 502      -8.804   4.767  22.381  1.00139.42    -0.288 N 
HETATM   11  O16 MIQ B 502     -10.490   5.503  23.977  1.00148.93    -0.171 OA
ENDROOT
BRANCH  10  12
HETATM   12  C18 MIQ B 502      -8.952   3.361  22.708  1.00139.82     0.187 C 
HETATM   13  C19 MIQ B 502      -7.560   2.808  23.036  1.00140.06     0.247 C 
HETATM   14  O25 MIQ B 502      -6.886   3.373  23.822  1.00143.95    -0.271 OA
HETATM   15  N20 MIQ B 502      -7.049   1.604  22.412  1.00140.02    -0.296 N 
HETATM   16  H13 MIQ B 502      -6.136   1.257  22.631  1.00142.77     0.171 HD
HETATM   17  C21 MIQ B 502      -7.886   0.937  21.448  1.00142.22     0.224 C 
HETATM   18  C22 MIQ B 502      -8.782   1.817  20.599  1.00139.52     0.106 C 
HETATM   19  O24 MIQ B 502      -7.877  -0.239  21.331  1.00146.13    -0.273 OA
HETATM   20  C23 MIQ B 502      -9.639   2.618  21.562  1.00139.15     0.045 C 
ENDBRANCH  10  12
BRANCH   5  21
HETATM   21  N6  MIQ B 502      -7.126  10.220  20.114  1.00140.95    -0.377 N 
HETATM   22  C7  MIQ B 502      -7.631  11.579  20.211  1.00142.12     0.149 C 
HETATM   23  C8  MIQ B 502      -7.318  12.393  18.962  1.00144.10     0.187 C 
HETATM   24  O9  MIQ B 502      -5.986  12.279  18.559  1.00148.65    -0.388 OA
HETATM   25  C10 MIQ B 502      -5.150  11.323  19.141  1.00147.44     0.187 C 
HETATM   26  C11 MIQ B 502      -5.767  10.021  19.641  1.00144.08     0.149 C 
ENDBRANCH   5  21
TORSDOF 2
ENDMDL
MODEL 4
REMARK VINA RESULT:      -6.5      5.194     10.205
REMARK  2 active torsions:
REMARK  status: ('A' for Active; 'I' for Inactive)
REMARK    1  A    between atoms: C5_5  and  N6_21 
REMARK    2  A    between atoms: C18_14  and  N17_19 
ROOT
HETATM    1  O1  MIQ B 502      -8.023  14.978  18.357  1.00142.91    -0.171 OA
HETATM    2  C2  MIQ B 502      -8.741  15.310  19.508  1.00141.17     0.195 A 
HETATM    3  C3  MIQ B 502      -9.902  16.351  19.603  1.00141.71     0.035 A 
HETATM    4  C4  MIQ B 502     -10.563  17.234  18.613  1.00142.86     0.046 A 
HETATM    5  C5  MIQ B 502     -11.620  18.091  19.010  1.00139.53     0.031 A 
HETATM    6  C12 MIQ B 502     -12.058  18.102  20.398  1.00139.38     0.030 A 
HETATM    7  C13 MIQ B 502     -11.426  17.255  21.347  1.00141.18     0.019 A 
HETATM    8  C14 MIQ B 502     -10.318  16.355  20.924  1.00138.77     0.033 A 
HETATM    9  C15 MIQ B 502      -9.411  15.312  21.654  1.00142.10     0.195 A 
HETATM   10  N17 MIQ B 502      -8.598  14.826  20.730  1.00139.42    -0.288 N 
HETATM   11  O16 MIQ B 502      -9.452  14.969  23.006  1.00148.93    -0.171 OA
ENDROOT
BRANCH  10  12
HETATM   12  C18 MIQ B 502      -7.593  13.830  21.053  1.00139.82     0.187 C 
HETATM   13  C19 MIQ B 502      -6.237  14.362  20.574  1.00140.06     0.247 C 
HETATM   14  O25 MIQ B 502      -5.900  15.447  20.891  1.00143.95    -0.271 OA
HETATM   15  N20 MIQ B 502      -5.353  13.567  19.747  1.00140.02    -0.296 N 
HETATM   16  H13 MIQ B 502      -4.473  13.928  19.436  1.00142.77     0.171 HD
HETATM   17  C21 MIQ B 502      -5.792  12.249  19.364  1.00142.22     0.224 C 
HETATM   18  C22 MIQ B 502      -7.281  12.064  19.145  1.00139.52     0.106 C 
HETATM   19  O24 MIQ B 502      -5.027  11.357  19.234  1.00146.13    -0.273 OA
HETATM   20  C23 MIQ B 502      -7.962  12.482  20.435  1.00139.15     0.045 C 
ENDBRANCH  10  12
BRANCH   5  21
HETATM   21  N6  MIQ B 502     -12.247  18.962  18.033  1.00140.95    -0.377 N 
HETATM   22  C7  MIQ B 502     -13.693  18.923  17.895  1.00142.12     0.149 C 
HETATM   23  C8  MIQ B 502     -14.143  19.338  16.500  1.00144.10     0.187 C 
HETATM   24  O9  MIQ B 502     -13.533  20.514  16.059  1.00148.65    -0.388 OA
HETATM   25  C10 MIQ B 502     -12.464  21.066  16.770  1.00147.44     0.187 C 
HETATM   26  C11 MIQ B 502     -11.538  20.129  17.539  1.00144.08     0.149 C 
ENDBRANCH   5  21
TORSDOF 2
ENDMDL
MODEL 5
REMARK VINA RESULT:      -6.5      7.311     11.242
REMARK  2 active torsions:
REMARK  status: ('A' for Active; 'I' for Inactive)
REMARK    1  A    between atoms: C5_5  and  N6_21 
REMARK    2  A    between atoms: C18_14  and  N17_19 
ROOT
HETATM    1  O1  MIQ B 502      -7.142  -0.071  22.647  1.00142.91    -0.171 OA
HETATM    2  C2  MIQ B 502      -8.395  -0.169  23.256  1.00141.17     0.195 A 
HETATM    3  C3  MIQ B 502      -9.099  -1.487  23.711  1.00141.71     0.035 A 
HETATM    4  C4  MIQ B 502      -8.715  -2.918  23.658  1.00142.86     0.046 A 
HETATM    5  C5  MIQ B 502      -9.587  -3.914  24.166  1.00139.53     0.031 A 
HETATM    6  C12 MIQ B 502     -10.866  -3.527  24.743  1.00139.38     0.030 A 
HETATM    7  C13 MIQ B 502     -11.235  -2.156  24.795  1.00141.18     0.019 A 
HETATM    8  C14 MIQ B 502     -10.314  -1.115  24.262  1.00138.77     0.033 A 
HETATM    9  C15 MIQ B 502     -10.365   0.444  24.150  1.00142.10     0.195 A 
HETATM   10  N17 MIQ B 502      -9.229   0.806  23.575  1.00139.42    -0.288 N 
HETATM   11  O16 MIQ B 502     -11.401   1.279  24.570  1.00148.93    -0.171 OA
ENDROOT
BRANCH  10  12
HETATM   12  C18 MIQ B 502      -8.933   2.198  23.293  1.00139.82     0.187 C 
HETATM   13  C19 MIQ B 502      -8.466   2.291  21.835  1.00140.06     0.247 C 
HETATM   14  O25 MIQ B 502      -9.123   1.801  20.987  1.00143.95    -0.271 OA
HETATM   15  N20 MIQ B 502      -7.240   2.971  21.468  1.00140.02    -0.296 N 
HETATM   16  H13 MIQ B 502      -6.943   3.019  20.514  1.00142.77     0.171 HD
HETATM   17  C21 MIQ B 502      -6.450   3.553  22.522  1.00142.22     0.224 C 
HETATM   18  C22 MIQ B 502      -6.455   2.831  23.856  1.00139.52     0.106 C 
HETATM   19  O24 MIQ B 502      -5.833   4.547  22.355  1.00146.13    -0.273 OA
HETATM   20  C23 MIQ B 502      -7.907   2.735  24.289  1.00139.15     0.045 C 
ENDBRANCH  10  12
BRANCH   5  21
HETATM   21  N6  MIQ B 502      -9.204  -5.312  24.094  1.00140.95    -0.377 N 
HETATM   22  C7  MIQ B 502      -9.049  -6.054  25.333  1.00142.12     0.149 C 
HETATM   23  C8  MIQ B 502      -8.073  -7.215  25.182  1.00144.10     0.187 C 
HETATM   24  O9  MIQ B 502      -8.324  -7.991  24.049  1.00148.65    -0.388 OA
HETATM   25  C10 MIQ B 502      -9.232  -7.557  23.080  1.00147.44     0.187 C 
HETATM   26  C11 MIQ B 502      -9.406  -6.057  22.863  1.00144.08     0.149 C 
ENDBRANCH   5  21
TORSDOF 2
ENDMDL
MODEL 6
REMARK VINA RESULT:      -6.4     25.603     26.659
REMARK  2 active torsions:
REMARK  status: ('A' for Active; 'I' for Inactive)
REMARK    1  A    between atoms: C5_5  and  N6_21 
REMARK    2  A    between atoms: C18_14  and  N17_19 
ROOT
HETATM    1  O1  MIQ B 502      -9.421 -15.743  11.070  1.00142.91    -0.171 OA
HETATM    2  C2  MIQ B 502      -8.388 -15.104  10.380  1.00141.17     0.195 A 
HETATM    3  C3  MIQ B 502      -6.886 -15.060  10.804  1.00141.71     0.035 A 
HETATM    4  C4  MIQ B 502      -6.133 -15.622  11.950  1.00142.86     0.046 A 
HETATM    5  C5  MIQ B 502      -4.736 -15.409  12.064  1.00139.53     0.031 A 
HETATM    6  C12 MIQ B 502      -4.038 -14.633  11.048  1.00139.38     0.030 A 
HETATM    7  C13 MIQ B 502      -4.759 -14.095   9.948  1.00141.18     0.019 A 
HETATM    8  C14 MIQ B 502      -6.225 -14.325   9.833  1.00138.77     0.033 A 
HETATM    9  C15 MIQ B 502      -7.325 -13.910   8.801  1.00142.10     0.195 A 
HETATM   10  N17 MIQ B 502      -8.459 -14.422   9.250  1.00139.42    -0.288 N 
HETATM   11  O16 MIQ B 502      -7.141 -13.151   7.644  1.00148.93    -0.171 OA
ENDROOT
BRANCH  10  12
HETATM   12  C18 MIQ B 502      -9.711 -14.223   8.545  1.00139.82     0.187 C 
HETATM   13  C19 MIQ B 502      -9.484 -14.595   7.074  1.00140.06     0.247 C 
HETATM   14  O25 MIQ B 502      -8.992 -15.634   6.812  1.00143.95    -0.271 OA
HETATM   15  N20 MIQ B 502      -9.863 -13.707   5.995  1.00140.02    -0.296 N 
HETATM   16  H13 MIQ B 502      -9.704 -13.958   5.039  1.00142.77     0.171 HD
HETATM   17  C21 MIQ B 502     -10.453 -12.439   6.340  1.00142.22     0.224 C 
HETATM   18  C22 MIQ B 502      -9.966 -11.787   7.620  1.00139.52     0.106 C 
HETATM   19  O24 MIQ B 502     -11.280 -11.936   5.661  1.00146.13    -0.273 OA
HETATM   20  C23 MIQ B 502     -10.205 -12.790   8.733  1.00139.15     0.045 C 
ENDBRANCH  10  12
BRANCH   5  21
HETATM   21  N6  MIQ B 502      -4.014 -15.952  13.200  1.00140.95    -0.377 N 
HETATM   22  C7  MIQ B 502      -4.521 -17.157  13.833  1.00142.12     0.149 C 
HETATM   23  C8  MIQ B 502      -4.112 -17.245  15.298  1.00144.10     0.187 C 
HETATM   24  O9  MIQ B 502      -2.754 -16.992  15.499  1.00148.65    -0.388 OA
HETATM   25  C10 MIQ B 502      -1.967 -16.488  14.461  1.00147.44     0.187 C 
HETATM   26  C11 MIQ B 502      -2.624 -15.591  13.416  1.00144.08     0.149 C 
ENDBRANCH   5  21
TORSDOF 2
ENDMDL
MODEL 7
REMARK VINA RESULT:      -6.4     25.356     26.872
REMARK  2 active torsions:
REMARK  status: ('A' for Active; 'I' for Inactive)
REMARK    1  A    between atoms: C5_5  and  N6_21 
REMARK    2  A    between atoms: C18_14  and  N17_19 
ROOT
HETATM    1  O1  MIQ B 502      -6.297 -13.519   6.715  1.00142.91    -0.171 OA
HETATM    2  C2  MIQ B 502      -7.138 -13.909   7.760  1.00141.17     0.195 A 
HETATM    3  C3  MIQ B 502      -6.699 -14.615   9.083  1.00141.71     0.035 A 
HETATM    4  C4  MIQ B 502      -5.389 -15.056   9.616  1.00142.86     0.046 A 
HETATM    5  C5  MIQ B 502      -5.306 -15.684  10.885  1.00139.53     0.031 A 
HETATM    6  C12 MIQ B 502      -6.516 -15.896  11.666  1.00139.38     0.030 A 
HETATM    7  C13 MIQ B 502      -7.772 -15.472  11.156  1.00141.18     0.019 A 
HETATM    8  C14 MIQ B 502      -7.853 -14.811   9.824  1.00138.77     0.033 A 
HETATM    9  C15 MIQ B 502      -9.014 -14.223   8.958  1.00142.10     0.195 A 
HETATM   10  N17 MIQ B 502      -8.449 -13.764   7.853  1.00139.42    -0.288 N 
HETATM   11  O16 MIQ B 502     -10.370 -14.194   9.286  1.00148.93    -0.171 OA
ENDROOT
BRANCH  10  12
HETATM   12  C18 MIQ B 502      -9.235 -13.154   6.797  1.00139.82     0.187 C 
HETATM   13  C19 MIQ B 502     -10.082 -12.042   7.427  1.00140.06     0.247 C 
HETATM   14  O25 MIQ B 502      -9.558 -11.234   8.108  1.00143.95    -0.271 OA
HETATM   15  N20 MIQ B 502     -11.511 -11.952   7.205  1.00140.02    -0.296 N 
HETATM   16  H13 MIQ B 502     -12.054 -11.224   7.628  1.00142.77     0.171 HD
HETATM   17  C21 MIQ B 502     -12.130 -12.956   6.379  1.00142.22     0.224 C 
HETATM   18  C22 MIQ B 502     -11.538 -14.350   6.443  1.00139.52     0.106 C 
HETATM   19  O24 MIQ B 502     -13.051 -12.702   5.683  1.00146.13    -0.273 OA
HETATM   20  C23 MIQ B 502     -10.071 -14.213   6.078  1.00139.15     0.045 C 
ENDBRANCH  10  12
BRANCH   5  21
HETATM   21  N6  MIQ B 502      -4.018 -16.124  11.388  1.00140.95    -0.377 N 
HETATM   22  C7  MIQ B 502      -3.169 -16.922  10.521  1.00142.12     0.149 C 
HETATM   23  C8  MIQ B 502      -2.228 -17.820  11.315  1.00144.10     0.187 C 
HETATM   24  O9  MIQ B 502      -1.565 -17.141  12.339  1.00148.65    -0.388 OA
HETATM   25  C10 MIQ B 502      -1.946 -15.844  12.691  1.00147.44     0.187 C 
HETATM   26  C11 MIQ B 502      -3.406 -15.439  12.513  1.00144.08     0.149 C 
ENDBRANCH   5  21
TORSDOF 2
ENDMDL
MODEL 8
REMARK VINA RESULT:      -6.4     24.940     27.767
REMARK  2 active torsions:
REMARK  status: ('A' for Active; 'I' for Inactive)
REMARK    1  A    between atoms: C5_5  and  N6_21 
REMARK    2  A    between atoms: C18_14  and  N17_19 
ROOT
HETATM    1  O1  MIQ B 502      -4.917 -15.053  12.398  1.00142.91    -0.171 OA
HETATM    2  C2  MIQ B 502      -4.788 -15.740  11.189  1.00141.17     0.195 A 
HETATM    3  C3  MIQ B 502      -5.576 -15.447   9.873  1.00141.71     0.035 A 
HETATM    4  C4  MIQ B 502      -6.609 -14.450   9.505  1.00142.86     0.046 A 
HETATM    5  C5  MIQ B 502      -7.150 -14.429   8.194  1.00139.53     0.031 A 
HETATM    6  C12 MIQ B 502      -6.688 -15.394   7.207  1.00139.38     0.030 A 
HETATM    7  C13 MIQ B 502      -5.698 -16.350   7.559  1.00141.18     0.019 A 
HETATM    8  C14 MIQ B 502      -5.131 -16.365   8.936  1.00138.77     0.033 A 
HETATM    9  C15 MIQ B 502      -4.059 -17.232   9.674  1.00142.10     0.195 A 
HETATM   10  N17 MIQ B 502      -3.989 -16.755  10.906  1.00139.42    -0.288 N 
HETATM   11  O16 MIQ B 502      -3.330 -18.294   9.137  1.00148.93    -0.171 OA
ENDROOT
BRANCH  10  12
HETATM   12  C18 MIQ B 502      -3.097 -17.335  11.892  1.00139.82     0.187 C 
HETATM   13  C19 MIQ B 502      -3.922 -17.635  13.150  1.00140.06     0.247 C 
HETATM   14  O25 MIQ B 502      -4.924 -18.248  13.048  1.00143.95    -0.271 OA
HETATM   15  N20 MIQ B 502      -3.502 -17.190  14.463  1.00140.02    -0.296 N 
HETATM   16  H13 MIQ B 502      -4.053 -17.387  15.275  1.00142.77     0.171 HD
HETATM   17  C21 MIQ B 502      -2.280 -16.434  14.560  1.00142.22     0.224 C 
HETATM   18  C22 MIQ B 502      -1.949 -15.522  13.394  1.00139.52     0.106 C 
HETATM   19  O24 MIQ B 502      -1.570 -16.524  15.500  1.00146.13    -0.273 OA
HETATM   20  C23 MIQ B 502      -1.917 -16.400  12.156  1.00139.15     0.045 C 
ENDBRANCH  10  12
BRANCH   5  21
HETATM   21  N6  MIQ B 502      -8.172 -13.457   7.851  1.00140.95    -0.377 N 
HETATM   22  C7  MIQ B 502      -9.437 -13.935   7.323  1.00142.12     0.149 C 
HETATM   23  C8  MIQ B 502     -10.115 -12.895   6.440  1.00144.10     0.187 C 
HETATM   24  O9  MIQ B 502     -10.154 -11.628   7.025  1.00148.65    -0.388 OA
HETATM   25  C10 MIQ B 502      -9.424 -11.363   8.187  1.00147.44     0.187 C 
HETATM   26  C11 MIQ B 502      -8.122 -12.121   8.420  1.00144.08     0.149 C 
ENDBRANCH   5  21
TORSDOF 2
ENDMDL
MODEL 9
REMARK VINA RESULT:      -6.4      1.492      2.554
REMARK  2 active torsions:
REMARK  status: ('A' for Active; 'I' for Inactive)
REMARK    1  A    between atoms: C5_5  and  N6_21 
REMARK    2  A    between atoms: C18_14  and  N17_19 
ROOT
HETATM    1  O1  MIQ B 502      -8.671  12.314  20.967  1.00142.91    -0.171 OA
HETATM    2  C2  MIQ B 502      -7.496  11.705  20.520  1.00141.17     0.195 A 
HETATM    3  C3  MIQ B 502      -7.163  10.181  20.592  1.00141.71     0.035 A 
HETATM    4  C4  MIQ B 502      -7.901   8.999  21.100  1.00142.86     0.046 A 
HETATM    5  C5  MIQ B 502      -7.322   7.707  21.025  1.00139.53     0.031 A 
HETATM    6  C12 MIQ B 502      -5.997   7.541  20.446  1.00139.38     0.030 A 
HETATM    7  C13 MIQ B 502      -5.290   8.673  19.958  1.00141.18     0.019 A 
HETATM    8  C14 MIQ B 502      -5.903  10.027  20.037  1.00138.77     0.033 A 
HETATM    9  C15 MIQ B 502      -5.452  11.464  19.616  1.00142.10     0.195 A 
HETATM   10  N17 MIQ B 502      -6.446  12.271  19.950  1.00139.42    -0.288 N 
HETATM   11  O16 MIQ B 502      -4.244  11.817  19.014  1.00148.93    -0.171 OA
ENDROOT
BRANCH  10  12
HETATM   12  C18 MIQ B 502      -6.370  13.701  19.720  1.00139.82     0.187 C 
HETATM   13  C19 MIQ B 502      -6.689  14.406  21.044  1.00140.06     0.247 C 
HETATM   14  O25 MIQ B 502      -6.111  14.086  22.021  1.00143.95    -0.271 OA
HETATM   15  N20 MIQ B 502      -7.679  15.460  21.129  1.00140.02    -0.296 N 
HETATM   16  H13 MIQ B 502      -7.884  15.907  22.000  1.00142.77     0.171 HD
HETATM   17  C21 MIQ B 502      -8.380  15.826  19.924  1.00142.22     0.224 C 
HETATM   18  C22 MIQ B 502      -8.652  14.714  18.930  1.00139.52     0.106 C 
HETATM   19  O24 MIQ B 502      -8.719  16.939  19.721  1.00146.13    -0.273 OA
HETATM   20  C23 MIQ B 502      -7.305  14.107  18.582  1.00139.15     0.045 C 
ENDBRANCH  10  12
BRANCH   5  21
HETATM   21  N6  MIQ B 502      -8.050   6.561  21.540  1.00140.95    -0.377 N 
HETATM   22  C7  MIQ B 502      -7.382   5.271  21.570  1.00142.12     0.149 C 
HETATM   23  C8  MIQ B 502      -8.373   4.116  21.498  1.00144.10     0.187 C 
HETATM   24  O9  MIQ B 502      -9.438   4.258  22.389  1.00148.65    -0.388 OA
HETATM   25  C10 MIQ B 502      -9.636   5.462  23.070  1.00147.44     0.187 C 
HETATM   26  C11 MIQ B 502      -9.206   6.760  22.396  1.00144.08     0.149 C 
ENDBRANCH   5  21
TORSDOF 2
ENDMDL
