MODEL 1
REMARK VINA RESULT:      -7.5      0.000      0.000
REMARK  2 active torsions:
REMARK  status: ('A' for Active; 'I' for Inactive)
REMARK    1  A    between atoms: C5_5  and  N6_21 
REMARK    2  A    between atoms: C18_14  and  N17_19 
ROOT
HETATM    1  O1  MIQ B 502      -1.684   6.819  22.420  1.00142.91    -0.171 OA
HETATM    2  C2  MIQ B 502      -1.920   7.658  21.328  1.00141.17     0.195 A 
HETATM    3  C3  MIQ B 502      -0.907   8.673  20.709  1.00141.71     0.035 A 
HETATM    4  C4  MIQ B 502       0.492   9.043  21.033  1.00142.86     0.046 A 
HETATM    5  C5  MIQ B 502       1.169  10.026  20.268  1.00139.53     0.031 A 
HETATM    6  C12 MIQ B 502       0.485  10.674  19.158  1.00139.38     0.030 A 
HETATM    7  C13 MIQ B 502      -0.855  10.319  18.846  1.00141.18     0.019 A 
HETATM    8  C14 MIQ B 502      -1.560   9.284  19.652  1.00138.77     0.033 A 
HETATM    9  C15 MIQ B 502      -2.986   8.645  19.613  1.00142.10     0.195 A 
HETATM   10  N17 MIQ B 502      -3.019   7.767  20.602  1.00139.42    -0.288 N 
HETATM   11  O16 MIQ B 502      -4.013   8.946  18.717  1.00148.93    -0.171 OA
ENDROOT
BRANCH  10  12
HETATM   12  C18 MIQ B 502      -4.209   6.985  20.881  1.00139.82     0.187 C 
HETATM   13  C19 MIQ B 502      -4.600   6.253  19.592  1.00140.06     0.247 C 
HETATM   14  O25 MIQ B 502      -3.785   5.624  19.016  1.00143.95    -0.271 OA
HETATM   15  N20 MIQ B 502      -5.947   6.307  19.061  1.00140.02    -0.296 N 
HETATM   16  H13 MIQ B 502      -6.188   5.830  18.215  1.00142.77     0.171 HD
HETATM   17  C21 MIQ B 502      -6.923   7.090  19.775  1.00142.22     0.224 C 
HETATM   18  C22 MIQ B 502      -6.416   8.336  20.475  1.00139.52     0.106 C 
HETATM   19  O24 MIQ B 502      -8.060   6.772  19.817  1.00146.13    -0.273 OA
HETATM   20  C23 MIQ B 502      -5.320   7.883  21.423  1.00139.15     0.045 C 
ENDBRANCH  10  12
BRANCH   5  21
HETATM   21  N6  MIQ B 502       2.533  10.389  20.606  1.00140.95    -0.377 N 
HETATM   22  C7  MIQ B 502       3.436   9.347  21.065  1.00142.12     0.149 C 
HETATM   23  C8  MIQ B 502       4.537   9.903  21.958  1.00144.10     0.187 C 
HETATM   24  O9  MIQ B 502       5.155  11.033  21.420  1.00148.65    -0.388 OA
HETATM   25  C10 MIQ B 502       4.614  11.669  20.299  1.00147.44     0.187 C 
HETATM   26  C11 MIQ B 502       3.104  11.621  20.090  1.00144.08     0.149 C 
ENDBRANCH   5  21
TORSDOF 2
ENDMDL
MODEL 2
REMARK VINA RESULT:      -7.4      1.718      2.319
REMARK  2 active torsions:
REMARK  status: ('A' for Active; 'I' for Inactive)
REMARK    1  A    between atoms: C5_5  and  N6_21 
REMARK    2  A    between atoms: C18_14  and  N17_19 
ROOT
HETATM    1  O1  MIQ B 502      -3.092   7.841  21.329  1.00142.91    -0.171 OA
HETATM    2  C2  MIQ B 502      -2.658   8.853  20.470  1.00141.17     0.195 A 
HETATM    3  C3  MIQ B 502      -1.206   9.418  20.370  1.00141.71     0.035 A 
HETATM    4  C4  MIQ B 502       0.061   9.104  21.074  1.00142.86     0.046 A 
HETATM    5  C5  MIQ B 502       1.250   9.806  20.755  1.00139.53     0.031 A 
HETATM    6  C12 MIQ B 502       1.227  10.841  19.732  1.00139.38     0.030 A 
HETATM    7  C13 MIQ B 502       0.013  11.142  19.057  1.00141.18     0.019 A 
HETATM    8  C14 MIQ B 502      -1.232  10.400  19.393  1.00138.77     0.033 A 
HETATM    9  C15 MIQ B 502      -2.710  10.444  18.883  1.00142.10     0.195 A 
HETATM   10  N17 MIQ B 502      -3.363   9.527  19.578  1.00139.42    -0.288 N 
HETATM   11  O16 MIQ B 502      -3.229  11.284  17.896  1.00148.93    -0.171 OA
ENDROOT
BRANCH  10  12
HETATM   12  C18 MIQ B 502      -4.782   9.295  19.380  1.00139.82     0.187 C 
HETATM   13  C19 MIQ B 502      -5.473   9.437  20.741  1.00140.06     0.247 C 
HETATM   14  O25 MIQ B 502      -5.271  10.399  21.393  1.00143.95    -0.271 OA
HETATM   15  N20 MIQ B 502      -6.375   8.423  21.249  1.00140.02    -0.296 N 
HETATM   16  H13 MIQ B 502      -6.815   8.523  22.142  1.00142.77     0.171 HD
HETATM   17  C21 MIQ B 502      -6.598   7.252  20.439  1.00142.22     0.224 C 
HETATM   18  C22 MIQ B 502      -5.427   6.768  19.605  1.00139.52     0.106 C 
HETATM   19  O24 MIQ B 502      -7.643   6.702  20.424  1.00146.13    -0.273 OA
HETATM   20  C23 MIQ B 502      -5.012   7.933  18.727  1.00139.15     0.045 C 
ENDBRANCH  10  12
BRANCH   5  21
HETATM   21  N6  MIQ B 502       2.480   9.498  21.462  1.00140.95    -0.377 N 
HETATM   22  C7  MIQ B 502       3.649   9.116  20.689  1.00142.12     0.149 C 
HETATM   23  C8  MIQ B 502       4.599   8.236  21.491  1.00144.10     0.187 C 
HETATM   24  O9  MIQ B 502       4.866   8.744  22.764  1.00148.65    -0.388 OA
HETATM   25  C10 MIQ B 502       4.126   9.817  23.267  1.00147.44     0.187 C 
HETATM   26  C11 MIQ B 502       2.677   9.977  22.819  1.00144.08     0.149 C 
ENDBRANCH   5  21
TORSDOF 2
ENDMDL
MODEL 3
REMARK VINA RESULT:      -7.3      1.476      2.739
REMARK  2 active torsions:
REMARK  status: ('A' for Active; 'I' for Inactive)
REMARK    1  A    between atoms: C5_5  and  N6_21 
REMARK    2  A    between atoms: C18_14  and  N17_19 
ROOT
HETATM    1  O1  MIQ B 502      -3.075  10.818  18.168  1.00142.91    -0.171 OA
HETATM    2  C2  MIQ B 502      -2.867   9.850  19.153  1.00141.17     0.195 A 
HETATM    3  C3  MIQ B 502      -1.523   9.563  19.896  1.00141.71     0.035 A 
HETATM    4  C4  MIQ B 502      -0.168  10.159  19.816  1.00142.86     0.046 A 
HETATM    5  C5  MIQ B 502       0.877   9.674  20.642  1.00139.53     0.031 A 
HETATM    6  C12 MIQ B 502       0.617   8.585  21.573  1.00139.38     0.030 A 
HETATM    7  C13 MIQ B 502      -0.683   8.015  21.650  1.00141.18     0.019 A 
HETATM    8  C14 MIQ B 502      -1.777   8.530  20.783  1.00138.77     0.033 A 
HETATM    9  C15 MIQ B 502      -3.287   8.173  20.590  1.00142.10     0.195 A 
HETATM   10  N17 MIQ B 502      -3.740   8.995  19.658  1.00139.42    -0.288 N 
HETATM   11  O16 MIQ B 502      -4.005   7.185  21.266  1.00148.93    -0.171 OA
ENDROOT
BRANCH  10  12
HETATM   12  C18 MIQ B 502      -5.118   8.941  19.205  1.00139.82     0.187 C 
HETATM   13  C19 MIQ B 502      -6.020   9.171  20.424  1.00140.06     0.247 C 
HETATM   14  O25 MIQ B 502      -5.822  10.103  21.119  1.00143.95    -0.271 OA
HETATM   15  N20 MIQ B 502      -7.116   8.278  20.743  1.00140.02    -0.296 N 
HETATM   16  H13 MIQ B 502      -7.693   8.436  21.545  1.00142.77     0.171 HD
HETATM   17  C21 MIQ B 502      -7.331   7.142  19.884  1.00142.22     0.224 C 
HETATM   18  C22 MIQ B 502      -6.098   6.513  19.264  1.00139.52     0.106 C 
HETATM   19  O24 MIQ B 502      -8.416   6.725  19.672  1.00146.13    -0.273 OA
HETATM   20  C23 MIQ B 502      -5.392   7.616  18.496  1.00139.15     0.045 C 
ENDBRANCH  10  12
BRANCH   5  21
HETATM   21  N6  MIQ B 502       2.203  10.256  20.543  1.00140.95    -0.377 N 
HETATM   22  C7  MIQ B 502       2.326  11.703  20.522  1.00142.12     0.149 C 
HETATM   23  C8  MIQ B 502       3.587  12.157  19.796  1.00144.10     0.187 C 
HETATM   24  O9  MIQ B 502       4.729  11.466  20.207  1.00148.65    -0.388 OA
HETATM   25  C10 MIQ B 502       4.618  10.337  21.022  1.00147.44     0.187 C 
HETATM   26  C11 MIQ B 502       3.370   9.468  20.900  1.00144.08     0.149 C 
ENDBRANCH   5  21
TORSDOF 2
ENDMDL
MODEL 4
REMARK VINA RESULT:      -7.2      1.337      2.236
REMARK  2 active torsions:
REMARK  status: ('A' for Active; 'I' for Inactive)
REMARK    1  A    between atoms: C5_5  and  N6_21 
REMARK    2  A    between atoms: C18_14  and  N17_19 
ROOT
HETATM    1  O1  MIQ B 502      -2.815   8.136  19.123  1.00142.91    -0.171 OA
HETATM    2  C2  MIQ B 502      -2.548   8.152  20.494  1.00141.17     0.195 A 
HETATM    3  C3  MIQ B 502      -1.277   8.747  21.179  1.00141.71     0.035 A 
HETATM    4  C4  MIQ B 502      -0.063   9.422  20.662  1.00142.86     0.046 A 
HETATM    5  C5  MIQ B 502       0.946   9.864  21.555  1.00139.53     0.031 A 
HETATM    6  C12 MIQ B 502       0.787   9.653  22.987  1.00139.38     0.030 A 
HETATM    7  C13 MIQ B 502      -0.377   9.007  23.482  1.00141.18     0.019 A 
HETATM    8  C14 MIQ B 502      -1.434   8.548  22.541  1.00138.77     0.033 A 
HETATM    9  C15 MIQ B 502      -2.812   7.826  22.702  1.00142.10     0.195 A 
HETATM   10  N17 MIQ B 502      -3.296   7.686  21.479  1.00139.42    -0.288 N 
HETATM   11  O16 MIQ B 502      -3.404   7.412  23.897  1.00148.93    -0.171 OA
ENDROOT
BRANCH  10  12
HETATM   12  C18 MIQ B 502      -4.570   7.034  21.240  1.00139.82     0.187 C 
HETATM   13  C19 MIQ B 502      -4.345   5.937  20.193  1.00140.06     0.247 C 
HETATM   14  O25 MIQ B 502      -3.475   5.156  20.354  1.00143.95    -0.271 OA
HETATM   15  N20 MIQ B 502      -5.175   5.827  19.011  1.00140.02    -0.296 N 
HETATM   16  H13 MIQ B 502      -5.014   5.109  18.331  1.00142.77     0.171 HD
HETATM   17  C21 MIQ B 502      -6.224   6.797  18.830  1.00142.22     0.224 C 
HETATM   18  C22 MIQ B 502      -5.951   8.198  19.343  1.00139.52     0.106 C 
HETATM   19  O24 MIQ B 502      -7.247   6.512  18.312  1.00146.13    -0.273 OA
HETATM   20  C23 MIQ B 502      -5.621   8.061  20.818  1.00139.15     0.045 C 
ENDBRANCH  10  12
BRANCH   5  21
HETATM   21  N6  MIQ B 502       2.137  10.510  21.034  1.00140.95    -0.377 N 
HETATM   22  C7  MIQ B 502       3.320   9.700  20.797  1.00142.12     0.149 C 
HETATM   23  C8  MIQ B 502       4.599  10.521  20.889  1.00144.10     0.187 C 
HETATM   24  O9  MIQ B 502       4.535  11.711  20.161  1.00148.65    -0.388 OA
HETATM   25  C10 MIQ B 502       3.321  12.149  19.627  1.00147.44     0.187 C 
HETATM   26  C11 MIQ B 502       2.031  11.791  20.358  1.00144.08     0.149 C 
ENDBRANCH   5  21
TORSDOF 2
ENDMDL
MODEL 5
REMARK VINA RESULT:      -6.9      3.325      4.770
REMARK  2 active torsions:
REMARK  status: ('A' for Active; 'I' for Inactive)
REMARK    1  A    between atoms: C5_5  and  N6_21 
REMARK    2  A    between atoms: C18_14  and  N17_19 
ROOT
HETATM    1  O1  MIQ B 502      -2.654   8.978  19.904  1.00142.91    -0.171 OA
HETATM    2  C2  MIQ B 502      -1.290   9.172  20.134  1.00141.17     0.195 A 
HETATM    3  C3  MIQ B 502      -0.491  10.489  19.879  1.00141.71     0.035 A 
HETATM    4  C4  MIQ B 502      -0.868  11.828  19.368  1.00142.86     0.046 A 
HETATM    5  C5  MIQ B 502       0.106  12.850  19.247  1.00139.53     0.031 A 
HETATM    6  C12 MIQ B 502       1.486  12.582  19.628  1.00139.38     0.030 A 
HETATM    7  C13 MIQ B 502       1.848  11.299  20.119  1.00141.18     0.019 A 
HETATM    8  C14 MIQ B 502       0.820  10.231  20.247  1.00138.77     0.033 A 
HETATM    9  C15 MIQ B 502       0.833   8.745  20.733  1.00142.10     0.195 A 
HETATM   10  N17 MIQ B 502      -0.409   8.309  20.609  1.00139.42    -0.288 N 
HETATM   11  O16 MIQ B 502       1.937   8.028  21.199  1.00148.93    -0.171 OA
ENDROOT
BRANCH  10  12
HETATM   12  C18 MIQ B 502      -0.772   6.947  20.957  1.00139.82     0.187 C 
HETATM   13  C19 MIQ B 502      -1.513   6.340  19.759  1.00140.06     0.247 C 
HETATM   14  O25 MIQ B 502      -1.025   6.405  18.687  1.00143.95    -0.271 OA
HETATM   15  N20 MIQ B 502      -2.795   5.682  19.908  1.00140.02    -0.296 N 
HETATM   16  H13 MIQ B 502      -3.272   5.296  19.117  1.00142.77     0.171 HD
HETATM   17  C21 MIQ B 502      -3.375   5.625  21.225  1.00142.22     0.224 C 
HETATM   18  C22 MIQ B 502      -3.104   6.802  22.141  1.00139.52     0.106 C 
HETATM   19  O24 MIQ B 502      -4.025   4.701  21.573  1.00146.13    -0.273 OA
HETATM   20  C23 MIQ B 502      -1.595   6.929  22.244  1.00139.15     0.045 C 
ENDBRANCH  10  12
BRANCH   5  21
HETATM   21  N6  MIQ B 502      -0.275  14.152  18.730  1.00140.95    -0.377 N 
HETATM   22  C7  MIQ B 502      -1.082  15.023  19.568  1.00142.12     0.149 C 
HETATM   23  C8  MIQ B 502      -1.918  15.991  18.741  1.00144.10     0.187 C 
HETATM   24  O9  MIQ B 502      -1.179  16.637  17.748  1.00148.65    -0.388 OA
HETATM   25  C10 MIQ B 502       0.120  16.218  17.448  1.00147.44     0.187 C 
HETATM   26  C11 MIQ B 502       0.474  14.747  17.637  1.00144.08     0.149 C 
ENDBRANCH   5  21
TORSDOF 2
ENDMDL
MODEL 6
REMARK VINA RESULT:      -6.9      2.191      3.472
REMARK  2 active torsions:
REMARK  status: ('A' for Active; 'I' for Inactive)
REMARK    1  A    between atoms: C5_5  and  N6_21 
REMARK    2  A    between atoms: C18_14  and  N17_19 
ROOT
HETATM    1  O1  MIQ B 502      -0.001   7.166  21.198  1.00142.91    -0.171 OA
HETATM    2  C2  MIQ B 502       0.150   8.420  20.603  1.00141.17     0.195 A 
HETATM    3  C3  MIQ B 502       1.383   9.368  20.749  1.00141.71     0.035 A 
HETATM    4  C4  MIQ B 502       2.666   9.265  21.484  1.00142.86     0.046 A 
HETATM    5  C5  MIQ B 502       3.614  10.317  21.421  1.00139.53     0.031 A 
HETATM    6  C12 MIQ B 502       3.326  11.504  20.629  1.00139.38     0.030 A 
HETATM    7  C13 MIQ B 502       2.096  11.602  19.923  1.00141.18     0.019 A 
HETATM    8  C14 MIQ B 502       1.105  10.494  19.991  1.00138.77     0.033 A 
HETATM    9  C15 MIQ B 502      -0.308  10.243  19.370  1.00142.10     0.195 A 
HETATM   10  N17 MIQ B 502      -0.692   9.055  19.805  1.00139.42    -0.288 N 
HETATM   11  O16 MIQ B 502      -1.016  11.105  18.531  1.00148.93    -0.171 OA
ENDROOT
BRANCH  10  12
HETATM   12  C18 MIQ B 502      -1.979   8.494  19.439  1.00139.82     0.187 C 
HETATM   13  C19 MIQ B 502      -2.671   8.031  20.727  1.00140.06     0.247 C 
HETATM   14  O25 MIQ B 502      -2.759   8.780  21.634  1.00143.95    -0.271 OA
HETATM   15  N20 MIQ B 502      -3.227   6.700  20.859  1.00140.02    -0.296 N 
HETATM   16  H13 MIQ B 502      -3.671   6.408  21.708  1.00142.77     0.171 HD
HETATM   17  C21 MIQ B 502      -3.098   5.801  19.741  1.00142.22     0.224 C 
HETATM   18  C22 MIQ B 502      -1.843   5.935  18.901  1.00139.52     0.106 C 
HETATM   19  O24 MIQ B 502      -3.933   5.003  19.490  1.00146.13    -0.273 OA
HETATM   20  C23 MIQ B 502      -1.800   7.373  18.417  1.00139.15     0.045 C 
ENDBRANCH  10  12
BRANCH   5  21
HETATM   21  N6  MIQ B 502       4.860  10.209  22.158  1.00140.95    -0.377 N 
HETATM   22  C7  MIQ B 502       5.440  11.416  22.723  1.00142.12     0.149 C 
HETATM   23  C8  MIQ B 502       6.951  11.304  22.874  1.00144.10     0.187 C 
HETATM   24  O9  MIQ B 502       7.350  10.110  23.479  1.00148.65    -0.388 OA
HETATM   25  C10 MIQ B 502       6.431   9.077  23.681  1.00147.44     0.187 C 
HETATM   26  C11 MIQ B 502       5.276   8.926  22.696  1.00144.08     0.149 C 
ENDBRANCH   5  21
TORSDOF 2
ENDMDL
MODEL 7
REMARK VINA RESULT:      -6.8      1.830      8.302
REMARK  2 active torsions:
REMARK  status: ('A' for Active; 'I' for Inactive)
REMARK    1  A    between atoms: C5_5  and  N6_21 
REMARK    2  A    between atoms: C18_14  and  N17_19 
ROOT
HETATM    1  O1  MIQ B 502      -0.720   8.296  23.240  1.00142.91    -0.171 OA
HETATM    2  C2  MIQ B 502      -0.680   8.856  21.961  1.00141.17     0.195 A 
HETATM    3  C3  MIQ B 502      -1.823   8.811  20.898  1.00141.71     0.035 A 
HETATM    4  C4  MIQ B 502      -3.185   8.226  20.891  1.00142.86     0.046 A 
HETATM    5  C5  MIQ B 502      -4.013   8.353  19.747  1.00139.53     0.031 A 
HETATM    6  C12 MIQ B 502      -3.522   9.062  18.574  1.00139.38     0.030 A 
HETATM    7  C13 MIQ B 502      -2.217   9.624  18.582  1.00141.18     0.019 A 
HETATM    8  C14 MIQ B 502      -1.353   9.490  19.786  1.00138.77     0.033 A 
HETATM    9  C15 MIQ B 502       0.091   9.960  20.161  1.00142.10     0.195 A 
HETATM   10  N17 MIQ B 502       0.305   9.531  21.394  1.00139.42    -0.288 N 
HETATM   11  O16 MIQ B 502       0.971  10.682  19.354  1.00148.93    -0.171 OA
ENDROOT
BRANCH  10  12
HETATM   12  C18 MIQ B 502       1.565   9.774  22.072  1.00139.82     0.187 C 
HETATM   13  C19 MIQ B 502       1.827  11.285  22.045  1.00140.06     0.247 C 
HETATM   14  O25 MIQ B 502       0.981  12.023  22.409  1.00143.95    -0.271 OA
HETATM   15  N20 MIQ B 502       3.088  11.834  21.589  1.00140.02    -0.296 N 
HETATM   16  H13 MIQ B 502       3.243  12.823  21.570  1.00142.77     0.171 HD
HETATM   17  C21 MIQ B 502       4.100  10.914  21.139  1.00142.22     0.224 C 
HETATM   18  C22 MIQ B 502       3.617   9.653  20.450  1.00139.52     0.106 C 
HETATM   19  O24 MIQ B 502       5.250  11.131  21.306  1.00146.13    -0.273 OA
HETATM   20  C23 MIQ B 502       2.683   8.959  21.424  1.00139.15     0.045 C 
ENDBRANCH  10  12
BRANCH   5  21
HETATM   21  N6  MIQ B 502      -5.339   7.762  19.748  1.00140.95    -0.377 N 
HETATM   22  C7  MIQ B 502      -5.569   6.569  18.952  1.00142.12     0.149 C 
HETATM   23  C8  MIQ B 502      -7.026   6.441  18.526  1.00144.10     0.187 C 
HETATM   24  O9  MIQ B 502      -7.919   6.636  19.580  1.00148.65    -0.388 OA
HETATM   25  C10 MIQ B 502      -7.468   7.124  20.810  1.00147.44     0.187 C 
HETATM   26  C11 MIQ B 502      -6.266   8.063  20.825  1.00144.08     0.149 C 
ENDBRANCH   5  21
TORSDOF 2
ENDMDL
MODEL 8
REMARK VINA RESULT:      -6.8      2.732      3.754
REMARK  2 active torsions:
REMARK  status: ('A' for Active; 'I' for Inactive)
REMARK    1  A    between atoms: C5_5  and  N6_21 
REMARK    2  A    between atoms: C18_14  and  N17_19 
ROOT
HETATM    1  O1  MIQ B 502      -3.375  10.295  19.626  1.00142.91    -0.171 OA
HETATM    2  C2  MIQ B 502      -2.089   9.834  19.918  1.00141.17     0.195 A 
HETATM    3  C3  MIQ B 502      -0.768  10.662  19.820  1.00141.71     0.035 A 
HETATM    4  C4  MIQ B 502      -0.468  12.060  19.430  1.00142.86     0.046 A 
HETATM    5  C5  MIQ B 502       0.867  12.537  19.441  1.00139.53     0.031 A 
HETATM    6  C12 MIQ B 502       1.948  11.647  19.839  1.00139.38     0.030 A 
HETATM    7  C13 MIQ B 502       1.661  10.307  20.215  1.00141.18     0.019 A 
HETATM    8  C14 MIQ B 502       0.257   9.813  20.203  1.00138.77     0.033 A 
HETATM    9  C15 MIQ B 502      -0.431   8.450  20.542  1.00142.10     0.195 A 
HETATM   10  N17 MIQ B 502      -1.725   8.633  20.335  1.00139.42    -0.288 N 
HETATM   11  O16 MIQ B 502       0.198   7.281  20.972  1.00148.93    -0.171 OA
ENDROOT
BRANCH  10  12
HETATM   12  C18 MIQ B 502      -2.683   7.562  20.536  1.00139.82     0.187 C 
HETATM   13  C19 MIQ B 502      -3.532   7.450  19.264  1.00140.06     0.247 C 
HETATM   14  O25 MIQ B 502      -2.994   7.368  18.218  1.00143.95    -0.271 OA
HETATM   15  N20 MIQ B 502      -4.980   7.434  19.311  1.00140.02    -0.296 N 
HETATM   16  H13 MIQ B 502      -5.523   7.367  18.473  1.00142.77     0.171 HD
HETATM   17  C21 MIQ B 502      -5.614   7.546  20.600  1.00142.22     0.224 C 
HETATM   18  C22 MIQ B 502      -4.907   8.399  21.635  1.00139.52     0.106 C 
HETATM   19  O24 MIQ B 502      -6.632   6.994  20.837  1.00146.13    -0.273 OA
HETATM   20  C23 MIQ B 502      -3.513   7.821  21.792  1.00139.15     0.045 C 
ENDBRANCH  10  12
BRANCH   5  21
HETATM   21  N6  MIQ B 502       1.147  13.904  19.042  1.00140.95    -0.377 N 
HETATM   22  C7  MIQ B 502       0.356  14.493  17.976  1.00142.12     0.149 C 
HETATM   23  C8  MIQ B 502       1.117  15.591  17.243  1.00144.10     0.187 C 
HETATM   24  O9  MIQ B 502       1.723  16.502  18.109  1.00148.65    -0.388 OA
HETATM   25  C10 MIQ B 502       1.785  16.243  19.481  1.00147.44     0.187 C 
HETATM   26  C11 MIQ B 502       1.859  14.792  19.946  1.00144.08     0.149 C 
ENDBRANCH   5  21
TORSDOF 2
ENDMDL
MODEL 9
REMARK VINA RESULT:      -6.7     15.817     16.888
REMARK  2 active torsions:
REMARK  status: ('A' for Active; 'I' for Inactive)
REMARK    1  A    between atoms: C5_5  and  N6_21 
REMARK    2  A    between atoms: C18_14  and  N17_19 
ROOT
HETATM    1  O1  MIQ B 502      -0.872  -4.781  14.536  1.00142.91    -0.171 OA
HETATM    2  C2  MIQ B 502      -0.578  -6.089  14.925  1.00141.17     0.195 A 
HETATM    3  C3  MIQ B 502       0.839  -6.655  15.262  1.00141.71     0.035 A 
HETATM    4  C4  MIQ B 502       2.195  -6.058  15.282  1.00142.86     0.046 A 
HETATM    5  C5  MIQ B 502       3.319  -6.845  15.641  1.00139.53     0.031 A 
HETATM    6  C12 MIQ B 502       3.137  -8.247  15.991  1.00139.38     0.030 A 
HETATM    7  C13 MIQ B 502       1.836  -8.818  15.973  1.00141.18     0.019 A 
HETATM    8  C14 MIQ B 502       0.660  -7.987  15.598  1.00138.77     0.033 A 
HETATM    9  C15 MIQ B 502      -0.876  -8.249  15.470  1.00142.10     0.195 A 
HETATM   10  N17 MIQ B 502      -1.412  -7.101  15.093  1.00139.42    -0.288 N 
HETATM   11  O16 MIQ B 502      -1.540  -9.455  15.704  1.00148.93    -0.171 OA
ENDROOT
BRANCH  10  12
HETATM   12  C18 MIQ B 502      -2.839  -6.972  14.857  1.00139.82     0.187 C 
HETATM   13  C19 MIQ B 502      -3.566  -7.471  16.112  1.00140.06     0.247 C 
HETATM   14  O25 MIQ B 502      -3.254  -7.045  17.166  1.00143.95    -0.271 OA
HETATM   15  N20 MIQ B 502      -4.633  -8.448  16.038  1.00140.02    -0.296 N 
HETATM   16  H13 MIQ B 502      -5.096  -8.771  16.865  1.00142.77     0.171 HD
HETATM   17  C21 MIQ B 502      -4.989  -8.961  14.740  1.00142.22     0.224 C 
HETATM   18  C22 MIQ B 502      -3.866  -9.101  13.731  1.00139.52     0.106 C 
HETATM   19  O24 MIQ B 502      -6.104  -9.252  14.476  1.00146.13    -0.273 OA
HETATM   20  C23 MIQ B 502      -3.238  -7.727  13.590  1.00139.15     0.045 C 
ENDBRANCH  10  12
BRANCH   5  21
HETATM   21  N6  MIQ B 502       4.644  -6.252  15.642  1.00140.95    -0.377 N 
HETATM   22  C7  MIQ B 502       4.890  -5.100  14.792  1.00142.12     0.149 C 
HETATM   23  C8  MIQ B 502       6.356  -4.991  14.393  1.00144.10     0.187 C 
HETATM   24  O9  MIQ B 502       7.226  -5.130  15.477  1.00148.65    -0.388 OA
HETATM   25  C10 MIQ B 502       6.747  -5.556  16.718  1.00147.44     0.187 C 
HETATM   26  C11 MIQ B 502       5.546  -6.495  16.754  1.00144.08     0.149 C 
ENDBRANCH   5  21
TORSDOF 2
ENDMDL
