MODEL 1
REMARK VINA RESULT:      -7.3      0.000      0.000
REMARK  2 active torsions:
REMARK  status: ('A' for Active; 'I' for Inactive)
REMARK    1  A    between atoms: C5_5  and  N6_21 
REMARK    2  A    between atoms: C18_14  and  N17_19 
ROOT
HETATM    1  O1  MIQ B 502      -0.210  18.090  -1.523  1.00142.91    -0.171 OA
HETATM    2  C2  MIQ B 502      -0.420  19.435  -1.838  1.00141.17     0.195 A 
HETATM    3  C3  MIQ B 502       0.176  20.199  -3.063  1.00141.71     0.035 A 
HETATM    4  C4  MIQ B 502       1.064  19.800  -4.180  1.00142.86     0.046 A 
HETATM    5  C5  MIQ B 502       1.441  20.743  -5.168  1.00139.53     0.031 A 
HETATM    6  C12 MIQ B 502       0.952  22.112  -5.085  1.00139.38     0.030 A 
HETATM    7  C13 MIQ B 502       0.100  22.495  -4.015  1.00141.18     0.019 A 
HETATM    8  C14 MIQ B 502      -0.295  21.500  -2.981  1.00138.77     0.033 A 
HETATM    9  C15 MIQ B 502      -1.189  21.542  -1.699  1.00142.10     0.195 A 
HETATM   10  N17 MIQ B 502      -1.154  20.322  -1.188  1.00139.42    -0.288 N 
HETATM   11  O16 MIQ B 502      -1.880  22.647  -1.198  1.00148.93    -0.171 OA
ENDROOT
BRANCH  10  12
HETATM   12  C18 MIQ B 502      -1.866  19.990   0.031  1.00139.82     0.187 C 
HETATM   13  C19 MIQ B 502      -0.865  19.348   0.999  1.00140.06     0.247 C 
HETATM   14  O25 MIQ B 502       0.155  19.898   1.220  1.00143.95    -0.271 OA
HETATM   15  N20 MIQ B 502      -1.137  18.086   1.654  1.00140.02    -0.296 N 
HETATM   16  H13 MIQ B 502      -0.472  17.674   2.279  1.00142.77     0.171 HD
HETATM   17  C21 MIQ B 502      -2.385  17.429   1.359  1.00142.22     0.224 C 
HETATM   18  C22 MIQ B 502      -2.928  17.598  -0.046  1.00139.52     0.106 C 
HETATM   19  O24 MIQ B 502      -2.957  16.794   2.176  1.00146.13    -0.273 OA
HETATM   20  C23 MIQ B 502      -3.062  19.092  -0.280  1.00139.15     0.045 C 
ENDBRANCH  10  12
BRANCH   5  21
HETATM   21  N6  MIQ B 502       2.323  20.342  -6.249  1.00140.95    -0.377 N 
HETATM   22  C7  MIQ B 502       2.258  18.971  -6.726  1.00142.12     0.149 C 
HETATM   23  C8  MIQ B 502       3.578  18.518  -7.337  1.00144.10     0.187 C 
HETATM   24  O9  MIQ B 502       4.102  19.442  -8.244  1.00148.65    -0.388 OA
HETATM   25  C10 MIQ B 502       3.549  20.720  -8.352  1.00147.44     0.187 C 
HETATM   26  C11 MIQ B 502       2.915  21.347  -7.114  1.00144.08     0.149 C 
ENDBRANCH   5  21
TORSDOF 2
ENDMDL
MODEL 2
REMARK VINA RESULT:      -7.0      3.794      4.896
REMARK  2 active torsions:
REMARK  status: ('A' for Active; 'I' for Inactive)
REMARK    1  A    between atoms: C5_5  and  N6_21 
REMARK    2  A    between atoms: C18_14  and  N17_19 
ROOT
HETATM    1  O1  MIQ B 502      -0.434  15.998  -2.264  1.00142.91    -0.171 OA
HETATM    2  C2  MIQ B 502       0.801  16.623  -2.448  1.00141.17     0.195 A 
HETATM    3  C3  MIQ B 502       1.839  16.303  -3.571  1.00141.71     0.035 A 
HETATM    4  C4  MIQ B 502       1.858  15.338  -4.696  1.00142.86     0.046 A 
HETATM    5  C5  MIQ B 502       2.970  15.281  -5.573  1.00139.53     0.031 A 
HETATM    6  C12 MIQ B 502       4.099  16.177  -5.367  1.00139.38     0.030 A 
HETATM    7  C13 MIQ B 502       4.081  17.103  -4.290  1.00141.18     0.019 A 
HETATM    8  C14 MIQ B 502       2.909  17.159  -3.373  1.00138.77     0.033 A 
HETATM    9  C15 MIQ B 502       2.534  18.017  -2.121  1.00142.10     0.195 A 
HETATM   10  N17 MIQ B 502       1.340  17.596  -1.735  1.00139.42    -0.288 N 
HETATM   11  O16 MIQ B 502       3.307  19.019  -1.532  1.00148.93    -0.171 OA
ENDROOT
BRANCH  10  12
HETATM   12  C18 MIQ B 502       0.676  18.164  -0.576  1.00139.82     0.187 C 
HETATM   13  C19 MIQ B 502       0.272  17.006   0.345  1.00140.06     0.247 C 
HETATM   14  O25 MIQ B 502       1.081  16.204   0.650  1.00143.95    -0.271 OA
HETATM   15  N20 MIQ B 502      -1.077  16.872   0.856  1.00140.02    -0.296 N 
HETATM   16  H13 MIQ B 502      -1.330  16.108   1.451  1.00142.77     0.171 HD
HETATM   17  C21 MIQ B 502      -2.050  17.858   0.460  1.00142.22     0.224 C 
HETATM   18  C22 MIQ B 502      -1.904  18.437  -0.934  1.00139.52     0.106 C 
HETATM   19  O24 MIQ B 502      -2.914  18.201   1.190  1.00146.13    -0.273 OA
HETATM   20  C23 MIQ B 502      -0.508  19.027  -1.012  1.00139.15     0.045 C 
ENDBRANCH  10  12
BRANCH   5  21
HETATM   21  N6  MIQ B 502       2.982  14.321  -6.662  1.00140.95    -0.377 N 
HETATM   22  C7  MIQ B 502       1.775  14.153  -7.453  1.00142.12     0.149 C 
HETATM   23  C8  MIQ B 502       1.689  12.763  -8.071  1.00144.10     0.187 C 
HETATM   24  O9  MIQ B 502       2.873  12.375  -8.700  1.00148.65    -0.388 OA
HETATM   25  C10 MIQ B 502       4.041  13.125  -8.537  1.00147.44     0.187 C 
HETATM   26  C11 MIQ B 502       4.245  13.880  -7.228  1.00144.08     0.149 C 
ENDBRANCH   5  21
TORSDOF 2
ENDMDL
MODEL 3
REMARK VINA RESULT:      -6.8      3.034      3.966
REMARK  2 active torsions:
REMARK  status: ('A' for Active; 'I' for Inactive)
REMARK    1  A    between atoms: C5_5  and  N6_21 
REMARK    2  A    between atoms: C18_14  and  N17_19 
ROOT
HETATM    1  O1  MIQ B 502      -0.627  17.921  -2.039  1.00142.91    -0.171 OA
HETATM    2  C2  MIQ B 502       0.438  17.872  -1.138  1.00141.17     0.195 A 
HETATM    3  C3  MIQ B 502       1.954  17.996  -1.495  1.00141.71     0.035 A 
HETATM    4  C4  MIQ B 502       2.689  18.188  -2.767  1.00142.86     0.046 A 
HETATM    5  C5  MIQ B 502       4.105  18.265  -2.773  1.00139.53     0.031 A 
HETATM    6  C12 MIQ B 502       4.839  18.156  -1.520  1.00139.38     0.030 A 
HETATM    7  C13 MIQ B 502       4.135  17.973  -0.300  1.00141.18     0.019 A 
HETATM    8  C14 MIQ B 502       2.648  17.895  -0.300  1.00138.77     0.033 A 
HETATM    9  C15 MIQ B 502       1.557  17.708   0.804  1.00142.10     0.195 A 
HETATM   10  N17 MIQ B 502       0.394  17.721   0.175  1.00139.42    -0.288 N 
HETATM   11  O16 MIQ B 502       1.773  17.556   2.175  1.00148.93    -0.171 OA
ENDROOT
BRANCH  10  12
HETATM   12  C18 MIQ B 502      -0.857  17.556   0.891  1.00139.82     0.187 C 
HETATM   13  C19 MIQ B 502      -1.681  16.494   0.153  1.00140.06     0.247 C 
HETATM   14  O25 MIQ B 502      -1.183  15.457  -0.108  1.00143.95    -0.271 OA
HETATM   15  N20 MIQ B 502      -3.060  16.726  -0.228  1.00140.02    -0.296 N 
HETATM   16  H13 MIQ B 502      -3.585  16.027  -0.715  1.00142.77     0.171 HD
HETATM   17  C21 MIQ B 502      -3.642  18.003   0.093  1.00142.22     0.224 C 
HETATM   18  C22 MIQ B 502      -2.715  19.203   0.059  1.00139.52     0.106 C 
HETATM   19  O24 MIQ B 502      -4.785  18.108   0.374  1.00146.13    -0.273 OA
HETATM   20  C23 MIQ B 502      -1.578  18.896   1.017  1.00139.15     0.045 C 
ENDBRANCH  10  12
BRANCH   5  21
HETATM   21  N6  MIQ B 502       4.813  18.439  -4.028  1.00140.95    -0.377 N 
HETATM   22  C7  MIQ B 502       5.151  17.258  -4.804  1.00142.12     0.149 C 
HETATM   23  C8  MIQ B 502       6.376  17.485  -5.680  1.00144.10     0.187 C 
HETATM   24  O9  MIQ B 502       6.312  18.677  -6.405  1.00148.65    -0.388 OA
HETATM   25  C10 MIQ B 502       5.320  19.621  -6.128  1.00147.44     0.187 C 
HETATM   26  C11 MIQ B 502       4.789  19.725  -4.703  1.00144.08     0.149 C 
ENDBRANCH   5  21
TORSDOF 2
ENDMDL
MODEL 4
REMARK VINA RESULT:      -6.8      4.210      8.603
REMARK  2 active torsions:
REMARK  status: ('A' for Active; 'I' for Inactive)
REMARK    1  A    between atoms: C5_5  and  N6_21 
REMARK    2  A    between atoms: C18_14  and  N17_19 
ROOT
HETATM    1  O1  MIQ B 502       1.032  19.611   0.163  1.00142.91    -0.171 OA
HETATM    2  C2  MIQ B 502       0.306  18.921   1.138  1.00141.17     0.195 A 
HETATM    3  C3  MIQ B 502       0.704  18.757   2.639  1.00141.71     0.035 A 
HETATM    4  C4  MIQ B 502       1.855  19.227   3.446  1.00142.86     0.046 A 
HETATM    5  C5  MIQ B 502       1.940  18.911   4.826  1.00139.53     0.031 A 
HETATM    6  C12 MIQ B 502       0.890  18.120   5.452  1.00139.38     0.030 A 
HETATM    7  C13 MIQ B 502      -0.214  17.670   4.679  1.00141.18     0.019 A 
HETATM    8  C14 MIQ B 502      -0.300  18.007   3.231  1.00138.77     0.033 A 
HETATM    9  C15 MIQ B 502      -1.326  17.705   2.091  1.00142.10     0.195 A 
HETATM   10  N17 MIQ B 502      -0.843  18.283   1.003  1.00139.42    -0.288 N 
HETATM   11  O16 MIQ B 502      -2.509  16.972   2.204  1.00148.93    -0.171 OA
ENDROOT
BRANCH  10  12
HETATM   12  C18 MIQ B 502      -1.534  18.196  -0.270  1.00139.82     0.187 C 
HETATM   13  C19 MIQ B 502      -0.528  17.699  -1.315  1.00140.06     0.247 C 
HETATM   14  O25 MIQ B 502       0.104  16.728  -1.090  1.00143.95    -0.271 OA
HETATM   15  N20 MIQ B 502      -0.335  18.385  -2.576  1.00140.02    -0.296 N 
HETATM   16  H13 MIQ B 502       0.330  18.054  -3.248  1.00142.77     0.171 HD
HETATM   17  C21 MIQ B 502      -1.110  19.573  -2.823  1.00142.22     0.224 C 
HETATM   18  C22 MIQ B 502      -1.434  20.438  -1.620  1.00139.52     0.106 C 
HETATM   19  O24 MIQ B 502      -1.479  19.855  -3.910  1.00146.13    -0.273 OA
HETATM   20  C23 MIQ B 502      -2.158  19.544  -0.629  1.00139.15     0.045 C 
ENDBRANCH  10  12
BRANCH   5  21
HETATM   21  N6  MIQ B 502       3.080  19.365   5.600  1.00140.95    -0.377 N 
HETATM   22  C7  MIQ B 502       4.283  19.770   4.894  1.00142.12     0.149 C 
HETATM   23  C8  MIQ B 502       5.531  19.595   5.749  1.00144.10     0.187 C 
HETATM   24  O9  MIQ B 502       5.387  20.123   7.034  1.00148.65    -0.388 OA
HETATM   25  C10 MIQ B 502       4.134  20.536   7.493  1.00147.44     0.187 C 
HETATM   26  C11 MIQ B 502       2.893  19.825   6.965  1.00144.08     0.149 C 
ENDBRANCH   5  21
TORSDOF 2
ENDMDL
MODEL 5
REMARK VINA RESULT:      -6.8      3.828      8.777
REMARK  2 active torsions:
REMARK  status: ('A' for Active; 'I' for Inactive)
REMARK    1  A    between atoms: C5_5  and  N6_21 
REMARK    2  A    between atoms: C18_14  and  N17_19 
ROOT
HETATM    1  O1  MIQ B 502       4.686  18.809  -0.919  1.00142.91    -0.171 OA
HETATM    2  C2  MIQ B 502       3.419  18.242  -1.076  1.00141.17     0.195 A 
HETATM    3  C3  MIQ B 502       2.369  18.004   0.056  1.00141.71     0.035 A 
HETATM    4  C4  MIQ B 502       2.364  18.273   1.514  1.00142.86     0.046 A 
HETATM    5  C5  MIQ B 502       1.232  17.937   2.300  1.00139.53     0.031 A 
HETATM    6  C12 MIQ B 502       0.071  17.325   1.671  1.00139.38     0.030 A 
HETATM    7  C13 MIQ B 502       0.076  17.068   0.273  1.00141.18     0.019 A 
HETATM    8  C14 MIQ B 502       1.265  17.425  -0.548  1.00138.77     0.033 A 
HETATM    9  C15 MIQ B 502       1.631  17.304  -2.063  1.00142.10     0.195 A 
HETATM   10  N17 MIQ B 502       2.850  17.802  -2.185  1.00139.42    -0.288 N 
HETATM   11  O16 MIQ B 502       0.830  16.775  -3.077  1.00148.93    -0.171 OA
ENDROOT
BRANCH  10  12
HETATM   12  C18 MIQ B 502       3.528  17.839  -3.467  1.00139.82     0.187 C 
HETATM   13  C19 MIQ B 502       2.579  18.491  -4.480  1.00140.06     0.247 C 
HETATM   14  O25 MIQ B 502       2.078  19.526  -4.216  1.00143.95    -0.271 OA
HETATM   15  N20 MIQ B 502       2.282  17.874  -5.756  1.00140.02    -0.296 N 
HETATM   16  H13 MIQ B 502       1.656  18.306  -6.406  1.00142.77     0.171 HD
HETATM   17  C21 MIQ B 502       2.897  16.605  -6.051  1.00142.22     0.224 C 
HETATM   18  C22 MIQ B 502       3.126  15.670  -4.879  1.00139.52     0.106 C 
HETATM   19  O24 MIQ B 502       3.212  16.312  -7.152  1.00146.13    -0.273 OA
HETATM   20  C23 MIQ B 502       3.971  16.435  -3.876  1.00139.15     0.045 C 
ENDBRANCH  10  12
BRANCH   5  21
HETATM   21  N6  MIQ B 502       1.246  18.192   3.729  1.00140.95    -0.377 N 
HETATM   22  C7  MIQ B 502       2.301  19.029   4.275  1.00142.12     0.149 C 
HETATM   23  C8  MIQ B 502       2.588  18.702   5.735  1.00144.10     0.187 C 
HETATM   24  O9  MIQ B 502       1.430  18.620   6.510  1.00148.65    -0.388 OA
HETATM   25  C10 MIQ B 502       0.171  18.613   5.904  1.00147.44     0.187 C 
HETATM   26  C11 MIQ B 502       0.036  18.010   4.510  1.00144.08     0.149 C 
ENDBRANCH   5  21
TORSDOF 2
ENDMDL
MODEL 6
REMARK VINA RESULT:      -6.7      1.991      2.624
REMARK  2 active torsions:
REMARK  status: ('A' for Active; 'I' for Inactive)
REMARK    1  A    between atoms: C5_5  and  N6_21 
REMARK    2  A    between atoms: C18_14  and  N17_19 
ROOT
HETATM    1  O1  MIQ B 502       2.284  17.361  -1.223  1.00142.91    -0.171 OA
HETATM    2  C2  MIQ B 502       1.140  18.105  -1.520  1.00141.17     0.195 A 
HETATM    3  C3  MIQ B 502       1.013  19.200  -2.626  1.00141.71     0.035 A 
HETATM    4  C4  MIQ B 502       1.958  19.755  -3.624  1.00142.86     0.046 A 
HETATM    5  C5  MIQ B 502       1.539  20.770  -4.521  1.00139.53     0.031 A 
HETATM    6  C12 MIQ B 502       0.173  21.269  -4.461  1.00139.38     0.030 A 
HETATM    7  C13 MIQ B 502      -0.734  20.736  -3.505  1.00141.18     0.019 A 
HETATM    8  C14 MIQ B 502      -0.289  19.669  -2.567  1.00138.77     0.033 A 
HETATM    9  C15 MIQ B 502      -0.975  18.860  -1.418  1.00142.10     0.195 A 
HETATM   10  N17 MIQ B 502      -0.050  18.040  -0.947  1.00139.42    -0.288 N 
HETATM   11  O16 MIQ B 502      -2.294  18.985  -0.980  1.00148.93    -0.171 OA
ENDROOT
BRANCH  10  12
HETATM   12  C18 MIQ B 502      -0.329  17.135   0.152  1.00139.82     0.187 C 
HETATM   13  C19 MIQ B 502      -1.526  16.265  -0.250  1.00140.06     0.247 C 
HETATM   14  O25 MIQ B 502      -1.507  15.704  -1.288  1.00143.95    -0.271 OA
HETATM   15  N20 MIQ B 502      -2.679  16.107   0.612  1.00140.02    -0.296 N 
HETATM   16  H13 MIQ B 502      -3.457  15.541   0.335  1.00142.77     0.171 HD
HETATM   17  C21 MIQ B 502      -2.683  16.810   1.869  1.00142.22     0.224 C 
HETATM   18  C22 MIQ B 502      -1.992  18.159   1.897  1.00139.52     0.106 C 
HETATM   19  O24 MIQ B 502      -3.196  16.353   2.831  1.00146.13    -0.273 OA
HETATM   20  C23 MIQ B 502      -0.564  17.921   1.441  1.00139.15     0.045 C 
ENDBRANCH  10  12
BRANCH   5  21
HETATM   21  N6  MIQ B 502       2.480  21.314  -5.484  1.00140.95    -0.377 N 
HETATM   22  C7  MIQ B 502       3.777  21.764  -5.009  1.00142.12     0.149 C 
HETATM   23  C8  MIQ B 502       4.368  22.844  -5.906  1.00144.10     0.187 C 
HETATM   24  O9  MIQ B 502       4.309  22.517  -7.262  1.00148.65    -0.388 OA
HETATM   25  C10 MIQ B 502       3.564  21.415  -7.693  1.00147.44     0.187 C 
HETATM   26  C11 MIQ B 502       2.327  21.015  -6.897  1.00144.08     0.149 C 
ENDBRANCH   5  21
TORSDOF 2
ENDMDL
MODEL 7
REMARK VINA RESULT:      -6.7      3.083      8.479
REMARK  2 active torsions:
REMARK  status: ('A' for Active; 'I' for Inactive)
REMARK    1  A    between atoms: C5_5  and  N6_21 
REMARK    2  A    between atoms: C18_14  and  N17_19 
ROOT
HETATM    1  O1  MIQ B 502       1.127  20.950  -1.012  1.00142.91    -0.171 OA
HETATM    2  C2  MIQ B 502       0.414  19.782  -0.733  1.00141.17     0.195 A 
HETATM    3  C3  MIQ B 502       0.097  19.212   0.687  1.00141.71     0.035 A 
HETATM    4  C4  MIQ B 502       0.410  19.670   2.062  1.00142.86     0.046 A 
HETATM    5  C5  MIQ B 502      -0.026  18.919   3.183  1.00139.53     0.031 A 
HETATM    6  C12 MIQ B 502      -0.785  17.693   2.982  1.00139.38     0.030 A 
HETATM    7  C13 MIQ B 502      -1.086  17.255   1.664  1.00141.18     0.019 A 
HETATM    8  C14 MIQ B 502      -0.628  18.048   0.490  1.00138.77     0.033 A 
HETATM    9  C15 MIQ B 502      -0.762  17.895  -1.060  1.00142.10     0.195 A 
HETATM   10  N17 MIQ B 502      -0.136  18.934  -1.585  1.00139.42    -0.288 N 
HETATM   11  O16 MIQ B 502      -1.411  16.866  -1.745  1.00148.93    -0.171 OA
ENDROOT
BRANCH  10  12
HETATM   12  C18 MIQ B 502      -0.043  19.116  -3.022  1.00139.82     0.187 C 
HETATM   13  C19 MIQ B 502       1.436  19.317  -3.374  1.00140.06     0.247 C 
HETATM   14  O25 MIQ B 502       2.233  18.545  -2.975  1.00143.95    -0.271 OA
HETATM   15  N20 MIQ B 502       1.883  20.429  -4.188  1.00140.02    -0.296 N 
HETATM   16  H13 MIQ B 502       2.852  20.553  -4.405  1.00142.77     0.171 HD
HETATM   17  C21 MIQ B 502       0.892  21.365  -4.654  1.00142.22     0.224 C 
HETATM   18  C22 MIQ B 502      -0.286  21.624  -3.735  1.00139.52     0.106 C 
HETATM   19  O24 MIQ B 502       0.992  21.899  -5.703  1.00146.13    -0.273 OA
HETATM   20  C23 MIQ B 502      -0.931  20.276  -3.470  1.00139.15     0.045 C 
ENDBRANCH  10  12
BRANCH   5  21
HETATM   21  N6  MIQ B 502       0.300  19.372   4.523  1.00140.95    -0.377 N 
HETATM   22  C7  MIQ B 502       0.290  18.402   5.605  1.00142.12     0.149 C 
HETATM   23  C8  MIQ B 502       0.005  19.054   6.951  1.00144.10     0.187 C 
HETATM   24  O9  MIQ B 502       0.779  20.194   7.178  1.00148.65    -0.388 OA
HETATM   25  C10 MIQ B 502       1.538  20.751   6.146  1.00147.44     0.187 C 
HETATM   26  C11 MIQ B 502       1.034  20.610   4.713  1.00144.08     0.149 C 
ENDBRANCH   5  21
TORSDOF 2
ENDMDL
MODEL 8
REMARK VINA RESULT:      -6.6      3.216      5.087
REMARK  2 active torsions:
REMARK  status: ('A' for Active; 'I' for Inactive)
REMARK    1  A    between atoms: C5_5  and  N6_21 
REMARK    2  A    between atoms: C18_14  and  N17_19 
ROOT
HETATM    1  O1  MIQ B 502      -0.719  21.005   0.739  1.00142.91    -0.171 OA
HETATM    2  C2  MIQ B 502      -0.748  20.982  -0.657  1.00141.17     0.195 A 
HETATM    3  C3  MIQ B 502      -0.258  22.120  -1.609  1.00141.71     0.035 A 
HETATM    4  C4  MIQ B 502       0.339  23.457  -1.376  1.00142.86     0.046 A 
HETATM    5  C5  MIQ B 502       0.692  24.285  -2.471  1.00139.53     0.031 A 
HETATM    6  C12 MIQ B 502       0.466  23.819  -3.832  1.00139.38     0.030 A 
HETATM    7  C13 MIQ B 502      -0.106  22.537  -4.055  1.00141.18     0.019 A 
HETATM    8  C14 MIQ B 502      -0.472  21.671  -2.902  1.00138.77     0.033 A 
HETATM    9  C15 MIQ B 502      -1.097  20.246  -2.752  1.00142.10     0.195 A 
HETATM   10  N17 MIQ B 502      -1.179  20.018  -1.452  1.00139.42    -0.288 N 
HETATM   11  O16 MIQ B 502      -1.491  19.393  -3.785  1.00148.93    -0.171 OA
ENDROOT
BRANCH  10  12
HETATM   12  C18 MIQ B 502      -1.734  18.781  -0.933  1.00139.82     0.187 C 
HETATM   13  C19 MIQ B 502      -2.864  19.146   0.038  1.00140.06     0.247 C 
HETATM   14  O25 MIQ B 502      -3.706  19.893  -0.314  1.00143.95    -0.271 OA
HETATM   15  N20 MIQ B 502      -2.930  18.594   1.375  1.00140.02    -0.296 N 
HETATM   16  H13 MIQ B 502      -3.669  18.845   2.002  1.00142.77     0.171 HD
HETATM   17  C21 MIQ B 502      -1.884  17.692   1.785  1.00142.22     0.224 C 
HETATM   18  C22 MIQ B 502      -0.500  17.954   1.223  1.00139.52     0.106 C 
HETATM   19  O24 MIQ B 502      -2.098  16.790   2.518  1.00146.13    -0.273 OA
HETATM   20  C23 MIQ B 502      -0.637  17.935  -0.288  1.00139.15     0.045 C 
ENDBRANCH  10  12
BRANCH   5  21
HETATM   21  N6  MIQ B 502       1.262  25.598  -2.228  1.00140.95    -0.377 N 
HETATM   22  C7  MIQ B 502       0.382  26.667  -1.790  1.00142.12     0.149 C 
HETATM   23  C8  MIQ B 502       0.912  28.039  -2.186  1.00144.10     0.187 C 
HETATM   24  O9  MIQ B 502       2.262  28.211  -1.873  1.00148.65    -0.388 OA
HETATM   25  C10 MIQ B 502       3.037  27.123  -1.462  1.00147.44     0.187 C 
HETATM   26  C11 MIQ B 502       2.688  25.737  -1.992  1.00144.08     0.149 C 
ENDBRANCH   5  21
TORSDOF 2
ENDMDL
MODEL 9
REMARK VINA RESULT:      -6.6      3.271      4.176
REMARK  2 active torsions:
REMARK  status: ('A' for Active; 'I' for Inactive)
REMARK    1  A    between atoms: C5_5  and  N6_21 
REMARK    2  A    between atoms: C18_14  and  N17_19 
ROOT
HETATM    1  O1  MIQ B 502       2.217  19.565  -1.684  1.00142.91    -0.171 OA
HETATM    2  C2  MIQ B 502       1.682  18.322  -2.027  1.00141.17     0.195 A 
HETATM    3  C3  MIQ B 502       2.196  17.377  -3.160  1.00141.71     0.035 A 
HETATM    4  C4  MIQ B 502       3.304  17.471  -4.140  1.00142.86     0.046 A 
HETATM    5  C5  MIQ B 502       3.529  16.423  -5.069  1.00139.53     0.031 A 
HETATM    6  C12 MIQ B 502       2.667  15.250  -5.058  1.00139.38     0.030 A 
HETATM    7  C13 MIQ B 502       1.606  15.160  -4.118  1.00141.18     0.019 A 
HETATM    8  C14 MIQ B 502       1.375  16.261  -3.144  1.00138.77     0.033 A 
HETATM    9  C15 MIQ B 502       0.346  16.514  -1.994  1.00142.10     0.195 A 
HETATM   10  N17 MIQ B 502       0.656  17.693  -1.479  1.00139.42    -0.288 N 
HETATM   11  O16 MIQ B 502      -0.689  15.666  -1.597  1.00148.93    -0.171 OA
ENDROOT
BRANCH  10  12
HETATM   12  C18 MIQ B 502      -0.106  18.266  -0.386  1.00139.82     0.187 C 
HETATM   13  C19 MIQ B 502      -0.073  17.271   0.780  1.00140.06     0.247 C 
HETATM   14  O25 MIQ B 502       0.965  16.845   1.144  1.00143.95    -0.271 OA
HETATM   15  N20 MIQ B 502      -1.282  16.843   1.454  1.00140.02    -0.296 N 
HETATM   16  H13 MIQ B 502      -1.247  16.188   2.210  1.00142.77     0.171 HD
HETATM   17  C21 MIQ B 502      -2.538  17.369   0.985  1.00142.22     0.224 C 
HETATM   18  C22 MIQ B 502      -2.648  17.646  -0.502  1.00139.52     0.106 C 
HETATM   19  O24 MIQ B 502      -3.434  17.579   1.725  1.00146.13    -0.273 OA
HETATM   20  C23 MIQ B 502      -1.523  18.605  -0.847  1.00139.15     0.045 C 
ENDBRANCH  10  12
BRANCH   5  21
HETATM   21  N6  MIQ B 502       4.608  16.535  -6.033  1.00140.95    -0.377 N 
HETATM   22  C7  MIQ B 502       5.946  16.830  -5.548  1.00142.12     0.149 C 
HETATM   23  C8  MIQ B 502       6.791  17.534  -6.602  1.00144.10     0.187 C 
HETATM   24  O9  MIQ B 502       6.733  16.910  -7.850  1.00148.65    -0.388 OA
HETATM   25  C10 MIQ B 502       5.800  15.899  -8.093  1.00147.44     0.187 C 
HETATM   26  C11 MIQ B 502       4.468  15.942  -7.352  1.00144.08     0.149 C 
ENDBRANCH   5  21
TORSDOF 2
ENDMDL
