MODEL 1
REMARK VINA RESULT:      -6.5      0.000      0.000
REMARK  2 active torsions:
REMARK  status: ('A' for Active; 'I' for Inactive)
REMARK    1  A    between atoms: C5_5  and  N6_21 
REMARK    2  A    between atoms: C18_14  and  N17_19 
ROOT
HETATM    1  O1  MIQ B 502      20.012 -11.365   8.991  1.00142.91    -0.171 OA
HETATM    2  C2  MIQ B 502      21.081 -11.411   8.093  1.00141.17     0.195 A 
HETATM    3  C3  MIQ B 502      22.061 -12.611   7.888  1.00141.71     0.035 A 
HETATM    4  C4  MIQ B 502      22.171 -13.954   8.505  1.00142.86     0.046 A 
HETATM    5  C5  MIQ B 502      23.194 -14.847   8.099  1.00139.53     0.031 A 
HETATM    6  C12 MIQ B 502      24.140 -14.443   7.069  1.00139.38     0.030 A 
HETATM    7  C13 MIQ B 502      24.034 -13.156   6.477  1.00141.18     0.019 A 
HETATM    8  C14 MIQ B 502      22.957 -12.222   6.905  1.00138.77     0.033 A 
HETATM    9  C15 MIQ B 502      22.530 -10.774   6.498  1.00142.10     0.195 A 
HETATM   10  N17 MIQ B 502      21.479 -10.479   7.245  1.00139.42    -0.288 N 
HETATM   11  O16 MIQ B 502      23.140  -9.961   5.541  1.00148.93    -0.171 OA
ENDROOT
BRANCH  10  12
HETATM   12  C18 MIQ B 502      20.818  -9.191   7.147  1.00139.82     0.187 C 
HETATM   13  C19 MIQ B 502      20.803  -8.566   8.548  1.00140.06     0.247 C 
HETATM   14  O25 MIQ B 502      21.810  -8.499   9.159  1.00143.95    -0.271 OA
HETATM   15  N20 MIQ B 502      19.587  -8.048   9.140  1.00140.02    -0.296 N 
HETATM   16  H13 MIQ B 502      19.589  -7.648  10.058  1.00142.77     0.171 HD
HETATM   17  C21 MIQ B 502      18.369  -8.150   8.378  1.00142.22     0.224 C 
HETATM   18  C22 MIQ B 502      18.227  -9.365   7.481  1.00139.52     0.106 C 
HETATM   19  O24 MIQ B 502      17.527  -7.324   8.446  1.00146.13    -0.273 OA
HETATM   20  C23 MIQ B 502      19.423  -9.353   6.547  1.00139.15     0.045 C 
ENDBRANCH  10  12
BRANCH   5  21
HETATM   21  N6  MIQ B 502      23.299 -16.154   8.723  1.00140.95    -0.377 N 
HETATM   22  C7  MIQ B 502      24.619 -16.659   9.058  1.00142.12     0.149 C 
HETATM   23  C8  MIQ B 502      24.657 -18.182   9.079  1.00144.10     0.187 C 
HETATM   24  O9  MIQ B 502      23.602 -18.742   9.803  1.00148.65    -0.388 OA
HETATM   25  C10 MIQ B 502      22.537 -17.945  10.232  1.00147.44     0.187 C 
HETATM   26  C11 MIQ B 502      22.147 -16.734   9.391  1.00144.08     0.149 C 
ENDBRANCH   5  21
TORSDOF 2
ENDMDL
MODEL 2
REMARK VINA RESULT:      -6.4     22.182     24.470
REMARK  2 active torsions:
REMARK  status: ('A' for Active; 'I' for Inactive)
REMARK    1  A    between atoms: C5_5  and  N6_21 
REMARK    2  A    between atoms: C18_14  and  N17_19 
ROOT
HETATM    1  O1  MIQ B 502      13.701 -10.287 -15.937  1.00142.91    -0.171 OA
HETATM    2  C2  MIQ B 502      13.057  -9.344 -15.133  1.00141.17     0.195 A 
HETATM    3  C3  MIQ B 502      13.571  -8.794 -13.765  1.00141.71     0.035 A 
HETATM    4  C4  MIQ B 502      14.782  -9.057 -12.951  1.00142.86     0.046 A 
HETATM    5  C5  MIQ B 502      14.977  -8.384 -11.718  1.00139.53     0.031 A 
HETATM    6  C12 MIQ B 502      13.981  -7.431 -11.250  1.00139.38     0.030 A 
HETATM    7  C13 MIQ B 502      12.821  -7.178 -12.030  1.00141.18     0.019 A 
HETATM    8  C14 MIQ B 502      12.623  -7.885 -13.325  1.00138.77     0.033 A 
HETATM    9  C15 MIQ B 502      11.514  -7.870 -14.427  1.00142.10     0.195 A 
HETATM   10  N17 MIQ B 502      11.909  -8.728 -15.354  1.00139.42    -0.288 N 
HETATM   11  O16 MIQ B 502      10.345  -7.107 -14.427  1.00148.93    -0.171 OA
ENDROOT
BRANCH  10  12
HETATM   12  C18 MIQ B 502      11.108  -8.988 -16.536  1.00139.82     0.187 C 
HETATM   13  C19 MIQ B 502      10.794  -7.639 -17.194  1.00140.06     0.247 C 
HETATM   14  O25 MIQ B 502      11.676  -6.887 -17.416  1.00143.95    -0.271 OA
HETATM   15  N20 MIQ B 502       9.443  -7.262 -17.557  1.00140.02    -0.296 N 
HETATM   16  H13 MIQ B 502       9.250  -6.375 -17.980  1.00142.77     0.171 HD
HETATM   17  C21 MIQ B 502       8.383  -8.192 -17.266  1.00142.22     0.224 C 
HETATM   18  C22 MIQ B 502       8.542  -9.038 -16.018  1.00139.52     0.106 C 
HETATM   19  O24 MIQ B 502       7.439  -8.292 -17.970  1.00146.13    -0.273 OA
HETATM   20  C23 MIQ B 502       9.857  -9.782 -16.166  1.00139.15     0.045 C 
ENDBRANCH  10  12
BRANCH   5  21
HETATM   21  N6  MIQ B 502      16.160  -8.662 -10.924  1.00140.95    -0.377 N 
HETATM   22  C7  MIQ B 502      17.243  -9.416 -11.532  1.00142.12     0.149 C 
HETATM   23  C8  MIQ B 502      18.066 -10.167 -10.493  1.00144.10     0.187 C 
HETATM   24  O9  MIQ B 502      18.431  -9.368  -9.408  1.00148.65    -0.388 OA
HETATM   25  C10 MIQ B 502      17.870  -8.099  -9.244  1.00147.44     0.187 C 
HETATM   26  C11 MIQ B 502      16.453  -7.856  -9.752  1.00144.08     0.149 C 
ENDBRANCH   5  21
TORSDOF 2
ENDMDL
MODEL 3
REMARK VINA RESULT:      -6.3      3.968      7.834
REMARK  2 active torsions:
REMARK  status: ('A' for Active; 'I' for Inactive)
REMARK    1  A    between atoms: C5_5  and  N6_21 
REMARK    2  A    between atoms: C18_14  and  N17_19 
ROOT
HETATM    1  O1  MIQ B 502      20.914  -9.888  10.030  1.00142.91    -0.171 OA
HETATM    2  C2  MIQ B 502      19.816  -9.710   9.185  1.00141.17     0.195 A 
HETATM    3  C3  MIQ B 502      18.321  -9.603   9.624  1.00141.71     0.035 A 
HETATM    4  C4  MIQ B 502      17.640  -9.645  10.940  1.00142.86     0.046 A 
HETATM    5  C5  MIQ B 502      16.231  -9.515  11.023  1.00139.53     0.031 A 
HETATM    6  C12 MIQ B 502      15.449  -9.339   9.807  1.00139.38     0.030 A 
HETATM    7  C13 MIQ B 502      16.102  -9.297   8.546  1.00141.18     0.019 A 
HETATM    8  C14 MIQ B 502      17.582  -9.432   8.465  1.00138.77     0.033 A 
HETATM    9  C15 MIQ B 502      18.624  -9.432   7.300  1.00142.10     0.195 A 
HETATM   10  N17 MIQ B 502      19.808  -9.593   7.868  1.00139.42    -0.288 N 
HETATM   11  O16 MIQ B 502      18.354  -9.293   5.937  1.00148.93    -0.171 OA
ENDROOT
BRANCH  10  12
HETATM   12  C18 MIQ B 502      21.024  -9.658   7.079  1.00139.82     0.187 C 
HETATM   13  C19 MIQ B 502      21.780 -10.927   7.490  1.00140.06     0.247 C 
HETATM   14  O25 MIQ B 502      21.209 -11.959   7.503  1.00143.95    -0.271 OA
HETATM   15  N20 MIQ B 502      23.181 -10.896   7.856  1.00140.02    -0.296 N 
HETATM   16  H13 MIQ B 502      23.662 -11.731   8.129  1.00142.77     0.171 HD
HETATM   17  C21 MIQ B 502      23.854  -9.623   7.842  1.00142.22     0.224 C 
HETATM   18  C22 MIQ B 502      23.025  -8.410   8.217  1.00139.52     0.106 C 
HETATM   19  O24 MIQ B 502      24.995  -9.531   7.547  1.00146.13    -0.273 OA
HETATM   20  C23 MIQ B 502      21.845  -8.383   7.263  1.00139.15     0.045 C 
ENDBRANCH  10  12
BRANCH   5  21
HETATM   21  N6  MIQ B 502      15.576  -9.574  12.317  1.00140.95    -0.377 N 
HETATM   22  C7  MIQ B 502      16.310  -9.125  13.488  1.00142.12     0.149 C 
HETATM   23  C8  MIQ B 502      15.821  -9.804  14.760  1.00144.10     0.187 C 
HETATM   24  O9  MIQ B 502      14.431  -9.788  14.885  1.00148.65    -0.388 OA
HETATM   25  C10 MIQ B 502      13.629  -9.389  13.813  1.00147.44     0.187 C 
HETATM   26  C11 MIQ B 502      14.127  -9.643  12.395  1.00144.08     0.149 C 
ENDBRANCH   5  21
TORSDOF 2
ENDMDL
MODEL 4
REMARK VINA RESULT:      -6.3      6.771     10.530
REMARK  2 active torsions:
REMARK  status: ('A' for Active; 'I' for Inactive)
REMARK    1  A    between atoms: C5_5  and  N6_21 
REMARK    2  A    between atoms: C18_14  and  N17_19 
ROOT
HETATM    1  O1  MIQ B 502      15.384  -8.933  10.436  1.00142.91    -0.171 OA
HETATM    2  C2  MIQ B 502      15.909  -9.466  11.615  1.00141.17     0.195 A 
HETATM    3  C3  MIQ B 502      15.124  -9.722  12.941  1.00141.71     0.035 A 
HETATM    4  C4  MIQ B 502      13.714  -9.512  13.347  1.00142.86     0.046 A 
HETATM    5  C5  MIQ B 502      13.286  -9.853  14.655  1.00139.53     0.031 A 
HETATM    6  C12 MIQ B 502      14.239 -10.412  15.604  1.00139.38     0.030 A 
HETATM    7  C13 MIQ B 502      15.590 -10.615  15.214  1.00141.18     0.019 A 
HETATM    8  C14 MIQ B 502      16.033 -10.258  13.839  1.00138.77     0.033 A 
HETATM    9  C15 MIQ B 502      17.390 -10.335  13.066  1.00142.10     0.195 A 
HETATM   10  N17 MIQ B 502      17.147  -9.862  11.854  1.00139.42    -0.288 N 
HETATM   11  O16 MIQ B 502      18.607 -10.805  13.560  1.00148.93    -0.171 OA
ENDROOT
BRANCH  10  12
HETATM   12  C18 MIQ B 502      18.194  -9.768  10.854  1.00139.82     0.187 C 
HETATM   13  C19 MIQ B 502      18.257  -8.311  10.379  1.00140.06     0.247 C 
HETATM   14  O25 MIQ B 502      18.332  -7.447  11.179  1.00143.95    -0.271 OA
HETATM   15  N20 MIQ B 502      18.232  -7.965   8.973  1.00140.02    -0.296 N 
HETATM   16  H13 MIQ B 502      18.267  -7.010   8.675  1.00142.77     0.171 HD
HETATM   17  C21 MIQ B 502      18.130  -9.037   8.016  1.00142.22     0.224 C 
HETATM   18  C22 MIQ B 502      17.318 -10.247   8.434  1.00139.52     0.106 C 
HETATM   19  O24 MIQ B 502      18.658  -8.975   6.960  1.00146.13    -0.273 OA
HETATM   20  C23 MIQ B 502      17.939 -10.760   9.721  1.00139.15     0.045 C 
ENDBRANCH  10  12
BRANCH   5  21
HETATM   21  N6  MIQ B 502      11.906  -9.628  15.044  1.00140.95    -0.377 N 
HETATM   22  C7  MIQ B 502      10.993 -10.758  15.051  1.00142.12     0.149 C 
HETATM   23  C8  MIQ B 502       9.549 -10.324  14.834  1.00144.10     0.187 C 
HETATM   24  O9  MIQ B 502       9.177  -9.252  15.647  1.00148.65    -0.388 OA
HETATM   25  C10 MIQ B 502      10.139  -8.552  16.380  1.00147.44     0.187 C 
HETATM   26  C11 MIQ B 502      11.553  -8.451  15.818  1.00144.08     0.149 C 
ENDBRANCH   5  21
TORSDOF 2
ENDMDL
MODEL 5
REMARK VINA RESULT:      -6.2      5.318      6.619
REMARK  2 active torsions:
REMARK  status: ('A' for Active; 'I' for Inactive)
REMARK    1  A    between atoms: C5_5  and  N6_21 
REMARK    2  A    between atoms: C18_14  and  N17_19 
ROOT
HETATM    1  O1  MIQ B 502      18.544  -9.609   5.745  1.00142.91    -0.171 OA
HETATM    2  C2  MIQ B 502      19.331  -9.295   6.856  1.00141.17     0.195 A 
HETATM    3  C3  MIQ B 502      20.858  -8.968   6.841  1.00141.71     0.035 A 
HETATM    4  C4  MIQ B 502      21.872  -8.886   5.763  1.00142.86     0.046 A 
HETATM    5  C5  MIQ B 502      23.217  -8.556   6.068  1.00139.53     0.031 A 
HETATM    6  C12 MIQ B 502      23.602  -8.295   7.447  1.00139.38     0.030 A 
HETATM    7  C13 MIQ B 502      22.630  -8.373   8.481  1.00141.18     0.019 A 
HETATM    8  C14 MIQ B 502      21.219  -8.717   8.155  1.00138.77     0.033 A 
HETATM    9  C15 MIQ B 502      19.908  -8.889   8.990  1.00142.10     0.195 A 
HETATM   10  N17 MIQ B 502      18.961  -9.205   8.122  1.00139.42    -0.288 N 
HETATM   11  O16 MIQ B 502      19.772  -8.741  10.371  1.00148.93    -0.171 OA
ENDROOT
BRANCH  10  12
HETATM   12  C18 MIQ B 502      17.597  -9.458   8.548  1.00139.82     0.187 C 
HETATM   13  C19 MIQ B 502      17.166  -8.295   9.449  1.00140.06     0.247 C 
HETATM   14  O25 MIQ B 502      17.310  -7.187   9.069  1.00143.95    -0.271 OA
HETATM   15  N20 MIQ B 502      16.579  -8.517  10.755  1.00140.02    -0.296 N 
HETATM   16  H13 MIQ B 502      16.307  -7.749  11.337  1.00142.77     0.171 HD
HETATM   17  C21 MIQ B 502      16.422  -9.878  11.201  1.00142.22     0.224 C 
HETATM   18  C22 MIQ B 502      17.479 -10.868  10.751  1.00139.52     0.106 C 
HETATM   19  O24 MIQ B 502      15.512 -10.205  11.879  1.00146.13    -0.273 OA
HETATM   20  C23 MIQ B 502      17.499 -10.819   9.234  1.00139.15     0.045 C 
ENDBRANCH  10  12
BRANCH   5  21
HETATM   21  N6  MIQ B 502      24.203  -8.494   5.004  1.00140.95    -0.377 N 
HETATM   22  C7  MIQ B 502      23.974  -9.272   3.799  1.00142.12     0.149 C 
HETATM   23  C8  MIQ B 502      25.278  -9.635   3.100  1.00144.10     0.187 C 
HETATM   24  O9  MIQ B 502      26.137  -8.544   2.952  1.00148.65    -0.388 OA
HETATM   25  C10 MIQ B 502      25.869  -7.338   3.606  1.00147.44     0.187 C 
HETATM   26  C11 MIQ B 502      25.134  -7.381   4.941  1.00144.08     0.149 C 
ENDBRANCH   5  21
TORSDOF 2
ENDMDL
MODEL 6
REMARK VINA RESULT:      -6.1     20.423     23.447
REMARK  2 active torsions:
REMARK  status: ('A' for Active; 'I' for Inactive)
REMARK    1  A    between atoms: C5_5  and  N6_21 
REMARK    2  A    between atoms: C18_14  and  N17_19 
ROOT
HETATM    1  O1  MIQ B 502      16.868  -9.331 -14.474  1.00142.91    -0.171 OA
HETATM    2  C2  MIQ B 502      16.217  -8.737 -13.390  1.00141.17     0.195 A 
HETATM    3  C3  MIQ B 502      14.730  -8.262 -13.354  1.00141.71     0.035 A 
HETATM    4  C4  MIQ B 502      13.629  -8.283 -14.347  1.00142.86     0.046 A 
HETATM    5  C5  MIQ B 502      12.352  -7.766 -14.013  1.00139.53     0.031 A 
HETATM    6  C12 MIQ B 502      12.122  -7.214 -12.686  1.00139.38     0.030 A 
HETATM    7  C13 MIQ B 502      13.176  -7.195 -11.733  1.00141.18     0.019 A 
HETATM    8  C14 MIQ B 502      14.514  -7.741 -12.089  1.00138.77     0.033 A 
HETATM    9  C15 MIQ B 502      15.875  -7.893 -11.335  1.00142.10     0.195 A 
HETATM   10  N17 MIQ B 502      16.706  -8.462 -12.193  1.00139.42    -0.288 N 
HETATM   11  O16 MIQ B 502      16.152  -7.503 -10.024  1.00148.93    -0.171 OA
ENDROOT
BRANCH  10  12
HETATM   12  C18 MIQ B 502      18.084  -8.746 -11.838  1.00139.82     0.187 C 
HETATM   13  C19 MIQ B 502      18.071  -9.621 -10.578  1.00140.06     0.247 C 
HETATM   14  O25 MIQ B 502      17.403 -10.593 -10.559  1.00143.95    -0.271 OA
HETATM   15  N20 MIQ B 502      18.864  -9.292  -9.411  1.00140.02    -0.296 N 
HETATM   16  H13 MIQ B 502      18.842  -9.868  -8.593  1.00142.77     0.171 HD
HETATM   17  C21 MIQ B 502      19.664  -8.095  -9.456  1.00142.22     0.224 C 
HETATM   18  C22 MIQ B 502      19.106  -6.931 -10.251  1.00139.52     0.106 C 
HETATM   19  O24 MIQ B 502      20.707  -8.029  -8.903  1.00146.13    -0.273 OA
HETATM   20  C23 MIQ B 502      18.866  -7.446 -11.658  1.00139.15     0.045 C 
ENDBRANCH  10  12
BRANCH   5  21
HETATM   21  N6  MIQ B 502      11.288  -7.779 -15.000  1.00140.95    -0.377 N 
HETATM   22  C7  MIQ B 502       9.913  -7.689 -14.540  1.00142.12     0.149 C 
HETATM   23  C8  MIQ B 502       8.942  -8.338 -15.518  1.00144.10     0.187 C 
HETATM   24  O9  MIQ B 502       9.157  -7.943 -16.840  1.00148.65    -0.388 OA
HETATM   25  C10 MIQ B 502      10.300  -7.217 -17.184  1.00147.44     0.187 C 
HETATM   26  C11 MIQ B 502      11.577  -7.443 -16.383  1.00144.08     0.149 C 
ENDBRANCH   5  21
TORSDOF 2
ENDMDL
MODEL 7
REMARK VINA RESULT:      -6.1      5.157      6.806
REMARK  2 active torsions:
REMARK  status: ('A' for Active; 'I' for Inactive)
REMARK    1  A    between atoms: C5_5  and  N6_21 
REMARK    2  A    between atoms: C18_14  and  N17_19 
ROOT
HETATM    1  O1  MIQ B 502      18.700  -9.251   7.133  1.00142.91    -0.171 OA
HETATM    2  C2  MIQ B 502      19.921  -8.988   7.757  1.00141.17     0.195 A 
HETATM    3  C3  MIQ B 502      21.289  -8.747   7.043  1.00141.71     0.035 A 
HETATM    4  C4  MIQ B 502      21.705  -8.717   5.621  1.00142.86     0.046 A 
HETATM    5  C5  MIQ B 502      23.056  -8.464   5.274  1.00139.53     0.031 A 
HETATM    6  C12 MIQ B 502      24.040  -8.233   6.322  1.00139.38     0.030 A 
HETATM    7  C13 MIQ B 502      23.642  -8.261   7.685  1.00141.18     0.019 A 
HETATM    8  C14 MIQ B 502      22.221  -8.524   8.043  1.00138.77     0.033 A 
HETATM    9  C15 MIQ B 502      21.427  -8.627   9.387  1.00142.10     0.195 A 
HETATM   10  N17 MIQ B 502      20.174  -8.884   9.051  1.00139.42    -0.288 N 
HETATM   11  O16 MIQ B 502      21.942  -8.479  10.675  1.00148.93    -0.171 OA
ENDROOT
BRANCH  10  12
HETATM   12  C18 MIQ B 502      19.142  -9.062  10.056  1.00139.82     0.187 C 
HETATM   13  C19 MIQ B 502      18.447 -10.401   9.780  1.00140.06     0.247 C 
HETATM   14  O25 MIQ B 502      19.102 -11.372   9.644  1.00143.95    -0.271 OA
HETATM   15  N20 MIQ B 502      17.005 -10.508   9.687  1.00140.02    -0.296 N 
HETATM   16  H13 MIQ B 502      16.564 -11.387   9.500  1.00142.77     0.171 HD
HETATM   17  C21 MIQ B 502      16.228  -9.306   9.845  1.00142.22     0.224 C 
HETATM   18  C22 MIQ B 502      16.850  -8.020   9.336  1.00139.52     0.106 C 
HETATM   19  O24 MIQ B 502      15.161  -9.323  10.353  1.00146.13    -0.273 OA
HETATM   20  C23 MIQ B 502      18.182  -7.873  10.048  1.00139.15     0.045 C 
ENDBRANCH  10  12
BRANCH   5  21
HETATM   21  N6  MIQ B 502      23.452  -8.452   3.877  1.00140.95    -0.377 N 
HETATM   22  C7  MIQ B 502      22.696  -7.630   2.948  1.00142.12     0.149 C 
HETATM   23  C8  MIQ B 502      22.763  -8.171   1.526  1.00144.10     0.187 C 
HETATM   24  O9  MIQ B 502      24.063  -8.484   1.124  1.00148.65    -0.388 OA
HETATM   25  C10 MIQ B 502      25.106  -8.499   2.053  1.00147.44     0.187 C 
HETATM   26  C11 MIQ B 502      24.790  -8.869   3.499  1.00144.08     0.149 C 
ENDBRANCH   5  21
TORSDOF 2
ENDMDL
MODEL 8
REMARK VINA RESULT:      -6.1      5.331      6.420
REMARK  2 active torsions:
REMARK  status: ('A' for Active; 'I' for Inactive)
REMARK    1  A    between atoms: C5_5  and  N6_21 
REMARK    2  A    between atoms: C18_14  and  N17_19 
ROOT
HETATM    1  O1  MIQ B 502      19.794  -8.865  10.374  1.00142.91    -0.171 OA
HETATM    2  C2  MIQ B 502      19.884  -8.964   8.983  1.00141.17     0.195 A 
HETATM    3  C3  MIQ B 502      21.167  -8.729   8.124  1.00141.71     0.035 A 
HETATM    4  C4  MIQ B 502      22.565  -8.367   8.458  1.00142.86     0.046 A 
HETATM    5  C5  MIQ B 502      23.533  -8.223   7.432  1.00139.53     0.031 A 
HETATM    6  C12 MIQ B 502      23.150  -8.434   6.043  1.00139.38     0.030 A 
HETATM    7  C13 MIQ B 502      21.810  -8.783   5.723  1.00141.18     0.019 A 
HETATM    8  C14 MIQ B 502      20.799  -8.934   6.804  1.00138.77     0.033 A 
HETATM    9  C15 MIQ B 502      19.279  -9.299   6.845  1.00142.10     0.195 A 
HETATM   10  N17 MIQ B 502      18.932  -9.273   8.121  1.00139.42    -0.288 N 
HETATM   11  O16 MIQ B 502      18.460  -9.588   5.752  1.00148.93    -0.171 OA
ENDROOT
BRANCH  10  12
HETATM   12  C18 MIQ B 502      17.570  -9.551   8.540  1.00139.82     0.187 C 
HETATM   13  C19 MIQ B 502      17.119  -8.403   9.452  1.00140.06     0.247 C 
HETATM   14  O25 MIQ B 502      17.248  -7.290   9.083  1.00143.95    -0.271 OA
HETATM   15  N20 MIQ B 502      16.532  -8.647  10.753  1.00140.02    -0.296 N 
HETATM   16  H13 MIQ B 502      16.247  -7.889  11.342  1.00142.77     0.171 HD
HETATM   17  C21 MIQ B 502      16.395 -10.014  11.186  1.00142.22     0.224 C 
HETATM   18  C22 MIQ B 502      17.467 -10.984  10.730  1.00139.52     0.106 C 
HETATM   19  O24 MIQ B 502      15.487 -10.361  11.858  1.00146.13    -0.273 OA
HETATM   20  C23 MIQ B 502      17.490 -10.920   9.213  1.00139.15     0.045 C 
ENDBRANCH  10  12
BRANCH   5  21
HETATM   21  N6  MIQ B 502      24.895  -7.853   7.772  1.00140.95    -0.377 N 
HETATM   22  C7  MIQ B 502      25.779  -7.407   6.709  1.00142.12     0.149 C 
HETATM   23  C8  MIQ B 502      27.243  -7.673   7.038  1.00144.10     0.187 C 
HETATM   24  O9  MIQ B 502      27.595  -7.255   8.323  1.00148.65    -0.388 OA
HETATM   25  C10 MIQ B 502      26.611  -6.864   9.235  1.00147.44     0.187 C 
HETATM   26  C11 MIQ B 502      25.233  -7.509   9.142  1.00144.08     0.149 C 
ENDBRANCH   5  21
TORSDOF 2
ENDMDL
MODEL 9
REMARK VINA RESULT:      -6.0      5.768      9.077
REMARK  2 active torsions:
REMARK  status: ('A' for Active; 'I' for Inactive)
REMARK    1  A    between atoms: C5_5  and  N6_21 
REMARK    2  A    between atoms: C18_14  and  N17_19 
ROOT
HETATM    1  O1  MIQ B 502      18.140 -11.037  13.710  1.00142.91    -0.171 OA
HETATM    2  C2  MIQ B 502      17.089 -10.577  12.914  1.00141.17     0.195 A 
HETATM    3  C3  MIQ B 502      17.213  -9.981  11.475  1.00141.71     0.035 A 
HETATM    4  C4  MIQ B 502      18.361  -9.735  10.570  1.00142.86     0.046 A 
HETATM    5  C5  MIQ B 502      18.153  -9.168   9.287  1.00139.53     0.031 A 
HETATM    6  C12 MIQ B 502      16.805  -8.827   8.858  1.00139.38     0.030 A 
HETATM    7  C13 MIQ B 502      15.704  -9.064   9.724  1.00141.18     0.019 A 
HETATM    8  C14 MIQ B 502      15.928  -9.662  11.069  1.00138.77     0.033 A 
HETATM    9  C15 MIQ B 502      15.000 -10.061  12.263  1.00142.10     0.195 A 
HETATM   10  N17 MIQ B 502      15.797 -10.552  13.197  1.00139.42    -0.288 N 
HETATM   11  O16 MIQ B 502      13.612  -9.923  12.325  1.00148.93    -0.171 OA
ENDROOT
BRANCH  10  12
HETATM   12  C18 MIQ B 502      15.277 -11.015  14.470  1.00139.82     0.187 C 
HETATM   13  C19 MIQ B 502      14.217 -12.085  14.180  1.00140.06     0.247 C 
HETATM   14  O25 MIQ B 502      14.484 -12.981  13.461  1.00143.95    -0.271 OA
HETATM   15  N20 MIQ B 502      12.895 -12.029  14.771  1.00140.02    -0.296 N 
HETATM   16  H13 MIQ B 502      12.210 -12.730  14.568  1.00142.77     0.171 HD
HETATM   17  C21 MIQ B 502      12.589 -10.920  15.637  1.00142.22     0.224 C 
HETATM   18  C22 MIQ B 502      13.241  -9.593  15.300  1.00139.52     0.106 C 
HETATM   19  O24 MIQ B 502      11.870 -11.042  16.566  1.00146.13    -0.273 OA
HETATM   20  C23 MIQ B 502      14.739  -9.840  15.284  1.00139.15     0.045 C 
ENDBRANCH  10  12
BRANCH   5  21
HETATM   21  N6  MIQ B 502      19.288  -8.919   8.417  1.00140.95    -0.377 N 
HETATM   22  C7  MIQ B 502      20.598  -8.736   9.019  1.00142.12     0.149 C 
HETATM   23  C8  MIQ B 502      21.510  -7.882   8.147  1.00144.10     0.187 C 
HETATM   24  O9  MIQ B 502      21.518  -8.287   6.810  1.00148.65    -0.388 OA
HETATM   25  C10 MIQ B 502      20.591  -9.224   6.349  1.00147.44     0.187 C 
HETATM   26  C11 MIQ B 502      19.218  -9.280   7.012  1.00144.08     0.149 C 
ENDBRANCH   5  21
TORSDOF 2
ENDMDL
