MODEL 1
REMARK VINA RESULT:      -7.3      0.000      0.000
REMARK  2 active torsions:
REMARK  status: ('A' for Active; 'I' for Inactive)
REMARK    1  A    between atoms: C5_5  and  N6_21 
REMARK    2  A    between atoms: C18_14  and  N17_19 
ROOT
HETATM    1  O1  MIQ B 502     -18.369  -6.464  -8.021  1.00142.91    -0.171 OA
HETATM    2  C2  MIQ B 502     -18.654  -5.736  -6.864  1.00141.17     0.195 A 
HETATM    3  C3  MIQ B 502     -18.050  -5.985  -5.445  1.00141.71     0.035 A 
HETATM    4  C4  MIQ B 502     -17.077  -6.967  -4.910  1.00142.86     0.046 A 
HETATM    5  C5  MIQ B 502     -16.715  -6.942  -3.539  1.00139.53     0.031 A 
HETATM    6  C12 MIQ B 502     -17.301  -5.946  -2.654  1.00139.38     0.030 A 
HETATM    7  C13 MIQ B 502     -18.233  -5.004  -3.168  1.00141.18     0.019 A 
HETATM    8  C14 MIQ B 502     -18.608  -5.033  -4.608  1.00138.77     0.033 A 
HETATM    9  C15 MIQ B 502     -19.563  -4.187  -5.512  1.00142.10     0.195 A 
HETATM   10  N17 MIQ B 502     -19.469  -4.704  -6.726  1.00139.42    -0.288 N 
HETATM   11  O16 MIQ B 502     -20.354  -3.109  -5.113  1.00148.93    -0.171 OA
ENDROOT
BRANCH  10  12
HETATM   12  C18 MIQ B 502     -20.239  -4.175  -7.836  1.00139.82     0.187 C 
HETATM   13  C19 MIQ B 502     -21.101  -5.314  -8.393  1.00140.06     0.247 C 
HETATM   14  O25 MIQ B 502     -21.771  -5.944  -7.654  1.00143.95    -0.271 OA
HETATM   15  N20 MIQ B 502     -21.122  -5.637  -9.805  1.00140.02    -0.296 N 
HETATM   16  H13 MIQ B 502     -21.684  -6.387 -10.155  1.00142.77     0.171 HD
HETATM   17  C21 MIQ B 502     -20.288  -4.860 -10.686  1.00142.22     0.224 C 
HETATM   18  C22 MIQ B 502     -18.971  -4.367 -10.119  1.00139.52     0.106 C 
HETATM   19  O24 MIQ B 502     -20.619  -4.617 -11.794  1.00146.13    -0.273 OA
HETATM   20  C23 MIQ B 502     -19.310  -3.558  -8.881  1.00139.15     0.045 C 
ENDBRANCH  10  12
BRANCH   5  21
HETATM   21  N6  MIQ B 502     -15.772  -7.919  -3.025  1.00140.95    -0.377 N 
HETATM   22  C7  MIQ B 502     -14.513  -7.447  -2.475  1.00142.12     0.149 C 
HETATM   23  C8  MIQ B 502     -13.416  -8.499  -2.582  1.00144.10     0.187 C 
HETATM   24  O9  MIQ B 502     -13.826  -9.758  -2.139  1.00148.65    -0.388 OA
HETATM   25  C10 MIQ B 502     -15.173 -10.009  -1.867  1.00147.44     0.187 C 
HETATM   26  C11 MIQ B 502     -16.232  -9.247  -2.658  1.00144.08     0.149 C 
ENDBRANCH   5  21
TORSDOF 2
ENDMDL
MODEL 2
REMARK VINA RESULT:      -7.3      1.904      8.067
REMARK  2 active torsions:
REMARK  status: ('A' for Active; 'I' for Inactive)
REMARK    1  A    between atoms: C5_5  and  N6_21 
REMARK    2  A    between atoms: C18_14  and  N17_19 
ROOT
HETATM    1  O1  MIQ B 502     -16.809  -8.824  -4.116  1.00142.91    -0.171 OA
HETATM    2  C2  MIQ B 502     -17.038  -7.495  -3.751  1.00141.17     0.195 A 
HETATM    3  C3  MIQ B 502     -17.672  -6.388  -4.652  1.00141.71     0.035 A 
HETATM    4  C4  MIQ B 502     -18.190  -6.377  -6.041  1.00142.86     0.046 A 
HETATM    5  C5  MIQ B 502     -18.722  -5.187  -6.598  1.00139.53     0.031 A 
HETATM    6  C12 MIQ B 502     -18.759  -3.969  -5.800  1.00139.38     0.030 A 
HETATM    7  C13 MIQ B 502     -18.264  -3.980  -4.469  1.00141.18     0.019 A 
HETATM    8  C14 MIQ B 502     -17.709  -5.233  -3.888  1.00138.77     0.033 A 
HETATM    9  C15 MIQ B 502     -17.094  -5.626  -2.505  1.00142.10     0.195 A 
HETATM   10  N17 MIQ B 502     -16.779  -6.907  -2.596  1.00139.42    -0.288 N 
HETATM   11  O16 MIQ B 502     -16.915  -4.789  -1.402  1.00148.93    -0.171 OA
ENDROOT
BRANCH  10  12
HETATM   12  C18 MIQ B 502     -16.163  -7.616  -1.490  1.00139.82     0.187 C 
HETATM   13  C19 MIQ B 502     -14.918  -8.332  -2.029  1.00140.06     0.247 C 
HETATM   14  O25 MIQ B 502     -14.128  -7.720  -2.655  1.00143.95    -0.271 OA
HETATM   15  N20 MIQ B 502     -14.682  -9.740  -1.785  1.00140.02    -0.296 N 
HETATM   16  H13 MIQ B 502     -13.869 -10.197  -2.148  1.00142.77     0.171 HD
HETATM   17  C21 MIQ B 502     -15.667 -10.468  -1.027  1.00142.22     0.224 C 
HETATM   18  C22 MIQ B 502     -17.111 -10.039  -1.197  1.00139.52     0.106 C 
HETATM   19  O24 MIQ B 502     -15.361 -11.352  -0.305  1.00146.13    -0.273 OA
HETATM   20  C23 MIQ B 502     -17.168  -8.565  -0.840  1.00139.15     0.045 C 
ENDBRANCH  10  12
BRANCH   5  21
HETATM   21  N6  MIQ B 502     -19.211  -5.186  -7.964  1.00140.95    -0.377 N 
HETATM   22  C7  MIQ B 502     -20.596  -5.554  -8.206  1.00142.12     0.149 C 
HETATM   23  C8  MIQ B 502     -20.797  -6.128  -9.603  1.00144.10     0.187 C 
HETATM   24  O9  MIQ B 502     -20.203  -5.352 -10.600  1.00148.65    -0.388 OA
HETATM   25  C10 MIQ B 502     -19.336  -4.309 -10.262  1.00147.44     0.187 C 
HETATM   26  C11 MIQ B 502     -18.509  -4.431  -8.987  1.00144.08     0.149 C 
ENDBRANCH   5  21
TORSDOF 2
ENDMDL
MODEL 3
REMARK VINA RESULT:      -7.1      2.338      8.775
REMARK  2 active torsions:
REMARK  status: ('A' for Active; 'I' for Inactive)
REMARK    1  A    between atoms: C5_5  and  N6_21 
REMARK    2  A    between atoms: C18_14  and  N17_19 
ROOT
HETATM    1  O1  MIQ B 502     -19.493  -7.679  -1.580  1.00142.91    -0.171 OA
HETATM    2  C2  MIQ B 502     -18.312  -7.843  -2.307  1.00141.17     0.195 A 
HETATM    3  C3  MIQ B 502     -18.055  -7.364  -3.771  1.00141.71     0.035 A 
HETATM    4  C4  MIQ B 502     -18.884  -6.648  -4.769  1.00142.86     0.046 A 
HETATM    5  C5  MIQ B 502     -18.360  -6.342  -6.050  1.00139.53     0.031 A 
HETATM    6  C12 MIQ B 502     -16.998  -6.733  -6.385  1.00139.38     0.030 A 
HETATM    7  C13 MIQ B 502     -16.201  -7.417  -5.428  1.00141.18     0.019 A 
HETATM    8  C14 MIQ B 502     -16.757  -7.734  -4.084  1.00138.77     0.033 A 
HETATM    9  C15 MIQ B 502     -16.205  -8.447  -2.806  1.00142.10     0.195 A 
HETATM   10  N17 MIQ B 502     -17.187  -8.420  -1.920  1.00139.42    -0.288 N 
HETATM   11  O16 MIQ B 502     -14.934  -9.000  -2.642  1.00148.93    -0.171 OA
ENDROOT
BRANCH  10  12
HETATM   12  C18 MIQ B 502     -17.036  -9.013  -0.605  1.00139.82     0.187 C 
HETATM   13  C19 MIQ B 502     -15.716  -8.506  -0.011  1.00140.06     0.247 C 
HETATM   14  O25 MIQ B 502     -15.497  -7.347   0.001  1.00143.95    -0.271 OA
HETATM   15  N20 MIQ B 502     -14.729  -9.411   0.541  1.00140.02    -0.296 N 
HETATM   16  H13 MIQ B 502     -13.868  -9.067   0.920  1.00142.77     0.171 HD
HETATM   17  C21 MIQ B 502     -15.013 -10.822   0.506  1.00142.22     0.224 C 
HETATM   18  C22 MIQ B 502     -15.811 -11.327  -0.681  1.00139.52     0.106 C 
HETATM   19  O24 MIQ B 502     -14.646 -11.548   1.363  1.00146.13    -0.273 OA
HETATM   20  C23 MIQ B 502     -17.107 -10.537  -0.697  1.00139.15     0.045 C 
ENDBRANCH  10  12
BRANCH   5  21
HETATM   21  N6  MIQ B 502     -19.188  -5.655  -7.024  1.00140.95    -0.377 N 
HETATM   22  C7  MIQ B 502     -20.598  -5.467  -6.726  1.00142.12     0.149 C 
HETATM   23  C8  MIQ B 502     -21.436  -5.352  -7.993  1.00144.10     0.187 C 
HETATM   24  O9  MIQ B 502     -20.898  -4.459  -8.922  1.00148.65    -0.388 OA
HETATM   25  C10 MIQ B 502     -19.611  -3.944  -8.745  1.00147.44     0.187 C 
HETATM   26  C11 MIQ B 502     -18.575  -4.802  -8.026  1.00144.08     0.149 C 
ENDBRANCH   5  21
TORSDOF 2
ENDMDL
MODEL 4
REMARK VINA RESULT:      -7.0     15.656     18.417
REMARK  2 active torsions:
REMARK  status: ('A' for Active; 'I' for Inactive)
REMARK    1  A    between atoms: C5_5  and  N6_21 
REMARK    2  A    between atoms: C18_14  and  N17_19 
ROOT
HETATM    1  O1  MIQ B 502     -12.014 -17.794 -19.599  1.00142.91    -0.171 OA
HETATM    2  C2  MIQ B 502     -12.715 -17.400 -18.457  1.00141.17     0.195 A 
HETATM    3  C3  MIQ B 502     -14.167 -16.823 -18.420  1.00141.71     0.035 A 
HETATM    4  C4  MIQ B 502     -15.176 -16.536 -19.467  1.00142.86     0.046 A 
HETATM    5  C5  MIQ B 502     -16.441 -16.001 -19.115  1.00139.53     0.031 A 
HETATM    6  C12 MIQ B 502     -16.749 -15.734 -17.718  1.00139.38     0.030 A 
HETATM    7  C13 MIQ B 502     -15.783 -16.011 -16.714  1.00141.18     0.019 A 
HETATM    8  C14 MIQ B 502     -14.457 -16.574 -17.089  1.00138.77     0.033 A 
HETATM    9  C15 MIQ B 502     -13.179 -16.999 -16.295  1.00142.10     0.195 A 
HETATM   10  N17 MIQ B 502     -12.315 -17.434 -17.198  1.00139.42    -0.288 N 
HETATM   11  O16 MIQ B 502     -12.991 -16.929 -14.913  1.00148.93    -0.171 OA
ENDROOT
BRANCH  10  12
HETATM   12  C18 MIQ B 502     -10.995 -17.901 -16.820  1.00139.82     0.187 C 
HETATM   13  C19 MIQ B 502     -11.164 -18.898 -15.667  1.00140.06     0.247 C 
HETATM   14  O25 MIQ B 502     -11.929 -19.788 -15.782  1.00143.95    -0.271 OA
HETATM   15  N20 MIQ B 502     -10.404 -18.782 -14.439  1.00140.02    -0.296 N 
HETATM   16  H13 MIQ B 502     -10.529 -19.435 -13.691  1.00142.77     0.171 HD
HETATM   17  C21 MIQ B 502      -9.483 -17.681 -14.317  1.00142.22     0.224 C 
HETATM   18  C22 MIQ B 502      -9.876 -16.385 -15.001  1.00139.52     0.106 C 
HETATM   19  O24 MIQ B 502      -8.470 -17.786 -13.718  1.00146.13    -0.273 OA
HETATM   20  C23 MIQ B 502     -10.094 -16.719 -16.465  1.00139.15     0.045 C 
ENDBRANCH  10  12
BRANCH   5  21
HETATM   21  N6  MIQ B 502     -17.414 -15.710 -20.152  1.00140.95    -0.377 N 
HETATM   22  C7  MIQ B 502     -18.656 -16.465 -20.171  1.00142.12     0.149 C 
HETATM   23  C8  MIQ B 502     -19.251 -16.547 -21.571  1.00144.10     0.187 C 
HETATM   24  O9  MIQ B 502     -19.295 -15.309 -22.216  1.00148.65    -0.388 OA
HETATM   25  C10 MIQ B 502     -18.633 -14.205 -21.673  1.00147.44     0.187 C 
HETATM   26  C11 MIQ B 502     -17.367 -14.441 -20.856  1.00144.08     0.149 C 
ENDBRANCH   5  21
TORSDOF 2
ENDMDL
MODEL 5
REMARK VINA RESULT:      -6.8      1.708      2.685
REMARK  2 active torsions:
REMARK  status: ('A' for Active; 'I' for Inactive)
REMARK    1  A    between atoms: C5_5  and  N6_21 
REMARK    2  A    between atoms: C18_14  and  N17_19 
ROOT
HETATM    1  O1  MIQ B 502     -20.142  -3.311  -5.105  1.00142.91    -0.171 OA
HETATM    2  C2  MIQ B 502     -19.393  -4.380  -5.601  1.00141.17     0.195 A 
HETATM    3  C3  MIQ B 502     -18.378  -5.249  -4.792  1.00141.71     0.035 A 
HETATM    4  C4  MIQ B 502     -17.923  -5.235  -3.381  1.00142.86     0.046 A 
HETATM    5  C5  MIQ B 502     -16.966  -6.178  -2.928  1.00139.53     0.031 A 
HETATM    6  C12 MIQ B 502     -16.428  -7.164  -3.854  1.00139.38     0.030 A 
HETATM    7  C13 MIQ B 502     -16.865  -7.178  -5.206  1.00141.18     0.019 A 
HETATM    8  C14 MIQ B 502     -17.872  -6.188  -5.676  1.00138.77     0.033 A 
HETATM    9  C15 MIQ B 502     -18.578  -5.901  -7.041  1.00142.10     0.195 A 
HETATM   10  N17 MIQ B 502     -19.385  -4.875  -6.827  1.00139.42    -0.288 N 
HETATM   11  O16 MIQ B 502     -18.387  -6.588  -8.241  1.00148.93    -0.171 OA
ENDROOT
BRANCH  10  12
HETATM   12  C18 MIQ B 502     -20.200  -4.317  -7.890  1.00139.82     0.187 C 
HETATM   13  C19 MIQ B 502     -21.083  -5.442  -8.442  1.00140.06     0.247 C 
HETATM   14  O25 MIQ B 502     -21.722  -6.093  -7.694  1.00143.95    -0.271 OA
HETATM   15  N20 MIQ B 502     -21.161  -5.726  -9.861  1.00140.02    -0.296 N 
HETATM   16  H13 MIQ B 502     -21.737  -6.468 -10.208  1.00142.77     0.171 HD
HETATM   17  C21 MIQ B 502     -20.364  -4.925 -10.753  1.00142.22     0.224 C 
HETATM   18  C22 MIQ B 502     -19.025  -4.446 -10.227  1.00139.52     0.106 C 
HETATM   19  O24 MIQ B 502     -20.739  -4.652 -11.840  1.00146.13    -0.273 OA
HETATM   20  C23 MIQ B 502     -19.314  -3.671  -8.954  1.00139.15     0.045 C 
ENDBRANCH  10  12
BRANCH   5  21
HETATM   21  N6  MIQ B 502     -16.517  -6.143  -1.548  1.00140.95    -0.377 N 
HETATM   22  C7  MIQ B 502     -16.553  -4.877  -0.837  1.00142.12     0.149 C 
HETATM   23  C8  MIQ B 502     -15.518  -4.821   0.279  1.00144.10     0.187 C 
HETATM   24  O9  MIQ B 502     -15.530  -5.960   1.088  1.00148.65    -0.388 OA
HETATM   25  C10 MIQ B 502     -16.269  -7.085   0.714  1.00147.44     0.187 C 
HETATM   26  C11 MIQ B 502     -16.465  -7.370  -0.771  1.00144.08     0.149 C 
ENDBRANCH   5  21
TORSDOF 2
ENDMDL
MODEL 6
REMARK VINA RESULT:      -6.7      2.552      8.724
REMARK  2 active torsions:
REMARK  status: ('A' for Active; 'I' for Inactive)
REMARK    1  A    between atoms: C5_5  and  N6_21 
REMARK    2  A    between atoms: C18_14  and  N17_19 
ROOT
HETATM    1  O1  MIQ B 502     -15.109  -7.543  -3.744  1.00142.91    -0.171 OA
HETATM    2  C2  MIQ B 502     -16.378  -7.919  -3.299  1.00141.17     0.195 A 
HETATM    3  C3  MIQ B 502     -17.740  -7.524  -3.955  1.00141.71     0.035 A 
HETATM    4  C4  MIQ B 502     -18.102  -6.711  -5.140  1.00142.86     0.046 A 
HETATM    5  C5  MIQ B 502     -19.462  -6.529  -5.495  1.00139.53     0.031 A 
HETATM    6  C12 MIQ B 502     -20.508  -7.145  -4.691  1.00139.38     0.030 A 
HETATM    7  C13 MIQ B 502     -20.161  -7.926  -3.556  1.00141.18     0.019 A 
HETATM    8  C14 MIQ B 502     -18.731  -8.115  -3.189  1.00138.77     0.033 A 
HETATM    9  C15 MIQ B 502     -17.980  -8.882  -2.052  1.00142.10     0.195 A 
HETATM   10  N17 MIQ B 502     -16.691  -8.673  -2.260  1.00139.42    -0.288 N 
HETATM   11  O16 MIQ B 502     -18.559  -9.631  -1.026  1.00148.93    -0.171 OA
ENDROOT
BRANCH  10  12
HETATM   12  C18 MIQ B 502     -15.682  -9.228  -1.377  1.00139.82     0.187 C 
HETATM   13  C19 MIQ B 502     -15.971 -10.726  -1.219  1.00140.06     0.247 C 
HETATM   14  O25 MIQ B 502     -16.125 -11.388  -2.184  1.00143.95    -0.271 OA
HETATM   15  N20 MIQ B 502     -16.056 -11.354   0.083  1.00140.02    -0.296 N 
HETATM   16  H13 MIQ B 502     -16.252 -12.332   0.173  1.00142.77     0.171 HD
HETATM   17  C21 MIQ B 502     -15.875 -10.524   1.246  1.00142.22     0.224 C 
HETATM   18  C22 MIQ B 502     -16.371  -9.094   1.145  1.00139.52     0.106 C 
HETATM   19  O24 MIQ B 502     -15.360 -10.937   2.226  1.00146.13    -0.273 OA
HETATM   20  C23 MIQ B 502     -15.666  -8.476  -0.048  1.00139.15     0.045 C 
ENDBRANCH  10  12
BRANCH   5  21
HETATM   21  N6  MIQ B 502     -19.803  -5.717  -6.650  1.00140.95    -0.377 N 
HETATM   22  C7  MIQ B 502     -21.205  -5.559  -6.997  1.00142.12     0.149 C 
HETATM   23  C8  MIQ B 502     -21.395  -5.278  -8.483  1.00144.10     0.187 C 
HETATM   24  O9  MIQ B 502     -20.544  -4.278  -8.960  1.00148.65    -0.388 OA
HETATM   25  C10 MIQ B 502     -19.499  -3.800  -8.165  1.00147.44     0.187 C 
HETATM   26  C11 MIQ B 502     -18.850  -4.749  -7.163  1.00144.08     0.149 C 
ENDBRANCH   5  21
TORSDOF 2
ENDMDL
MODEL 7
REMARK VINA RESULT:      -6.7      3.146      4.369
REMARK  2 active torsions:
REMARK  status: ('A' for Active; 'I' for Inactive)
REMARK    1  A    between atoms: C5_5  and  N6_21 
REMARK    2  A    between atoms: C18_14  and  N17_19 
ROOT
HETATM    1  O1  MIQ B 502     -15.860  -7.307  -4.237  1.00142.91    -0.171 OA
HETATM    2  C2  MIQ B 502     -17.244  -7.494  -4.271  1.00141.17     0.195 A 
HETATM    3  C3  MIQ B 502     -18.035  -8.655  -3.590  1.00141.71     0.035 A 
HETATM    4  C4  MIQ B 502     -17.629  -9.819  -2.767  1.00142.86     0.046 A 
HETATM    5  C5  MIQ B 502     -18.604 -10.725  -2.277  1.00139.53     0.031 A 
HETATM    6  C12 MIQ B 502     -20.011 -10.508  -2.583  1.00139.38     0.030 A 
HETATM    7  C13 MIQ B 502     -20.400  -9.392  -3.372  1.00141.18     0.019 A 
HETATM    8  C14 MIQ B 502     -19.373  -8.443  -3.882  1.00138.77     0.033 A 
HETATM    9  C15 MIQ B 502     -19.412  -7.142  -4.748  1.00142.10     0.195 A 
HETATM   10  N17 MIQ B 502     -18.156  -6.745  -4.867  1.00139.42    -0.288 N 
HETATM   11  O16 MIQ B 502     -20.545  -6.531  -5.287  1.00148.93    -0.171 OA
ENDROOT
BRANCH  10  12
HETATM   12  C18 MIQ B 502     -17.805  -5.561  -5.629  1.00139.82     0.187 C 
HETATM   13  C19 MIQ B 502     -18.696  -4.411  -5.144  1.00140.06     0.247 C 
HETATM   14  O25 MIQ B 502     -18.767  -4.185  -3.989  1.00143.95    -0.271 OA
HETATM   15  N20 MIQ B 502     -19.451  -3.588  -6.067  1.00140.02    -0.296 N 
HETATM   16  H13 MIQ B 502     -20.034  -2.844  -5.737  1.00142.77     0.171 HD
HETATM   17  C21 MIQ B 502     -19.357  -3.890  -7.472  1.00142.22     0.224 C 
HETATM   18  C22 MIQ B 502     -19.184  -5.350  -7.845  1.00139.52     0.106 C 
HETATM   19  O24 MIQ B 502     -19.406  -3.040  -8.291  1.00146.13    -0.273 OA
HETATM   20  C23 MIQ B 502     -17.938  -5.834  -7.127  1.00139.15     0.045 C 
ENDBRANCH  10  12
BRANCH   5  21
HETATM   21  N6  MIQ B 502     -18.191 -11.869  -1.484  1.00140.95    -0.377 N 
HETATM   22  C7  MIQ B 502     -17.158 -12.743  -2.012  1.00142.12     0.149 C 
HETATM   23  C8  MIQ B 502     -17.275 -14.159  -1.463  1.00144.10     0.187 C 
HETATM   24  O9  MIQ B 502     -17.433 -14.192  -0.076  1.00148.65    -0.388 OA
HETATM   25  C10 MIQ B 502     -17.686 -13.016   0.636  1.00147.44     0.187 C 
HETATM   26  C11 MIQ B 502     -18.455 -11.895  -0.056  1.00144.08     0.149 C 
ENDBRANCH   5  21
TORSDOF 2
ENDMDL
MODEL 8
REMARK VINA RESULT:      -6.6      2.030      7.967
REMARK  2 active torsions:
REMARK  status: ('A' for Active; 'I' for Inactive)
REMARK    1  A    between atoms: C5_5  and  N6_21 
REMARK    2  A    between atoms: C18_14  and  N17_19 
ROOT
HETATM    1  O1  MIQ B 502     -16.170  -7.385  -4.907  1.00142.91    -0.171 OA
HETATM    2  C2  MIQ B 502     -17.477  -7.096  -4.507  1.00141.17     0.195 A 
HETATM    3  C3  MIQ B 502     -18.598  -6.476  -5.401  1.00141.71     0.035 A 
HETATM    4  C4  MIQ B 502     -18.648  -6.038  -6.816  1.00142.86     0.046 A 
HETATM    5  C5  MIQ B 502     -19.843  -5.502  -7.359  1.00139.53     0.031 A 
HETATM    6  C12 MIQ B 502     -21.027  -5.381  -6.520  1.00139.38     0.030 A 
HETATM    7  C13 MIQ B 502     -20.980  -5.802  -5.164  1.00141.18     0.019 A 
HETATM    8  C14 MIQ B 502     -19.724  -6.367  -4.600  1.00138.77     0.033 A 
HETATM    9  C15 MIQ B 502     -19.299  -6.923  -3.202  1.00142.10     0.195 A 
HETATM   10  N17 MIQ B 502     -18.032  -7.285  -3.322  1.00139.42    -0.288 N 
HETATM   11  O16 MIQ B 502     -20.097  -7.013  -2.061  1.00148.93    -0.171 OA
ENDROOT
BRANCH  10  12
HETATM   12  C18 MIQ B 502     -17.293  -7.838  -2.203  1.00139.82     0.187 C 
HETATM   13  C19 MIQ B 502     -16.013  -7.010  -2.033  1.00140.06     0.247 C 
HETATM   14  O25 MIQ B 502     -16.091  -5.835  -1.971  1.00143.95    -0.271 OA
HETATM   15  N20 MIQ B 502     -14.708  -7.631  -1.940  1.00140.02    -0.296 N 
HETATM   16  H13 MIQ B 502     -13.879  -7.079  -1.836  1.00142.77     0.171 HD
HETATM   17  C21 MIQ B 502     -14.637  -9.067  -2.029  1.00142.22     0.224 C 
HETATM   18  C22 MIQ B 502     -15.652  -9.745  -2.929  1.00139.52     0.106 C 
HETATM   19  O24 MIQ B 502     -13.830  -9.684  -1.425  1.00146.13    -0.273 OA
HETATM   20  C23 MIQ B 502     -17.021  -9.324  -2.428  1.00139.15     0.045 C 
ENDBRANCH  10  12
BRANCH   5  21
HETATM   21  N6  MIQ B 502     -19.873  -5.063  -8.742  1.00140.95    -0.377 N 
HETATM   22  C7  MIQ B 502     -21.141  -5.085  -9.450  1.00142.12     0.149 C 
HETATM   23  C8  MIQ B 502     -20.950  -5.239 -10.954  1.00144.10     0.187 C 
HETATM   24  O9  MIQ B 502     -19.993  -4.365 -11.472  1.00148.65    -0.388 OA
HETATM   25  C10 MIQ B 502     -19.172  -3.627 -10.616  1.00147.44     0.187 C 
HETATM   26  C11 MIQ B 502     -18.808  -4.223  -9.260  1.00144.08     0.149 C 
ENDBRANCH   5  21
TORSDOF 2
ENDMDL
MODEL 9
REMARK VINA RESULT:      -6.5      3.039      8.659
REMARK  2 active torsions:
REMARK  status: ('A' for Active; 'I' for Inactive)
REMARK    1  A    between atoms: C5_5  and  N6_21 
REMARK    2  A    between atoms: C18_14  and  N17_19 
ROOT
HETATM    1  O1  MIQ B 502     -20.510  -8.821  -2.208  1.00142.91    -0.171 OA
HETATM    2  C2  MIQ B 502     -19.194  -8.939  -2.660  1.00141.17     0.195 A 
HETATM    3  C3  MIQ B 502     -18.522  -8.080  -3.778  1.00141.71     0.035 A 
HETATM    4  C4  MIQ B 502     -19.002  -6.971  -4.638  1.00142.86     0.046 A 
HETATM    5  C5  MIQ B 502     -18.134  -6.373  -5.586  1.00139.53     0.031 A 
HETATM    6  C12 MIQ B 502     -16.765  -6.851  -5.715  1.00139.38     0.030 A 
HETATM    7  C13 MIQ B 502     -16.304  -7.913  -4.890  1.00141.18     0.019 A 
HETATM    8  C14 MIQ B 502     -17.219  -8.535  -3.894  1.00138.77     0.033 A 
HETATM    9  C15 MIQ B 502     -17.081  -9.683  -2.842  1.00142.10     0.195 A 
HETATM   10  N17 MIQ B 502     -18.258  -9.776  -2.246  1.00139.42    -0.288 N 
HETATM   11  O16 MIQ B 502     -15.944 -10.453  -2.589  1.00148.93    -0.171 OA
ENDROOT
BRANCH  10  12
HETATM   12  C18 MIQ B 502     -18.507 -10.760  -1.209  1.00139.82     0.187 C 
HETATM   13  C19 MIQ B 502     -17.419 -10.598  -0.140  1.00140.06     0.247 C 
HETATM   14  O25 MIQ B 502     -17.208  -9.529   0.310  1.00143.95    -0.271 OA
HETATM   15  N20 MIQ B 502     -16.644 -11.725   0.338  1.00140.02    -0.296 N 
HETATM   16  H13 MIQ B 502     -15.933 -11.606   1.032  1.00142.77     0.171 HD
HETATM   17  C21 MIQ B 502     -16.913 -13.020  -0.234  1.00142.22     0.224 C 
HETATM   18  C22 MIQ B 502     -17.326 -13.047  -1.693  1.00139.52     0.106 C 
HETATM   19  O24 MIQ B 502     -16.820 -14.009   0.406  1.00146.13    -0.273 OA
HETATM   20  C23 MIQ B 502     -18.555 -12.164  -1.809  1.00139.15     0.045 C 
ENDBRANCH  10  12
BRANCH   5  21
HETATM   21  N6  MIQ B 502     -18.621  -5.299  -6.432  1.00140.95    -0.377 N 
HETATM   22  C7  MIQ B 502     -18.607  -3.943  -5.910  1.00142.12     0.149 C 
HETATM   23  C8  MIQ B 502     -19.673  -3.072  -6.562  1.00144.10     0.187 C 
HETATM   24  O9  MIQ B 502     -19.683  -3.175  -7.954  1.00148.65    -0.388 OA
HETATM   25  C10 MIQ B 502     -18.933  -4.164  -8.596  1.00147.44     0.187 C 
HETATM   26  C11 MIQ B 502     -18.694  -5.485  -7.871  1.00144.08     0.149 C 
ENDBRANCH   5  21
TORSDOF 2
ENDMDL
