MODEL 1
REMARK VINA RESULT:      -6.1      0.000      0.000
REMARK  2 active torsions:
REMARK  status: ('A' for Active; 'I' for Inactive)
REMARK    1  A    between atoms: C5_5  and  N6_21 
REMARK    2  A    between atoms: C18_14  and  N17_19 
ROOT
HETATM    1  O1  MIQ B 502     -14.455  11.970   2.699  1.00142.91    -0.171 OA
HETATM    2  C2  MIQ B 502     -13.098  11.654   2.797  1.00141.17     0.195 A 
HETATM    3  C3  MIQ B 502     -12.087  12.240   3.833  1.00141.71     0.035 A 
HETATM    4  C4  MIQ B 502     -12.214  13.217   4.940  1.00142.86     0.046 A 
HETATM    5  C5  MIQ B 502     -11.086  13.557   5.729  1.00139.53     0.031 A 
HETATM    6  C12 MIQ B 502      -9.796  12.942   5.449  1.00139.38     0.030 A 
HETATM    7  C13 MIQ B 502      -9.674  12.004   4.388  1.00141.18     0.019 A 
HETATM    8  C14 MIQ B 502     -10.863  11.649   3.565  1.00138.77     0.033 A 
HETATM    9  C15 MIQ B 502     -11.116  10.690   2.356  1.00142.10     0.195 A 
HETATM   10  N17 MIQ B 502     -12.399  10.810   2.057  1.00139.42    -0.288 N 
HETATM   11  O16 MIQ B 502     -10.174   9.876   1.724  1.00148.93    -0.171 OA
ENDROOT
BRANCH  10  12
HETATM   12  C18 MIQ B 502     -12.993  10.069   0.961  1.00139.82     0.187 C 
HETATM   13  C19 MIQ B 502     -13.752  11.067   0.078  1.00140.06     0.247 C 
HETATM   14  O25 MIQ B 502     -13.201  12.040  -0.296  1.00143.95    -0.271 OA
HETATM   15  N20 MIQ B 502     -15.129  10.846  -0.315  1.00140.02    -0.296 N 
HETATM   16  H13 MIQ B 502     -15.616  11.509  -0.886  1.00142.77     0.171 HD
HETATM   17  C21 MIQ B 502     -15.785   9.656   0.164  1.00142.22     0.224 C 
HETATM   18  C22 MIQ B 502     -15.381   9.163   1.540  1.00139.52     0.106 C 
HETATM   19  O24 MIQ B 502     -16.592   9.091  -0.488  1.00146.13    -0.273 OA
HETATM   20  C23 MIQ B 502     -13.879   8.946   1.497  1.00139.15     0.045 C 
ENDBRANCH  10  12
BRANCH   5  21
HETATM   21  N6  MIQ B 502     -11.221  14.527   6.800  1.00140.95    -0.377 N 
HETATM   22  C7  MIQ B 502     -12.554  14.852   7.279  1.00142.12     0.149 C 
HETATM   23  C8  MIQ B 502     -12.618  16.252   7.876  1.00144.10     0.187 C 
HETATM   24  O9  MIQ B 502     -11.582  16.506   8.777  1.00148.65    -0.388 OA
HETATM   25  C10 MIQ B 502     -10.508  15.618   8.890  1.00147.44     0.187 C 
HETATM   26  C11 MIQ B 502     -10.088  14.822   7.659  1.00144.08     0.149 C 
ENDBRANCH   5  21
TORSDOF 2
ENDMDL
MODEL 2
REMARK VINA RESULT:      -6.0      4.368      6.376
REMARK  2 active torsions:
REMARK  status: ('A' for Active; 'I' for Inactive)
REMARK    1  A    between atoms: C5_5  and  N6_21 
REMARK    2  A    between atoms: C18_14  and  N17_19 
ROOT
HETATM    1  O1  MIQ B 502     -16.404  12.817   3.222  1.00142.91    -0.171 OA
HETATM    2  C2  MIQ B 502     -16.165  11.442   3.189  1.00141.17     0.195 A 
HETATM    3  C3  MIQ B 502     -14.823  10.748   2.789  1.00141.71     0.035 A 
HETATM    4  C4  MIQ B 502     -13.500  11.260   2.362  1.00142.86     0.046 A 
HETATM    5  C5  MIQ B 502     -12.447  10.360   2.060  1.00139.53     0.031 A 
HETATM    6  C12 MIQ B 502     -12.668   8.925   2.171  1.00139.38     0.030 A 
HETATM    7  C13 MIQ B 502     -13.937   8.434   2.581  1.00141.18     0.019 A 
HETATM    8  C14 MIQ B 502     -15.038   9.384   2.900  1.00138.77     0.033 A 
HETATM    9  C15 MIQ B 502     -16.521   9.230   3.371  1.00142.10     0.195 A 
HETATM   10  N17 MIQ B 502     -16.998  10.459   3.485  1.00139.42    -0.288 N 
HETATM   11  O16 MIQ B 502     -17.199   8.035   3.617  1.00148.93    -0.171 OA
ENDROOT
BRANCH  10  12
HETATM   12  C18 MIQ B 502     -18.368  10.704   3.892  1.00139.82     0.187 C 
HETATM   13  C19 MIQ B 502     -18.637   9.875   5.154  1.00140.06     0.247 C 
HETATM   14  O25 MIQ B 502     -17.888   9.948   6.062  1.00143.95    -0.271 OA
HETATM   15  N20 MIQ B 502     -19.790   9.005   5.265  1.00140.02    -0.296 N 
HETATM   16  H13 MIQ B 502     -19.951   8.464   6.092  1.00142.77     0.171 HD
HETATM   17  C21 MIQ B 502     -20.685   8.924   4.140  1.00142.22     0.224 C 
HETATM   18  C22 MIQ B 502     -20.062   9.057   2.763  1.00139.52     0.106 C 
HETATM   19  O24 MIQ B 502     -21.847   8.768   4.284  1.00146.13    -0.273 OA
HETATM   20  C23 MIQ B 502     -19.329  10.386   2.748  1.00139.15     0.045 C 
ENDBRANCH  10  12
BRANCH   5  21
HETATM   21  N6  MIQ B 502     -11.160  10.875   1.629  1.00140.95    -0.377 N 
HETATM   22  C7  MIQ B 502     -11.014  12.307   1.437  1.00142.12     0.149 C 
HETATM   23  C8  MIQ B 502      -9.926  12.638   0.422  1.00144.10     0.187 C 
HETATM   24  O9  MIQ B 502      -8.738  11.942   0.654  1.00148.65    -0.388 OA
HETATM   25  C10 MIQ B 502      -8.697  10.900   1.584  1.00147.44     0.187 C 
HETATM   26  C11 MIQ B 502      -9.960  10.077   1.813  1.00144.08     0.149 C 
ENDBRANCH   5  21
TORSDOF 2
ENDMDL
MODEL 3
REMARK VINA RESULT:      -5.9      3.975      5.234
REMARK  2 active torsions:
REMARK  status: ('A' for Active; 'I' for Inactive)
REMARK    1  A    between atoms: C5_5  and  N6_21 
REMARK    2  A    between atoms: C18_14  and  N17_19 
ROOT
HETATM    1  O1  MIQ B 502     -15.821   9.986   1.790  1.00142.91    -0.171 OA
HETATM    2  C2  MIQ B 502     -16.564  10.080   2.969  1.00141.17     0.195 A 
HETATM    3  C3  MIQ B 502     -16.498  11.243   4.009  1.00141.71     0.035 A 
HETATM    4  C4  MIQ B 502     -15.715  12.499   4.086  1.00142.86     0.046 A 
HETATM    5  C5  MIQ B 502     -15.879  13.380   5.185  1.00139.53     0.031 A 
HETATM    6  C12 MIQ B 502     -16.822  13.048   6.243  1.00139.38     0.030 A 
HETATM    7  C13 MIQ B 502     -17.574  11.844   6.169  1.00141.18     0.019 A 
HETATM    8  C14 MIQ B 502     -17.400  10.925   5.012  1.00138.77     0.033 A 
HETATM    9  C15 MIQ B 502     -18.029   9.557   4.591  1.00142.10     0.195 A 
HETATM   10  N17 MIQ B 502     -17.461   9.232   3.441  1.00139.42    -0.288 N 
HETATM   11  O16 MIQ B 502     -18.992   8.829   5.292  1.00148.93    -0.171 OA
ENDROOT
BRANCH  10  12
HETATM   12  C18 MIQ B 502     -17.796   7.999   2.753  1.00139.82     0.187 C 
HETATM   13  C19 MIQ B 502     -16.482   7.310   2.362  1.00140.06     0.247 C 
HETATM   14  O25 MIQ B 502     -15.653   7.145   3.184  1.00143.95    -0.271 OA
HETATM   15  N20 MIQ B 502     -16.233   6.851   1.012  1.00140.02    -0.296 N 
HETATM   16  H13 MIQ B 502     -15.369   6.408   0.768  1.00142.77     0.171 HD
HETATM   17  C21 MIQ B 502     -17.257   7.074   0.023  1.00142.22     0.224 C 
HETATM   18  C22 MIQ B 502     -18.083   8.337   0.172  1.00139.52     0.106 C 
HETATM   19  O24 MIQ B 502     -17.445   6.306  -0.855  1.00146.13    -0.273 OA
HETATM   20  C23 MIQ B 502     -18.702   8.287   1.557  1.00139.15     0.045 C 
ENDBRANCH  10  12
BRANCH   5  21
HETATM   21  N6  MIQ B 502     -15.094  14.599   5.254  1.00140.95    -0.377 N 
HETATM   22  C7  MIQ B 502     -14.989  15.286   6.530  1.00142.12     0.149 C 
HETATM   23  C8  MIQ B 502     -14.733  16.777   6.354  1.00144.10     0.187 C 
HETATM   24  O9  MIQ B 502     -13.711  17.050   5.443  1.00148.65    -0.388 OA
HETATM   25  C10 MIQ B 502     -13.186  16.032   4.643  1.00147.44     0.187 C 
HETATM   26  C11 MIQ B 502     -14.100  14.881   4.234  1.00144.08     0.149 C 
ENDBRANCH   5  21
TORSDOF 2
ENDMDL
MODEL 4
REMARK VINA RESULT:      -5.9      3.801      5.781
REMARK  2 active torsions:
REMARK  status: ('A' for Active; 'I' for Inactive)
REMARK    1  A    between atoms: C5_5  and  N6_21 
REMARK    2  A    between atoms: C18_14  and  N17_19 
ROOT
HETATM    1  O1  MIQ B 502     -16.976  11.483   2.425  1.00142.91    -0.171 OA
HETATM    2  C2  MIQ B 502     -16.377  10.230   2.571  1.00141.17     0.195 A 
HETATM    3  C3  MIQ B 502     -14.843   9.936   2.567  1.00141.71     0.035 A 
HETATM    4  C4  MIQ B 502     -13.641  10.792   2.426  1.00142.86     0.046 A 
HETATM    5  C5  MIQ B 502     -12.345  10.219   2.465  1.00139.53     0.031 A 
HETATM    6  C12 MIQ B 502     -12.194   8.783   2.646  1.00139.38     0.030 A 
HETATM    7  C13 MIQ B 502     -13.346   7.962   2.783  1.00141.18     0.019 A 
HETATM    8  C14 MIQ B 502     -14.705   8.568   2.743  1.00138.77     0.033 A 
HETATM    9  C15 MIQ B 502     -16.161   8.011   2.857  1.00142.10     0.195 A 
HETATM   10  N17 MIQ B 502     -16.962   9.057   2.744  1.00139.42    -0.288 N 
HETATM   11  O16 MIQ B 502     -16.534   6.678   3.038  1.00148.93    -0.171 OA
ENDROOT
BRANCH  10  12
HETATM   12  C18 MIQ B 502     -18.406   8.914   2.788  1.00139.82     0.187 C 
HETATM   13  C19 MIQ B 502     -18.985   9.638   1.567  1.00140.06     0.247 C 
HETATM   14  O25 MIQ B 502     -18.551   9.398   0.496  1.00143.95    -0.271 OA
HETATM   15  N20 MIQ B 502     -20.056  10.605   1.689  1.00140.02    -0.296 N 
HETATM   16  H13 MIQ B 502     -20.421  11.076   0.884  1.00142.77     0.171 HD
HETATM   17  C21 MIQ B 502     -20.562  10.889   3.007  1.00142.22     0.224 C 
HETATM   18  C22 MIQ B 502     -19.563  10.831   4.147  1.00139.52     0.106 C 
HETATM   19  O24 MIQ B 502     -21.700  11.148   3.189  1.00146.13    -0.273 OA
HETATM   20  C23 MIQ B 502     -18.952   9.442   4.114  1.00139.15     0.045 C 
ENDBRANCH  10  12
BRANCH   5  21
HETATM   21  N6  MIQ B 502     -11.177  11.068   2.311  1.00140.95    -0.377 N 
HETATM   22  C7  MIQ B 502     -11.068  11.889   1.117  1.00142.12     0.149 C 
HETATM   23  C8  MIQ B 502      -9.617  12.194   0.768  1.00144.10     0.187 C 
HETATM   24  O9  MIQ B 502      -8.874  12.634   1.865  1.00148.65    -0.388 OA
HETATM   25  C10 MIQ B 502      -9.403  12.554   3.156  1.00147.44     0.187 C 
HETATM   26  C11 MIQ B 502     -10.385  11.430   3.473  1.00144.08     0.149 C 
ENDBRANCH   5  21
TORSDOF 2
ENDMDL
MODEL 5
REMARK VINA RESULT:      -5.9      2.138      8.232
REMARK  2 active torsions:
REMARK  status: ('A' for Active; 'I' for Inactive)
REMARK    1  A    between atoms: C5_5  and  N6_21 
REMARK    2  A    between atoms: C18_14  and  N17_19 
ROOT
HETATM    1  O1  MIQ B 502     -12.287  16.127   5.167  1.00142.91    -0.171 OA
HETATM    2  C2  MIQ B 502     -11.404  15.123   5.570  1.00141.17     0.195 A 
HETATM    3  C3  MIQ B 502     -11.263  13.706   4.928  1.00141.71     0.035 A 
HETATM    4  C4  MIQ B 502     -11.941  13.027   3.799  1.00142.86     0.046 A 
HETATM    5  C5  MIQ B 502     -11.586  11.702   3.442  1.00139.53     0.031 A 
HETATM    6  C12 MIQ B 502     -10.549  11.005   4.189  1.00139.38     0.030 A 
HETATM    7  C13 MIQ B 502      -9.898  11.656   5.272  1.00141.18     0.019 A 
HETATM    8  C14 MIQ B 502     -10.273  13.049   5.640  1.00138.77     0.033 A 
HETATM    9  C15 MIQ B 502      -9.797  14.063   6.730  1.00142.10     0.195 A 
HETATM   10  N17 MIQ B 502     -10.519  15.157   6.551  1.00139.42    -0.288 N 
HETATM   11  O16 MIQ B 502      -8.811  13.851   7.695  1.00148.93    -0.171 OA
ENDROOT
BRANCH  10  12
HETATM   12  C18 MIQ B 502     -10.356  16.320   7.405  1.00139.82     0.187 C 
HETATM   13  C19 MIQ B 502     -11.735  16.680   7.972  1.00140.06     0.247 C 
HETATM   14  O25 MIQ B 502     -12.382  15.840   8.490  1.00143.95    -0.271 OA
HETATM   15  N20 MIQ B 502     -12.265  18.025   7.895  1.00140.02    -0.296 N 
HETATM   16  H13 MIQ B 502     -13.169  18.246   8.264  1.00142.77     0.171 HD
HETATM   17  C21 MIQ B 502     -11.461  19.031   7.249  1.00142.22     0.224 C 
HETATM   18  C22 MIQ B 502     -10.598  18.571   6.090  1.00139.52     0.106 C 
HETATM   19  O24 MIQ B 502     -11.472  20.156   7.609  1.00146.13    -0.273 OA
HETATM   20  C23 MIQ B 502      -9.709  17.464   6.627  1.00139.15     0.045 C 
ENDBRANCH  10  12
BRANCH   5  21
HETATM   21  N6  MIQ B 502     -12.269  11.044   2.343  1.00140.95    -0.377 N 
HETATM   22  C7  MIQ B 502     -11.906  11.406   0.983  1.00142.12     0.149 C 
HETATM   23  C8  MIQ B 502     -13.054  11.176   0.008  1.00144.10     0.187 C 
HETATM   24  O9  MIQ B 502     -13.647   9.920   0.153  1.00148.65    -0.388 OA
HETATM   25  C10 MIQ B 502     -13.330   9.110   1.247  1.00147.44     0.187 C 
HETATM   26  C11 MIQ B 502     -12.947   9.778   2.563  1.00144.08     0.149 C 
ENDBRANCH   5  21
TORSDOF 2
ENDMDL
MODEL 6
REMARK VINA RESULT:      -5.9      3.686      5.640
REMARK  2 active torsions:
REMARK  status: ('A' for Active; 'I' for Inactive)
REMARK    1  A    between atoms: C5_5  and  N6_21 
REMARK    2  A    between atoms: C18_14  and  N17_19 
ROOT
HETATM    1  O1  MIQ B 502     -12.939  12.124   2.865  1.00142.91    -0.171 OA
HETATM    2  C2  MIQ B 502     -12.627  12.816   4.037  1.00141.17     0.195 A 
HETATM    3  C3  MIQ B 502     -13.627  13.621   4.927  1.00141.71     0.035 A 
HETATM    4  C4  MIQ B 502     -15.082  13.889   4.838  1.00142.86     0.046 A 
HETATM    5  C5  MIQ B 502     -15.727  14.676   5.825  1.00139.53     0.031 A 
HETATM    6  C12 MIQ B 502     -14.955  15.224   6.931  1.00139.38     0.030 A 
HETATM    7  C13 MIQ B 502     -13.560  14.967   7.017  1.00141.18     0.019 A 
HETATM    8  C14 MIQ B 502     -12.888  14.138   5.979  1.00138.77     0.033 A 
HETATM    9  C15 MIQ B 502     -11.422  13.650   5.741  1.00142.10     0.195 A 
HETATM   10  N17 MIQ B 502     -11.452  12.932   4.631  1.00139.42    -0.288 N 
HETATM   11  O16 MIQ B 502     -10.311  13.922   6.541  1.00148.93    -0.171 OA
ENDROOT
BRANCH  10  12
HETATM   12  C18 MIQ B 502     -10.250  12.325   4.089  1.00139.82     0.187 C 
HETATM   13  C19 MIQ B 502     -10.140  12.739   2.617  1.00140.06     0.247 C 
HETATM   14  O25 MIQ B 502     -10.223  13.880   2.331  1.00143.95    -0.271 OA
HETATM   15  N20 MIQ B 502      -9.930  11.766   1.564  1.00140.02    -0.296 N 
HETATM   16  H13 MIQ B 502      -9.866  12.049   0.605  1.00142.77     0.171 HD
HETATM   17  C21 MIQ B 502      -9.841  10.378   1.936  1.00142.22     0.224 C 
HETATM   18  C22 MIQ B 502     -10.685   9.933   3.115  1.00139.52     0.106 C 
HETATM   19  O24 MIQ B 502      -9.141   9.625   1.352  1.00146.13    -0.273 OA
HETATM   20  C23 MIQ B 502     -10.284  10.810   4.287  1.00139.15     0.045 C 
ENDBRANCH  10  12
BRANCH   5  21
HETATM   21  N6  MIQ B 502     -17.150  14.942   5.718  1.00140.95    -0.377 N 
HETATM   22  C7  MIQ B 502     -17.580  16.265   5.298  1.00142.12     0.149 C 
HETATM   23  C8  MIQ B 502     -18.966  16.608   5.828  1.00144.10     0.187 C 
HETATM   24  O9  MIQ B 502     -19.895  15.586   5.624  1.00148.65    -0.388 OA
HETATM   25  C10 MIQ B 502     -19.476  14.325   5.191  1.00147.44     0.187 C 
HETATM   26  C11 MIQ B 502     -18.087  13.839   5.594  1.00144.08     0.149 C 
ENDBRANCH   5  21
TORSDOF 2
ENDMDL
MODEL 7
REMARK VINA RESULT:      -5.8      3.540      7.283
REMARK  2 active torsions:
REMARK  status: ('A' for Active; 'I' for Inactive)
REMARK    1  A    between atoms: C5_5  and  N6_21 
REMARK    2  A    between atoms: C18_14  and  N17_19 
ROOT
HETATM    1  O1  MIQ B 502     -14.648  13.178   3.134  1.00142.91    -0.171 OA
HETATM    2  C2  MIQ B 502     -14.311  11.846   2.887  1.00141.17     0.195 A 
HETATM    3  C3  MIQ B 502     -15.278  10.621   2.957  1.00141.71     0.035 A 
HETATM    4  C4  MIQ B 502     -16.719  10.478   3.273  1.00142.86     0.046 A 
HETATM    5  C5  MIQ B 502     -17.334   9.201   3.254  1.00139.53     0.031 A 
HETATM    6  C12 MIQ B 502     -16.544   8.024   2.922  1.00139.38     0.030 A 
HETATM    7  C13 MIQ B 502     -15.162   8.161   2.618  1.00141.18     0.019 A 
HETATM    8  C14 MIQ B 502     -14.523   9.505   2.638  1.00138.77     0.033 A 
HETATM    9  C15 MIQ B 502     -13.079  10.039   2.366  1.00142.10     0.195 A 
HETATM   10  N17 MIQ B 502     -13.135  11.349   2.544  1.00139.42    -0.288 N 
HETATM   11  O16 MIQ B 502     -11.961   9.282   2.011  1.00148.93    -0.171 OA
ENDROOT
BRANCH  10  12
HETATM   12  C18 MIQ B 502     -11.959  12.185   2.389  1.00139.82     0.187 C 
HETATM   13  C19 MIQ B 502     -11.362  11.901   1.005  1.00140.06     0.247 C 
HETATM   14  O25 MIQ B 502     -12.061  11.945   0.056  1.00143.95    -0.271 OA
HETATM   15  N20 MIQ B 502      -9.959  11.585   0.829  1.00140.02    -0.296 N 
HETATM   16  H13 MIQ B 502      -9.583  11.396  -0.079  1.00142.77     0.171 HD
HETATM   17  C21 MIQ B 502      -9.128  11.527   2.004  1.00142.22     0.224 C 
HETATM   18  C22 MIQ B 502      -9.783  11.030   3.278  1.00139.52     0.106 C 
HETATM   19  O24 MIQ B 502      -7.993  11.856   1.975  1.00146.13    -0.273 OA
HETATM   20  C23 MIQ B 502     -10.975  11.935   3.531  1.00139.15     0.045 C 
ENDBRANCH  10  12
BRANCH   5  21
HETATM   21  N6  MIQ B 502     -18.743   9.073   3.579  1.00140.95    -0.377 N 
HETATM   22  C7  MIQ B 502     -19.182   9.430   4.917  1.00142.12     0.149 C 
HETATM   23  C8  MIQ B 502     -20.445   8.681   5.320  1.00144.10     0.187 C 
HETATM   24  O9  MIQ B 502     -21.436   8.719   4.337  1.00148.65    -0.388 OA
HETATM   25  C10 MIQ B 502     -21.147   9.203   3.059  1.00147.44     0.187 C 
HETATM   26  C11 MIQ B 502     -19.732   9.031   2.516  1.00144.08     0.149 C 
ENDBRANCH   5  21
TORSDOF 2
ENDMDL
MODEL 8
REMARK VINA RESULT:      -5.8      5.491     11.227
REMARK  2 active torsions:
REMARK  status: ('A' for Active; 'I' for Inactive)
REMARK    1  A    between atoms: C5_5  and  N6_21 
REMARK    2  A    between atoms: C18_14  and  N17_19 
ROOT
HETATM    1  O1  MIQ B 502     -16.273   6.953   0.608  1.00142.91    -0.171 OA
HETATM    2  C2  MIQ B 502     -17.367   7.692   1.062  1.00141.17     0.195 A 
HETATM    3  C3  MIQ B 502     -18.870   7.281   0.945  1.00141.71     0.035 A 
HETATM    4  C4  MIQ B 502     -19.562   6.099   0.380  1.00142.86     0.046 A 
HETATM    5  C5  MIQ B 502     -20.976   6.007   0.425  1.00139.53     0.031 A 
HETATM    6  C12 MIQ B 502     -21.751   7.081   1.030  1.00139.38     0.030 A 
HETATM    7  C13 MIQ B 502     -21.088   8.214   1.573  1.00141.18     0.019 A 
HETATM    8  C14 MIQ B 502     -19.603   8.304   1.525  1.00138.77     0.033 A 
HETATM    9  C15 MIQ B 502     -18.549   9.355   2.005  1.00142.10     0.195 A 
HETATM   10  N17 MIQ B 502     -17.367   8.863   1.675  1.00139.42    -0.288 N 
HETATM   11  O16 MIQ B 502     -18.810  10.566   2.648  1.00148.93    -0.171 OA
ENDROOT
BRANCH  10  12
HETATM   12  C18 MIQ B 502     -16.140   9.587   1.956  1.00139.82     0.187 C 
HETATM   13  C19 MIQ B 502     -15.321   9.639   0.660  1.00140.06     0.247 C 
HETATM   14  O25 MIQ B 502     -15.837  10.015  -0.332  1.00143.95    -0.271 OA
HETATM   15  N20 MIQ B 502     -13.928   9.246   0.621  1.00140.02    -0.296 N 
HETATM   16  H13 MIQ B 502     -13.406   9.279  -0.232  1.00142.77     0.171 HD
HETATM   17  C21 MIQ B 502     -13.324   8.781   1.843  1.00142.22     0.224 C 
HETATM   18  C22 MIQ B 502     -14.220   8.019   2.799  1.00139.52     0.106 C 
HETATM   19  O24 MIQ B 502     -12.187   8.990   2.089  1.00146.13    -0.273 OA
HETATM   20  C23 MIQ B 502     -15.390   8.932   3.115  1.00139.15     0.045 C 
ENDBRANCH  10  12
BRANCH   5  21
HETATM   21  N6  MIQ B 502     -21.642   4.851  -0.146  1.00140.95    -0.377 N 
HETATM   22  C7  MIQ B 502     -21.140   3.528   0.183  1.00142.12     0.149 C 
HETATM   23  C8  MIQ B 502     -21.455   2.512  -0.908  1.00144.10     0.187 C 
HETATM   24  O9  MIQ B 502     -22.786   2.558  -1.326  1.00148.65    -0.388 OA
HETATM   25  C10 MIQ B 502     -23.620   3.602  -0.917  1.00147.44     0.187 C 
HETATM   26  C11 MIQ B 502     -23.000   4.969  -0.647  1.00144.08     0.149 C 
ENDBRANCH   5  21
TORSDOF 2
ENDMDL
MODEL 9
REMARK VINA RESULT:      -5.7      3.289      8.296
REMARK  2 active torsions:
REMARK  status: ('A' for Active; 'I' for Inactive)
REMARK    1  A    between atoms: C5_5  and  N6_21 
REMARK    2  A    between atoms: C18_14  and  N17_19 
ROOT
HETATM    1  O1  MIQ B 502     -13.410  16.410   5.865  1.00142.91    -0.171 OA
HETATM    2  C2  MIQ B 502     -12.341  15.953   6.639  1.00141.17     0.195 A 
HETATM    3  C3  MIQ B 502     -11.345  14.813   6.255  1.00141.71     0.035 A 
HETATM    4  C4  MIQ B 502     -11.212  13.932   5.071  1.00142.86     0.046 A 
HETATM    5  C5  MIQ B 502     -10.177  12.966   5.009  1.00139.53     0.031 A 
HETATM    6  C12 MIQ B 502      -9.239  12.839   6.115  1.00139.38     0.030 A 
HETATM    7  C13 MIQ B 502      -9.366  13.684   7.251  1.00141.18     0.019 A 
HETATM    8  C14 MIQ B 502     -10.453  14.698   7.309  1.00138.77     0.033 A 
HETATM    9  C15 MIQ B 502     -10.898  15.774   8.353  1.00142.10     0.195 A 
HETATM   10  N17 MIQ B 502     -11.950  16.380   7.828  1.00139.42    -0.288 N 
HETATM   11  O16 MIQ B 502     -10.302  16.037   9.588  1.00148.93    -0.171 OA
ENDROOT
BRANCH  10  12
HETATM   12  C18 MIQ B 502     -12.645  17.439   8.535  1.00139.82     0.187 C 
HETATM   13  C19 MIQ B 502     -14.132  17.067   8.592  1.00140.06     0.247 C 
HETATM   14  O25 MIQ B 502     -14.443  15.998   8.983  1.00143.95    -0.271 OA
HETATM   15  N20 MIQ B 502     -15.168  17.993   8.183  1.00140.02    -0.296 N 
HETATM   16  H13 MIQ B 502     -16.134  17.736   8.218  1.00142.77     0.171 HD
HETATM   17  C21 MIQ B 502     -14.762  19.288   7.699  1.00142.22     0.224 C 
HETATM   18  C22 MIQ B 502     -13.452  19.351   6.937  1.00139.52     0.106 C 
HETATM   19  O24 MIQ B 502     -15.416  20.253   7.893  1.00146.13    -0.273 OA
HETATM   20  C23 MIQ B 502     -12.388  18.786   7.861  1.00139.15     0.045 C 
ENDBRANCH  10  12
BRANCH   5  21
HETATM   21  N6  MIQ B 502     -10.068  12.100   3.849  1.00140.95    -0.377 N 
HETATM   22  C7  MIQ B 502     -11.153  11.176   3.567  1.00142.12     0.149 C 
HETATM   23  C8  MIQ B 502     -10.673   9.954   2.795  1.00144.10     0.187 C 
HETATM   24  O9  MIQ B 502      -9.870  10.283   1.700  1.00148.65    -0.388 OA
HETATM   25  C10 MIQ B 502      -9.405  11.590   1.532  1.00147.44     0.187 C 
HETATM   26  C11 MIQ B 502      -9.154  12.440   2.773  1.00144.08     0.149 C 
ENDBRANCH   5  21
TORSDOF 2
ENDMDL
