MODEL 1
REMARK VINA RESULT:      -7.5      0.000      0.000
REMARK  2 active torsions:
REMARK  status: ('A' for Active; 'I' for Inactive)
REMARK    1  A    between atoms: C5_5  and  N6_21 
REMARK    2  A    between atoms: C18_14  and  N17_19 
ROOT
HETATM    1  O1  MIQ B 502     -12.878  -2.181  -8.684  1.00142.91    -0.171 OA
HETATM    2  C2  MIQ B 502     -14.273  -2.224  -8.650  1.00141.17     0.195 A 
HETATM    3  C3  MIQ B 502     -15.183  -1.753  -7.471  1.00141.71     0.035 A 
HETATM    4  C4  MIQ B 502     -14.902  -1.163  -6.141  1.00142.86     0.046 A 
HETATM    5  C5  MIQ B 502     -15.967  -0.829  -5.266  1.00139.53     0.031 A 
HETATM    6  C12 MIQ B 502     -17.343  -1.066  -5.679  1.00139.38     0.030 A 
HETATM    7  C13 MIQ B 502     -17.612  -1.630  -6.955  1.00141.18     0.019 A 
HETATM    8  C14 MIQ B 502     -16.491  -1.977  -7.870  1.00138.77     0.033 A 
HETATM    9  C15 MIQ B 502     -16.393  -2.590  -9.304  1.00142.10     0.195 A 
HETATM   10  N17 MIQ B 502     -15.102  -2.657  -9.586  1.00139.42    -0.288 N 
HETATM   11  O16 MIQ B 502     -17.455  -2.988 -10.118  1.00148.93    -0.171 OA
ENDROOT
BRANCH  10  12
HETATM   12  C18 MIQ B 502     -14.628  -3.197 -10.846  1.00139.82     0.187 C 
HETATM   13  C19 MIQ B 502     -13.636  -4.323 -10.530  1.00140.06     0.247 C 
HETATM   14  O25 MIQ B 502     -13.952  -5.174  -9.777  1.00143.95    -0.271 OA
HETATM   15  N20 MIQ B 502     -12.321  -4.374 -11.134  1.00140.02    -0.296 N 
HETATM   16  H13 MIQ B 502     -11.680  -5.111 -10.914  1.00142.77     0.171 HD
HETATM   17  C21 MIQ B 502     -11.954  -3.318 -12.042  1.00142.22     0.224 C 
HETATM   18  C22 MIQ B 502     -12.514  -1.940 -11.746  1.00139.52     0.106 C 
HETATM   19  O24 MIQ B 502     -11.255  -3.519 -12.973  1.00146.13    -0.273 OA
HETATM   20  C23 MIQ B 502     -14.024  -2.088 -11.706  1.00139.15     0.045 C 
ENDBRANCH  10  12
BRANCH   5  21
HETATM   21  N6  MIQ B 502     -15.677  -0.266  -3.960  1.00140.95    -0.377 N 
HETATM   22  C7  MIQ B 502     -14.302   0.084  -3.644  1.00142.12     0.149 C 
HETATM   23  C8  MIQ B 502     -14.033   0.033  -2.145  1.00144.10     0.187 C 
HETATM   24  O9  MIQ B 502     -15.005   0.698  -1.395  1.00148.65    -0.388 OA
HETATM   25  C10 MIQ B 502     -16.189   1.132  -1.998  1.00147.44     0.187 C 
HETATM   26  C11 MIQ B 502     -16.740   0.340  -3.178  1.00144.08     0.149 C 
ENDBRANCH   5  21
TORSDOF 2
ENDMDL
MODEL 2
REMARK VINA RESULT:      -6.8      1.463      1.862
REMARK  2 active torsions:
REMARK  status: ('A' for Active; 'I' for Inactive)
REMARK    1  A    between atoms: C5_5  and  N6_21 
REMARK    2  A    between atoms: C18_14  and  N17_19 
ROOT
HETATM    1  O1  MIQ B 502     -12.950  -2.037  -9.955  1.00142.91    -0.171 OA
HETATM    2  C2  MIQ B 502     -14.012  -2.844  -9.538  1.00141.17     0.195 A 
HETATM    3  C3  MIQ B 502     -14.838  -2.673  -8.224  1.00141.71     0.035 A 
HETATM    4  C4  MIQ B 502     -14.783  -1.704  -7.103  1.00142.86     0.046 A 
HETATM    5  C5  MIQ B 502     -15.692  -1.808  -6.020  1.00139.53     0.031 A 
HETATM    6  C12 MIQ B 502     -16.685  -2.873  -6.010  1.00139.38     0.030 A 
HETATM    7  C13 MIQ B 502     -16.739  -3.801  -7.085  1.00141.18     0.019 A 
HETATM    8  C14 MIQ B 502     -15.784  -3.686  -8.220  1.00138.77     0.033 A 
HETATM    9  C15 MIQ B 502     -15.543  -4.489  -9.540  1.00142.10     0.195 A 
HETATM   10  N17 MIQ B 502     -14.533  -3.892 -10.151  1.00139.42    -0.288 N 
HETATM   11  O16 MIQ B 502     -16.252  -5.609  -9.978  1.00148.93    -0.171 OA
ENDROOT
BRANCH  10  12
HETATM   12  C18 MIQ B 502     -14.018  -4.381 -11.417  1.00139.82     0.187 C 
HETATM   13  C19 MIQ B 502     -12.510  -4.606 -11.252  1.00140.06     0.247 C 
HETATM   14  O25 MIQ B 502     -12.119  -5.245 -10.341  1.00143.95    -0.271 OA
HETATM   15  N20 MIQ B 502     -11.550  -4.060 -12.189  1.00140.02    -0.296 N 
HETATM   16  H13 MIQ B 502     -10.567  -4.208 -12.067  1.00142.77     0.171 HD
HETATM   17  C21 MIQ B 502     -12.051  -3.275 -13.288  1.00142.22     0.224 C 
HETATM   18  C22 MIQ B 502     -13.291  -2.444 -13.021  1.00139.52     0.106 C 
HETATM   19  O24 MIQ B 502     -11.523  -3.284 -14.345  1.00146.13    -0.273 OA
HETATM   20  C23 MIQ B 502     -14.362  -3.408 -12.543  1.00139.15     0.045 C 
ENDBRANCH  10  12
BRANCH   5  21
HETATM   21  N6  MIQ B 502     -15.617  -0.862  -4.922  1.00140.95    -0.377 N 
HETATM   22  C7  MIQ B 502     -16.799  -0.650  -4.105  1.00142.12     0.149 C 
HETATM   23  C8  MIQ B 502     -16.812   0.734  -3.471  1.00144.10     0.187 C 
HETATM   24  O9  MIQ B 502     -15.599   1.065  -2.862  1.00148.65    -0.388 OA
HETATM   25  C10 MIQ B 502     -14.469   0.267  -3.058  1.00147.44     0.187 C 
HETATM   26  C11 MIQ B 502     -14.325  -0.482  -4.379  1.00144.08     0.149 C 
ENDBRANCH   5  21
TORSDOF 2
ENDMDL
MODEL 3
REMARK VINA RESULT:      -6.8      2.042      3.118
REMARK  2 active torsions:
REMARK  status: ('A' for Active; 'I' for Inactive)
REMARK    1  A    between atoms: C5_5  and  N6_21 
REMARK    2  A    between atoms: C18_14  and  N17_19 
ROOT
HETATM    1  O1  MIQ B 502     -17.011  -2.542 -10.984  1.00142.91    -0.171 OA
HETATM    2  C2  MIQ B 502     -15.909  -2.458 -10.130  1.00141.17     0.195 A 
HETATM    3  C3  MIQ B 502     -15.954  -2.196  -8.591  1.00141.71     0.035 A 
HETATM    4  C4  MIQ B 502     -17.057  -1.977  -7.626  1.00142.86     0.046 A 
HETATM    5  C5  MIQ B 502     -16.777  -1.761  -6.253  1.00139.53     0.031 A 
HETATM    6  C12 MIQ B 502     -15.397  -1.756  -5.790  1.00139.38     0.030 A 
HETATM    7  C13 MIQ B 502     -14.338  -1.968  -6.714  1.00141.18     0.019 A 
HETATM    8  C14 MIQ B 502     -14.639  -2.196  -8.154  1.00138.77     0.033 A 
HETATM    9  C15 MIQ B 502     -13.774  -2.459  -9.429  1.00142.10     0.195 A 
HETATM   10  N17 MIQ B 502     -14.628  -2.583 -10.432  1.00139.42    -0.288 N 
HETATM   11  O16 MIQ B 502     -12.382  -2.543  -9.492  1.00148.93    -0.171 OA
ENDROOT
BRANCH  10  12
HETATM   12  C18 MIQ B 502     -14.175  -2.823 -11.789  1.00139.82     0.187 C 
HETATM   13  C19 MIQ B 502     -13.190  -3.998 -11.753  1.00140.06     0.247 C 
HETATM   14  O25 MIQ B 502     -13.506  -4.998 -11.211  1.00143.95    -0.271 OA
HETATM   15  N20 MIQ B 502     -11.882  -3.918 -12.370  1.00140.02    -0.296 N 
HETATM   16  H13 MIQ B 502     -11.246  -4.691 -12.334  1.00142.77     0.171 HD
HETATM   17  C21 MIQ B 502     -11.515  -2.684 -13.016  1.00142.22     0.224 C 
HETATM   18  C22 MIQ B 502     -12.059  -1.408 -12.403  1.00139.52     0.106 C 
HETATM   19  O24 MIQ B 502     -10.829  -2.671 -13.978  1.00146.13    -0.273 OA
HETATM   20  C23 MIQ B 502     -13.570  -1.550 -12.379  1.00139.15     0.045 C 
ENDBRANCH  10  12
BRANCH   5  21
HETATM   21  N6  MIQ B 502     -17.866  -1.533  -5.322  1.00140.95    -0.377 N 
HETATM   22  C7  MIQ B 502     -19.000  -2.442  -5.342  1.00142.12     0.149 C 
HETATM   23  C8  MIQ B 502     -20.274  -1.774  -4.842  1.00144.10     0.187 C 
HETATM   24  O9  MIQ B 502     -20.089  -1.077  -3.646  1.00148.65    -0.388 OA
HETATM   25  C10 MIQ B 502     -18.803  -0.860  -3.145  1.00147.44     0.187 C 
HETATM   26  C11 MIQ B 502     -17.648  -0.729  -4.132  1.00144.08     0.149 C 
ENDBRANCH   5  21
TORSDOF 2
ENDMDL
MODEL 4
REMARK VINA RESULT:      -6.6      1.492      2.690
REMARK  2 active torsions:
REMARK  status: ('A' for Active; 'I' for Inactive)
REMARK    1  A    between atoms: C5_5  and  N6_21 
REMARK    2  A    between atoms: C18_14  and  N17_19 
ROOT
HETATM    1  O1  MIQ B 502     -17.420  -2.691  -9.596  1.00142.91    -0.171 OA
HETATM    2  C2  MIQ B 502     -16.241  -2.414  -8.901  1.00141.17     0.195 A 
HETATM    3  C3  MIQ B 502     -16.136  -1.870  -7.441  1.00141.71     0.035 A 
HETATM    4  C4  MIQ B 502     -17.142  -1.508  -6.414  1.00142.86     0.046 A 
HETATM    5  C5  MIQ B 502     -16.730  -1.030  -5.144  1.00139.53     0.031 A 
HETATM    6  C12 MIQ B 502     -15.311  -0.895  -4.849  1.00139.38     0.030 A 
HETATM    7  C13 MIQ B 502     -14.346  -1.243  -5.833  1.00141.18     0.019 A 
HETATM    8  C14 MIQ B 502     -14.785  -1.746  -7.163  1.00138.77     0.033 A 
HETATM    9  C15 MIQ B 502     -14.046  -2.217  -8.458  1.00142.10     0.195 A 
HETATM   10  N17 MIQ B 502     -14.994  -2.553  -9.318  1.00139.42    -0.288 N 
HETATM   11  O16 MIQ B 502     -12.666  -2.267  -8.662  1.00148.93    -0.171 OA
ENDROOT
BRANCH  10  12
HETATM   12  C18 MIQ B 502     -14.673  -3.028 -10.651  1.00139.82     0.187 C 
HETATM   13  C19 MIQ B 502     -13.742  -4.238 -10.505  1.00140.06     0.247 C 
HETATM   14  O25 MIQ B 502     -14.051  -5.120  -9.786  1.00143.95    -0.271 OA
HETATM   15  N20 MIQ B 502     -12.492  -4.331 -11.232  1.00140.02    -0.296 N 
HETATM   16  H13 MIQ B 502     -11.889  -5.123 -11.123  1.00142.77     0.171 HD
HETATM   17  C21 MIQ B 502     -12.131  -3.236 -12.095  1.00142.22     0.224 C 
HETATM   18  C22 MIQ B 502     -12.561  -1.850 -11.655  1.00139.52     0.106 C 
HETATM   19  O24 MIQ B 502     -11.533  -3.413 -13.100  1.00146.13    -0.273 OA
HETATM   20  C23 MIQ B 502     -14.069  -1.901 -11.486  1.00139.15     0.045 C 
ENDBRANCH  10  12
BRANCH   5  21
HETATM   21  N6  MIQ B 502     -17.726  -0.666  -4.153  1.00140.95    -0.377 N 
HETATM   22  C7  MIQ B 502     -18.727  -1.650  -3.780  1.00142.12     0.149 C 
HETATM   23  C8  MIQ B 502     -20.011  -0.996  -3.286  1.00144.10     0.187 C 
HETATM   24  O9  MIQ B 502     -19.782   0.008  -2.344  1.00148.65    -0.388 OA
HETATM   25  C10 MIQ B 502     -18.485   0.471  -2.104  1.00147.44     0.187 C 
HETATM   26  C11 MIQ B 502     -17.478   0.443  -3.249  1.00144.08     0.149 C 
ENDBRANCH   5  21
TORSDOF 2
ENDMDL
MODEL 5
REMARK VINA RESULT:      -6.6      2.757      8.522
REMARK  2 active torsions:
REMARK  status: ('A' for Active; 'I' for Inactive)
REMARK    1  A    between atoms: C5_5  and  N6_21 
REMARK    2  A    between atoms: C18_14  and  N17_19 
ROOT
HETATM    1  O1  MIQ B 502     -14.454  -6.459  -9.222  1.00142.91    -0.171 OA
HETATM    2  C2  MIQ B 502     -14.345  -5.067  -9.248  1.00141.17     0.195 A 
HETATM    3  C3  MIQ B 502     -13.518  -4.225 -10.271  1.00141.71     0.035 A 
HETATM    4  C4  MIQ B 502     -12.669  -4.581 -11.432  1.00142.86     0.046 A 
HETATM    5  C5  MIQ B 502     -12.031  -3.567 -12.191  1.00139.53     0.031 A 
HETATM    6  C12 MIQ B 502     -12.214  -2.170 -11.828  1.00139.38     0.030 A 
HETATM    7  C13 MIQ B 502     -13.029  -1.828 -10.715  1.00141.18     0.019 A 
HETATM    8  C14 MIQ B 502     -13.698  -2.897  -9.923  1.00138.77     0.033 A 
HETATM    9  C15 MIQ B 502     -14.642  -2.914  -8.677  1.00142.10     0.195 A 
HETATM   10  N17 MIQ B 502     -14.907  -4.187  -8.437  1.00139.42    -0.288 N 
HETATM   11  O16 MIQ B 502     -15.106  -1.806  -7.965  1.00148.93    -0.171 OA
ENDROOT
BRANCH  10  12
HETATM   12  C18 MIQ B 502     -15.752  -4.589  -7.328  1.00139.82     0.187 C 
HETATM   13  C19 MIQ B 502     -17.077  -3.825  -7.449  1.00140.06     0.247 C 
HETATM   14  O25 MIQ B 502     -17.659  -3.840  -8.474  1.00143.95    -0.271 OA
HETATM   15  N20 MIQ B 502     -17.637  -3.087  -6.335  1.00140.02    -0.296 N 
HETATM   16  H13 MIQ B 502     -18.499  -2.587  -6.428  1.00142.77     0.171 HD
HETATM   17  C21 MIQ B 502     -16.902  -3.075  -5.096  1.00142.22     0.224 C 
HETATM   18  C22 MIQ B 502     -15.390  -3.105  -5.201  1.00139.52     0.106 C 
HETATM   19  O24 MIQ B 502     -17.454  -3.048  -4.051  1.00146.13    -0.273 OA
HETATM   20  C23 MIQ B 502     -15.038  -4.347  -6.000  1.00139.15     0.045 C 
ENDBRANCH  10  12
BRANCH   5  21
HETATM   21  N6  MIQ B 502     -11.190  -3.931 -13.317  1.00140.95    -0.377 N 
HETATM   22  C7  MIQ B 502     -11.424  -5.204 -13.977  1.00142.12     0.149 C 
HETATM   23  C8  MIQ B 502     -10.164  -5.739 -14.645  1.00144.10     0.187 C 
HETATM   24  O9  MIQ B 502      -9.509  -4.778 -15.418  1.00148.65    -0.388 OA
HETATM   25  C10 MIQ B 502      -9.890  -3.435 -15.350  1.00147.44     0.187 C 
HETATM   26  C11 MIQ B 502     -10.459  -2.904 -14.038  1.00144.08     0.149 C 
ENDBRANCH   5  21
TORSDOF 2
ENDMDL
MODEL 6
REMARK VINA RESULT:      -6.5      4.385      7.039
REMARK  2 active torsions:
REMARK  status: ('A' for Active; 'I' for Inactive)
REMARK    1  A    between atoms: C5_5  and  N6_21 
REMARK    2  A    between atoms: C18_14  and  N17_19 
ROOT
HETATM    1  O1  MIQ B 502     -14.660  -3.455 -13.445  1.00142.91    -0.171 OA
HETATM    2  C2  MIQ B 502     -15.004  -3.163 -12.123  1.00141.17     0.195 A 
HETATM    3  C3  MIQ B 502     -16.428  -3.282 -11.493  1.00141.71     0.035 A 
HETATM    4  C4  MIQ B 502     -17.746  -3.702 -12.026  1.00142.86     0.046 A 
HETATM    5  C5  MIQ B 502     -18.889  -3.707 -11.188  1.00139.53     0.031 A 
HETATM    6  C12 MIQ B 502     -18.766  -3.298  -9.796  1.00139.38     0.030 A 
HETATM    7  C13 MIQ B 502     -17.503  -2.897  -9.284  1.00141.18     0.019 A 
HETATM    8  C14 MIQ B 502     -16.305  -2.896 -10.169  1.00138.77     0.033 A 
HETATM    9  C15 MIQ B 502     -14.796  -2.536  -9.975  1.00142.10     0.195 A 
HETATM   10  N17 MIQ B 502     -14.219  -2.740 -11.147  1.00139.42    -0.288 N 
HETATM   11  O16 MIQ B 502     -14.188  -2.087  -8.801  1.00148.93    -0.171 OA
ENDROOT
BRANCH  10  12
HETATM   12  C18 MIQ B 502     -12.803  -2.491 -11.348  1.00139.82     0.187 C 
HETATM   13  C19 MIQ B 502     -12.658  -1.585 -12.577  1.00140.06     0.247 C 
HETATM   14  O25 MIQ B 502     -13.293  -0.593 -12.640  1.00143.95    -0.271 OA
HETATM   15  N20 MIQ B 502     -11.756  -1.911 -13.663  1.00140.02    -0.296 N 
HETATM   16  H13 MIQ B 502     -11.675  -1.315 -14.463  1.00142.77     0.171 HD
HETATM   17  C21 MIQ B 502     -10.999  -3.132 -13.568  1.00142.22     0.224 C 
HETATM   18  C22 MIQ B 502     -11.671  -4.298 -12.868  1.00139.52     0.106 C 
HETATM   19  O24 MIQ B 502      -9.906  -3.218 -14.010  1.00146.13    -0.273 OA
HETATM   20  C23 MIQ B 502     -12.044  -3.810 -11.480  1.00139.15     0.045 C 
ENDBRANCH  10  12
BRANCH   5  21
HETATM   21  N6  MIQ B 502     -20.177  -4.105 -11.726  1.00140.95    -0.377 N 
HETATM   22  C7  MIQ B 502     -20.206  -5.056 -12.825  1.00142.12     0.149 C 
HETATM   23  C8  MIQ B 502     -21.455  -4.896 -13.682  1.00144.10     0.187 C 
HETATM   24  O9  MIQ B 502     -22.627  -4.822 -12.926  1.00148.65    -0.388 OA
HETATM   25  C10 MIQ B 502     -22.565  -4.677 -11.538  1.00147.44     0.187 C 
HETATM   26  C11 MIQ B 502     -21.381  -3.929 -10.934  1.00144.08     0.149 C 
ENDBRANCH   5  21
TORSDOF 2
ENDMDL
MODEL 7
REMARK VINA RESULT:      -6.4      3.122      9.589
REMARK  2 active torsions:
REMARK  status: ('A' for Active; 'I' for Inactive)
REMARK    1  A    between atoms: C5_5  and  N6_21 
REMARK    2  A    between atoms: C18_14  and  N17_19 
ROOT
HETATM    1  O1  MIQ B 502     -14.190  -5.898 -11.151  1.00142.91    -0.171 OA
HETATM    2  C2  MIQ B 502     -13.658  -4.617 -11.312  1.00141.17     0.195 A 
HETATM    3  C3  MIQ B 502     -12.615  -4.180 -12.390  1.00141.71     0.035 A 
HETATM    4  C4  MIQ B 502     -11.920  -4.897 -13.485  1.00142.86     0.046 A 
HETATM    5  C5  MIQ B 502     -11.004  -4.211 -14.323  1.00139.53     0.031 A 
HETATM    6  C12 MIQ B 502     -10.747  -2.795 -14.105  1.00139.38     0.030 A 
HETATM    7  C13 MIQ B 502     -11.414  -2.107 -13.057  1.00141.18     0.019 A 
HETATM    8  C14 MIQ B 502     -12.376  -2.831 -12.182  1.00138.77     0.033 A 
HETATM    9  C15 MIQ B 502     -13.276  -2.429 -10.968  1.00142.10     0.195 A 
HETATM   10  N17 MIQ B 502     -13.919  -3.528 -10.610  1.00139.42    -0.288 N 
HETATM   11  O16 MIQ B 502     -13.374  -1.165 -10.383  1.00148.93    -0.171 OA
ENDROOT
BRANCH  10  12
HETATM   12  C18 MIQ B 502     -14.844  -3.534  -9.491  1.00139.82     0.187 C 
HETATM   13  C19 MIQ B 502     -15.859  -2.407  -9.718  1.00140.06     0.247 C 
HETATM   14  O25 MIQ B 502     -16.421  -2.338 -10.753  1.00143.95    -0.271 OA
HETATM   15  N20 MIQ B 502     -16.154  -1.427  -8.693  1.00140.02    -0.296 N 
HETATM   16  H13 MIQ B 502     -16.815  -0.693  -8.856  1.00142.77     0.171 HD
HETATM   17  C21 MIQ B 502     -15.448  -1.527  -7.442  1.00142.22     0.224 C 
HETATM   18  C22 MIQ B 502     -14.023  -2.041  -7.503  1.00139.52     0.106 C 
HETATM   19  O24 MIQ B 502     -15.958  -1.227  -6.419  1.00146.13    -0.273 OA
HETATM   20  C23 MIQ B 502     -14.083  -3.402  -8.173  1.00139.15     0.045 C 
ENDBRANCH  10  12
BRANCH   5  21
HETATM   21  N6  MIQ B 502     -10.319  -4.930 -15.382  1.00140.95    -0.377 N 
HETATM   22  C7  MIQ B 502     -10.877  -6.191 -15.839  1.00142.12     0.149 C 
HETATM   23  C8  MIQ B 502      -9.808  -7.108 -16.421  1.00144.10     0.187 C 
HETATM   24  O9  MIQ B 502      -8.973  -6.459 -17.333  1.00148.65    -0.388 OA
HETATM   25  C10 MIQ B 502      -9.019  -5.069 -17.469  1.00147.44     0.187 C 
HETATM   26  C11 MIQ B 502      -9.392  -4.228 -16.253  1.00144.08     0.149 C 
ENDBRANCH   5  21
TORSDOF 2
ENDMDL
MODEL 8
REMARK VINA RESULT:      -6.4      3.482      8.307
REMARK  2 active torsions:
REMARK  status: ('A' for Active; 'I' for Inactive)
REMARK    1  A    between atoms: C5_5  and  N6_21 
REMARK    2  A    between atoms: C18_14  and  N17_19 
ROOT
HETATM    1  O1  MIQ B 502     -14.507  -6.002  -8.659  1.00142.91    -0.171 OA
HETATM    2  C2  MIQ B 502     -14.592  -4.638  -8.945  1.00141.17     0.195 A 
HETATM    3  C3  MIQ B 502     -13.857  -3.892 -10.104  1.00141.71     0.035 A 
HETATM    4  C4  MIQ B 502     -12.929  -4.332 -11.173  1.00142.86     0.046 A 
HETATM    5  C5  MIQ B 502     -12.415  -3.396 -12.106  1.00139.53     0.031 A 
HETATM    6  C12 MIQ B 502     -12.801  -1.995 -12.012  1.00139.38     0.030 A 
HETATM    7  C13 MIQ B 502     -13.691  -1.573 -10.988  1.00141.18     0.019 A 
HETATM    8  C14 MIQ B 502     -14.230  -2.561 -10.013  1.00138.77     0.033 A 
HETATM    9  C15 MIQ B 502     -15.202  -2.480  -8.791  1.00142.10     0.195 A 
HETATM   10  N17 MIQ B 502     -15.296  -3.712  -8.318  1.00139.42    -0.288 N 
HETATM   11  O16 MIQ B 502     -15.838  -1.338  -8.302  1.00148.93    -0.171 OA
ENDROOT
BRANCH  10  12
HETATM   12  C18 MIQ B 502     -16.113  -4.017  -7.158  1.00139.82     0.187 C 
HETATM   13  C19 MIQ B 502     -15.171  -4.409  -6.012  1.00140.06     0.247 C 
HETATM   14  O25 MIQ B 502     -14.268  -3.699  -5.741  1.00143.95    -0.271 OA
HETATM   15  N20 MIQ B 502     -15.361  -5.624  -5.248  1.00140.02    -0.296 N 
HETATM   16  H13 MIQ B 502     -14.736  -5.872  -4.507  1.00142.77     0.171 HD
HETATM   17  C21 MIQ B 502     -16.464  -6.480  -5.606  1.00142.22     0.224 C 
HETATM   18  C22 MIQ B 502     -16.837  -6.532  -7.074  1.00139.52     0.106 C 
HETATM   19  O24 MIQ B 502     -17.051  -7.104  -4.791  1.00146.13    -0.273 OA
HETATM   20  C23 MIQ B 502     -17.132  -5.104  -7.496  1.00139.15     0.045 C 
ENDBRANCH  10  12
BRANCH   5  21
HETATM   21  N6  MIQ B 502     -11.495  -3.838 -13.138  1.00140.95    -0.377 N 
HETATM   22  C7  MIQ B 502     -11.669  -5.167 -13.700  1.00142.12     0.149 C 
HETATM   23  C8  MIQ B 502     -10.360  -5.733 -14.235  1.00144.10     0.187 C 
HETATM   24  O9  MIQ B 502      -9.667  -4.830 -15.043  1.00148.65    -0.388 OA
HETATM   25  C10 MIQ B 502     -10.069  -3.493 -15.116  1.00147.44     0.187 C 
HETATM   26  C11 MIQ B 502     -10.731  -2.863 -13.895  1.00144.08     0.149 C 
ENDBRANCH   5  21
TORSDOF 2
ENDMDL
MODEL 9
REMARK VINA RESULT:      -6.4      2.289      3.356
REMARK  2 active torsions:
REMARK  status: ('A' for Active; 'I' for Inactive)
REMARK    1  A    between atoms: C5_5  and  N6_21 
REMARK    2  A    between atoms: C18_14  and  N17_19 
ROOT
HETATM    1  O1  MIQ B 502     -12.015  -4.393 -10.782  1.00142.91    -0.171 OA
HETATM    2  C2  MIQ B 502     -13.325  -3.998 -11.064  1.00141.17     0.195 A 
HETATM    3  C3  MIQ B 502     -14.347  -3.398 -10.047  1.00141.71     0.035 A 
HETATM    4  C4  MIQ B 502     -14.278  -3.079  -8.601  1.00142.86     0.046 A 
HETATM    5  C5  MIQ B 502     -15.401  -2.526  -7.935  1.00139.53     0.031 A 
HETATM    6  C12 MIQ B 502     -16.627  -2.269  -8.677  1.00139.38     0.030 A 
HETATM    7  C13 MIQ B 502     -16.693  -2.574 -10.063  1.00141.18     0.019 A 
HETATM    8  C14 MIQ B 502     -15.511  -3.153 -10.758  1.00138.77     0.033 A 
HETATM    9  C15 MIQ B 502     -15.209  -3.602 -12.225  1.00142.10     0.195 A 
HETATM   10  N17 MIQ B 502     -13.961  -4.041 -12.223  1.00139.42    -0.288 N 
HETATM   11  O16 MIQ B 502     -16.084  -3.552 -13.311  1.00148.93    -0.171 OA
ENDROOT
BRANCH  10  12
HETATM   12  C18 MIQ B 502     -13.338  -4.558 -13.427  1.00139.82     0.187 C 
HETATM   13  C19 MIQ B 502     -12.821  -5.969 -13.116  1.00140.06     0.247 C 
HETATM   14  O25 MIQ B 502     -13.551  -6.754 -12.625  1.00143.95    -0.271 OA
HETATM   15  N20 MIQ B 502     -11.461  -6.366 -13.415  1.00140.02    -0.296 N 
HETATM   16  H13 MIQ B 502     -11.133  -7.288 -13.202  1.00142.77     0.171 HD
HETATM   17  C21 MIQ B 502     -10.585  -5.386 -14.005  1.00142.22     0.224 C 
HETATM   18  C22 MIQ B 502     -10.797  -3.944 -13.586  1.00139.52     0.106 C 
HETATM   19  O24 MIQ B 502      -9.748  -5.693 -14.780  1.00146.13    -0.273 OA
HETATM   20  C23 MIQ B 502     -12.242  -3.609 -13.909  1.00139.15     0.045 C 
ENDBRANCH  10  12
BRANCH   5  21
HETATM   21  N6  MIQ B 502     -15.324  -2.232  -6.516  1.00140.95    -0.377 N 
HETATM   22  C7  MIQ B 502     -15.354  -3.338  -5.575  1.00142.12     0.149 C 
HETATM   23  C8  MIQ B 502     -15.905  -2.917  -4.219  1.00144.10     0.187 C 
HETATM   24  O9  MIQ B 502     -15.326  -1.740  -3.739  1.00148.65    -0.388 OA
HETATM   25  C10 MIQ B 502     -14.514  -0.962  -4.567  1.00147.44     0.187 C 
HETATM   26  C11 MIQ B 502     -14.793  -0.957  -6.067  1.00144.08     0.149 C 
ENDBRANCH   5  21
TORSDOF 2
ENDMDL
