MODEL 1
REMARK VINA RESULT:      -6.9      0.000      0.000
REMARK  2 active torsions:
REMARK  status: ('A' for Active; 'I' for Inactive)
REMARK    1  A    between atoms: C5_5  and  N6_21 
REMARK    2  A    between atoms: C18_14  and  N17_19 
ROOT
HETATM    1  O1  MIQ B 502       5.993 -23.649  -2.750  1.00142.91    -0.171 OA
HETATM    2  C2  MIQ B 502       6.883 -22.787  -2.105  1.00141.17     0.195 A 
HETATM    3  C3  MIQ B 502       7.477 -21.467  -2.690  1.00141.71     0.035 A 
HETATM    4  C4  MIQ B 502       7.311 -20.760  -3.983  1.00142.86     0.046 A 
HETATM    5  C5  MIQ B 502       7.999 -19.545  -4.229  1.00139.53     0.031 A 
HETATM    6  C12 MIQ B 502       8.873 -18.990  -3.206  1.00139.38     0.030 A 
HETATM    7  C13 MIQ B 502       9.031 -19.666  -1.966  1.00141.18     0.019 A 
HETATM    8  C14 MIQ B 502       8.304 -20.940  -1.712  1.00138.77     0.033 A 
HETATM    9  C15 MIQ B 502       8.223 -21.939  -0.512  1.00142.10     0.195 A 
HETATM   10  N17 MIQ B 502       7.395 -22.899  -0.891  1.00139.42    -0.288 N 
HETATM   11  O16 MIQ B 502       8.892 -21.835   0.709  1.00148.93    -0.171 OA
ENDROOT
BRANCH  10  12
HETATM   12  C18 MIQ B 502       7.090 -24.021  -0.024  1.00139.82     0.187 C 
HETATM   13  C19 MIQ B 502       6.551 -23.459   1.297  1.00140.06     0.247 C 
HETATM   14  O25 MIQ B 502       5.675 -22.670   1.272  1.00143.95    -0.271 OA
HETATM   15  N20 MIQ B 502       7.086 -23.873   2.578  1.00140.02    -0.296 N 
HETATM   16  H13 MIQ B 502       6.730 -23.494   3.433  1.00142.77     0.171 HD
HETATM   17  C21 MIQ B 502       8.163 -24.830   2.582  1.00142.22     0.224 C 
HETATM   18  C22 MIQ B 502       9.142 -24.758   1.426  1.00139.52     0.106 C 
HETATM   19  O24 MIQ B 502       8.272 -25.634   3.441  1.00146.13    -0.273 OA
HETATM   20  C23 MIQ B 502       8.323 -24.905   0.157  1.00139.15     0.045 C 
ENDBRANCH  10  12
BRANCH   5  21
HETATM   21  N6  MIQ B 502       7.840 -18.872  -5.505  1.00140.95    -0.377 N 
HETATM   22  C7  MIQ B 502       9.028 -18.563  -6.281  1.00142.12     0.149 C 
HETATM   23  C8  MIQ B 502       8.815 -17.361  -7.193  1.00144.10     0.187 C 
HETATM   24  O9  MIQ B 502       7.628 -17.438  -7.924  1.00148.65    -0.388 OA
HETATM   25  C10 MIQ B 502       6.676 -18.416  -7.628  1.00147.44     0.187 C 
HETATM   26  C11 MIQ B 502       6.558 -18.907  -6.189  1.00144.08     0.149 C 
ENDBRANCH   5  21
TORSDOF 2
ENDMDL
MODEL 2
REMARK VINA RESULT:      -6.9      1.924      8.429
REMARK  2 active torsions:
REMARK  status: ('A' for Active; 'I' for Inactive)
REMARK    1  A    between atoms: C5_5  and  N6_21 
REMARK    2  A    between atoms: C18_14  and  N17_19 
ROOT
HETATM    1  O1  MIQ B 502       8.751 -22.987  -5.333  1.00142.91    -0.171 OA
HETATM    2  C2  MIQ B 502       8.114 -21.951  -4.646  1.00141.17     0.195 A 
HETATM    3  C3  MIQ B 502       7.708 -21.957  -3.138  1.00141.71     0.035 A 
HETATM    4  C4  MIQ B 502       7.850 -22.952  -2.049  1.00142.86     0.046 A 
HETATM    5  C5  MIQ B 502       7.372 -22.662  -0.746  1.00139.53     0.031 A 
HETATM    6  C12 MIQ B 502       6.739 -21.378  -0.478  1.00139.38     0.030 A 
HETATM    7  C13 MIQ B 502       6.604 -20.424  -1.522  1.00141.18     0.019 A 
HETATM    8  C14 MIQ B 502       7.110 -20.733  -2.887  1.00138.77     0.033 A 
HETATM    9  C15 MIQ B 502       7.145 -19.963  -4.247  1.00142.10     0.195 A 
HETATM   10  N17 MIQ B 502       7.733 -20.774  -5.111  1.00139.42    -0.288 N 
HETATM   11  O16 MIQ B 502       6.652 -18.681  -4.494  1.00148.93    -0.171 OA
ENDROOT
BRANCH  10  12
HETATM   12  C18 MIQ B 502       7.927 -20.392  -6.497  1.00139.82     0.187 C 
HETATM   13  C19 MIQ B 502       8.582 -19.005  -6.514  1.00140.06     0.247 C 
HETATM   14  O25 MIQ B 502       9.551 -18.819  -5.866  1.00143.95    -0.271 OA
HETATM   15  N20 MIQ B 502       8.049 -17.918  -7.307  1.00140.02    -0.296 N 
HETATM   16  H13 MIQ B 502       8.482 -17.015  -7.304  1.00142.77     0.171 HD
HETATM   17  C21 MIQ B 502       6.860 -18.167  -8.081  1.00142.22     0.224 C 
HETATM   18  C22 MIQ B 502       5.854 -19.137  -7.491  1.00139.52     0.106 C 
HETATM   19  O24 MIQ B 502       6.682 -17.645  -9.126  1.00146.13    -0.273 OA
HETATM   20  C23 MIQ B 502       6.599 -20.438  -7.252  1.00139.15     0.045 C 
ENDBRANCH  10  12
BRANCH   5  21
HETATM   21  N6  MIQ B 502       7.504 -23.651   0.308  1.00140.95    -0.377 N 
HETATM   22  C7  MIQ B 502       8.513 -24.687   0.166  1.00142.12     0.149 C 
HETATM   23  C8  MIQ B 502       8.141 -25.952   0.929  1.00144.10     0.187 C 
HETATM   24  O9  MIQ B 502       7.729 -25.695   2.238  1.00148.65    -0.388 OA
HETATM   25  C10 MIQ B 502       7.481 -24.386   2.659  1.00147.44     0.187 C 
HETATM   26  C11 MIQ B 502       6.981 -23.373   1.634  1.00144.08     0.149 C 
ENDBRANCH   5  21
TORSDOF 2
ENDMDL
MODEL 3
REMARK VINA RESULT:      -6.7     22.309     24.426
REMARK  2 active torsions:
REMARK  status: ('A' for Active; 'I' for Inactive)
REMARK    1  A    between atoms: C5_5  and  N6_21 
REMARK    2  A    between atoms: C18_14  and  N17_19 
ROOT
HETATM    1  O1  MIQ B 502      -8.405 -11.953 -13.895  1.00142.91    -0.171 OA
HETATM    2  C2  MIQ B 502      -9.554 -12.578 -14.384  1.00141.17     0.195 A 
HETATM    3  C3  MIQ B 502     -10.688 -13.227 -13.527  1.00141.71     0.035 A 
HETATM    4  C4  MIQ B 502     -10.903 -13.377 -12.068  1.00142.86     0.046 A 
HETATM    5  C5  MIQ B 502     -12.062 -14.030 -11.578  1.00139.53     0.031 A 
HETATM    6  C12 MIQ B 502     -13.046 -14.555 -12.514  1.00139.38     0.030 A 
HETATM    7  C13 MIQ B 502     -12.840 -14.410 -13.913  1.00141.18     0.019 A 
HETATM    8  C14 MIQ B 502     -11.623 -13.722 -14.421  1.00138.77     0.033 A 
HETATM    9  C15 MIQ B 502     -11.067 -13.378 -15.842  1.00142.10     0.195 A 
HETATM   10  N17 MIQ B 502      -9.922 -12.747 -15.643  1.00139.42    -0.288 N 
HETATM   11  O16 MIQ B 502     -11.661 -13.681 -17.068  1.00148.93    -0.171 OA
ENDROOT
BRANCH  10  12
HETATM   12  C18 MIQ B 502      -9.108 -12.286 -16.753  1.00139.82     0.187 C 
HETATM   13  C19 MIQ B 502      -7.671 -12.762 -16.509  1.00140.06     0.247 C 
HETATM   14  O25 MIQ B 502      -7.475 -13.899 -16.262  1.00143.95    -0.271 OA
HETATM   15  N20 MIQ B 502      -6.543 -11.855 -16.579  1.00140.02    -0.296 N 
HETATM   16  H13 MIQ B 502      -5.611 -12.178 -16.411  1.00142.77     0.171 HD
HETATM   17  C21 MIQ B 502      -6.809 -10.471 -16.872  1.00142.22     0.224 C 
HETATM   18  C22 MIQ B 502      -8.110  -9.900 -16.343  1.00139.52     0.106 C 
HETATM   19  O24 MIQ B 502      -6.051  -9.815 -17.498  1.00146.13    -0.273 OA
HETATM   20  C23 MIQ B 502      -9.222 -10.769 -16.901  1.00139.15     0.045 C 
ENDBRANCH  10  12
BRANCH   5  21
HETATM   21  N6  MIQ B 502     -12.253 -14.182 -10.147  1.00140.95    -0.377 N 
HETATM   22  C7  MIQ B 502     -12.679 -13.027  -9.376  1.00142.12     0.149 C 
HETATM   23  C8  MIQ B 502     -12.229 -13.117  -7.923  1.00144.10     0.187 C 
HETATM   24  O9  MIQ B 502     -12.507 -14.356  -7.344  1.00148.65    -0.388 OA
HETATM   25  C10 MIQ B 502     -12.933 -15.427  -8.134  1.00147.44     0.187 C 
HETATM   26  C11 MIQ B 502     -12.453 -15.504  -9.579  1.00144.08     0.149 C 
ENDBRANCH   5  21
TORSDOF 2
ENDMDL
MODEL 4
REMARK VINA RESULT:      -6.5      1.855      2.343
REMARK  2 active torsions:
REMARK  status: ('A' for Active; 'I' for Inactive)
REMARK    1  A    between atoms: C5_5  and  N6_21 
REMARK    2  A    between atoms: C18_14  and  N17_19 
ROOT
HETATM    1  O1  MIQ B 502       7.789 -24.275  -4.017  1.00142.91    -0.171 OA
HETATM    2  C2  MIQ B 502       7.762 -22.987  -3.477  1.00141.17     0.195 A 
HETATM    3  C3  MIQ B 502       7.465 -21.666  -4.256  1.00141.71     0.035 A 
HETATM    4  C4  MIQ B 502       7.144 -21.369  -5.673  1.00142.86     0.046 A 
HETATM    5  C5  MIQ B 502       6.918 -20.033  -6.091  1.00139.53     0.031 A 
HETATM    6  C12 MIQ B 502       7.000 -18.949  -5.123  1.00139.38     0.030 A 
HETATM    7  C13 MIQ B 502       7.306 -19.234  -3.765  1.00141.18     0.019 A 
HETATM    8  C14 MIQ B 502       7.540 -20.638  -3.331  1.00138.77     0.033 A 
HETATM    9  C15 MIQ B 502       7.886 -21.325  -1.969  1.00142.10     0.195 A 
HETATM   10  N17 MIQ B 502       7.970 -22.620  -2.224  1.00139.42    -0.288 N 
HETATM   11  O16 MIQ B 502       8.070 -20.693  -0.738  1.00148.93    -0.171 OA
ENDROOT
BRANCH  10  12
HETATM   12  C18 MIQ B 502       8.296 -23.577  -1.184  1.00139.82     0.187 C 
HETATM   13  C19 MIQ B 502       7.357 -23.318   0.001  1.00140.06     0.247 C 
HETATM   14  O25 MIQ B 502       6.195 -23.252  -0.189  1.00143.95    -0.271 OA
HETATM   15  N20 MIQ B 502       7.858 -23.156   1.351  1.00140.02    -0.296 N 
HETATM   16  H13 MIQ B 502       7.235 -22.980   2.115  1.00142.77     0.171 HD
HETATM   17  C21 MIQ B 502       9.281 -23.230   1.556  1.00142.22     0.224 C 
HETATM   18  C22 MIQ B 502      10.159 -22.704   0.436  1.00139.52     0.106 C 
HETATM   19  O24 MIQ B 502       9.740 -23.683   2.546  1.00146.13    -0.273 OA
HETATM   20  C23 MIQ B 502       9.775 -23.477  -0.812  1.00139.15     0.045 C 
ENDBRANCH  10  12
BRANCH   5  21
HETATM   21  N6  MIQ B 502       6.620 -19.755  -7.484  1.00140.95    -0.377 N 
HETATM   22  C7  MIQ B 502       6.374 -18.379  -7.880  1.00142.12     0.149 C 
HETATM   23  C8  MIQ B 502       5.483 -18.292  -9.113  1.00144.10     0.187 C 
HETATM   24  O9  MIQ B 502       5.892 -19.145 -10.140  1.00148.65    -0.388 OA
HETATM   25  C10 MIQ B 502       6.872 -20.113  -9.908  1.00147.44     0.187 C 
HETATM   26  C11 MIQ B 502       6.988 -20.714  -8.511  1.00144.08     0.149 C 
ENDBRANCH   5  21
TORSDOF 2
ENDMDL
MODEL 5
REMARK VINA RESULT:      -6.5      2.812      9.390
REMARK  2 active torsions:
REMARK  status: ('A' for Active; 'I' for Inactive)
REMARK    1  A    between atoms: C5_5  and  N6_21 
REMARK    2  A    between atoms: C18_14  and  N17_19 
ROOT
HETATM    1  O1  MIQ B 502       6.197 -20.598  -8.487  1.00142.91    -0.171 OA
HETATM    2  C2  MIQ B 502       6.925 -19.587  -7.857  1.00141.17     0.195 A 
HETATM    3  C3  MIQ B 502       7.315 -19.535  -6.345  1.00141.71     0.035 A 
HETATM    4  C4  MIQ B 502       7.074 -20.444  -5.199  1.00142.86     0.046 A 
HETATM    5  C5  MIQ B 502       7.568 -20.119  -3.910  1.00139.53     0.031 A 
HETATM    6  C12 MIQ B 502       8.316 -18.886  -3.713  1.00139.38     0.030 A 
HETATM    7  C13 MIQ B 502       8.549 -18.015  -4.812  1.00141.18     0.019 A 
HETATM    8  C14 MIQ B 502       8.030 -18.363  -6.163  1.00138.77     0.033 A 
HETATM    9  C15 MIQ B 502       8.085 -17.683  -7.570  1.00142.10     0.195 A 
HETATM   10  N17 MIQ B 502       7.431 -18.488  -8.391  1.00139.42    -0.288 N 
HETATM   11  O16 MIQ B 502       8.698 -16.470  -7.889  1.00148.93    -0.171 OA
ENDROOT
BRANCH  10  12
HETATM   12  C18 MIQ B 502       7.263 -18.165  -9.795  1.00139.82     0.187 C 
HETATM   13  C19 MIQ B 502       5.759 -18.134 -10.092  1.00140.06     0.247 C 
HETATM   14  O25 MIQ B 502       5.050 -17.490  -9.405  1.00143.95    -0.271 OA
HETATM   15  N20 MIQ B 502       5.184 -18.870 -11.199  1.00140.02    -0.296 N 
HETATM   16  H13 MIQ B 502       4.200 -18.847 -11.379  1.00142.77     0.171 HD
HETATM   17  C21 MIQ B 502       6.069 -19.658 -12.018  1.00142.22     0.224 C 
HETATM   18  C22 MIQ B 502       7.257 -20.293 -11.321  1.00139.52     0.106 C 
HETATM   19  O24 MIQ B 502       5.880 -19.796 -13.176  1.00146.13    -0.273 OA
HETATM   20  C23 MIQ B 502       8.028 -19.162 -10.665  1.00139.15     0.045 C 
ENDBRANCH  10  12
BRANCH   5  21
HETATM   21  N6  MIQ B 502       7.311 -21.011  -2.794  1.00140.95    -0.377 N 
HETATM   22  C7  MIQ B 502       6.676 -20.470  -1.605  1.00142.12     0.149 C 
HETATM   23  C8  MIQ B 502       7.041 -21.261  -0.355  1.00144.10     0.187 C 
HETATM   24  O9  MIQ B 502       6.909 -22.640  -0.528  1.00148.65    -0.388 OA
HETATM   25  C10 MIQ B 502       6.691 -23.177  -1.799  1.00147.44     0.187 C 
HETATM   26  C11 MIQ B 502       7.268 -22.447  -3.008  1.00144.08     0.149 C 
ENDBRANCH   5  21
TORSDOF 2
ENDMDL
MODEL 6
REMARK VINA RESULT:      -6.4      6.610     13.660
REMARK  2 active torsions:
REMARK  status: ('A' for Active; 'I' for Inactive)
REMARK    1  A    between atoms: C5_5  and  N6_21 
REMARK    2  A    between atoms: C18_14  and  N17_19 
ROOT
HETATM    1  O1  MIQ B 502       9.016 -13.447 -10.114  1.00142.91    -0.171 OA
HETATM    2  C2  MIQ B 502       7.718 -13.792 -10.495  1.00141.17     0.195 A 
HETATM    3  C3  MIQ B 502       6.968 -15.112 -10.127  1.00141.71     0.035 A 
HETATM    4  C4  MIQ B 502       7.340 -16.308  -9.334  1.00142.86     0.046 A 
HETATM    5  C5  MIQ B 502       6.421 -17.374  -9.171  1.00139.53     0.031 A 
HETATM    6  C12 MIQ B 502       5.104 -17.293  -9.786  1.00139.38     0.030 A 
HETATM    7  C13 MIQ B 502       4.746 -16.147 -10.546  1.00141.18     0.019 A 
HETATM    8  C14 MIQ B 502       5.715 -15.029 -10.711  1.00138.77     0.033 A 
HETATM    9  C15 MIQ B 502       5.686 -13.649 -11.446  1.00142.10     0.195 A 
HETATM   10  N17 MIQ B 502       6.866 -13.093 -11.226  1.00139.42    -0.288 N 
HETATM   11  O16 MIQ B 502       4.628 -13.118 -12.186  1.00148.93    -0.171 OA
ENDROOT
BRANCH  10  12
HETATM   12  C18 MIQ B 502       7.206 -11.795 -11.777  1.00139.82     0.187 C 
HETATM   13  C19 MIQ B 502       6.114 -10.805 -11.353  1.00140.06     0.247 C 
HETATM   14  O25 MIQ B 502       5.811 -10.735 -10.215  1.00143.95    -0.271 OA
HETATM   15  N20 MIQ B 502       5.445  -9.949 -12.311  1.00140.02    -0.296 N 
HETATM   16  H13 MIQ B 502       4.729  -9.312 -12.022  1.00142.77     0.171 HD
HETATM   17  C21 MIQ B 502       5.825 -10.061 -13.696  1.00142.22     0.224 C 
HETATM   18  C22 MIQ B 502       6.232 -11.439 -14.181  1.00139.52     0.106 C 
HETATM   19  O24 MIQ B 502       5.824  -9.123 -14.415  1.00146.13    -0.273 OA
HETATM   20  C23 MIQ B 502       7.377 -11.889 -13.292  1.00139.15     0.045 C 
ENDBRANCH  10  12
BRANCH   5  21
HETATM   21  N6  MIQ B 502       6.804 -18.546  -8.404  1.00140.95    -0.377 N 
HETATM   22  C7  MIQ B 502       6.189 -18.757  -7.105  1.00142.12     0.149 C 
HETATM   23  C8  MIQ B 502       7.083 -19.571  -6.178  1.00144.10     0.187 C 
HETATM   24  O9  MIQ B 502       7.598 -20.717  -6.788  1.00148.65    -0.388 OA
HETATM   25  C10 MIQ B 502       7.460 -20.908  -8.165  1.00147.44     0.187 C 
HETATM   26  C11 MIQ B 502       7.416 -19.681  -9.071  1.00144.08     0.149 C 
ENDBRANCH   5  21
TORSDOF 2
ENDMDL
MODEL 7
REMARK VINA RESULT:      -6.4      7.761     13.632
REMARK  2 active torsions:
REMARK  status: ('A' for Active; 'I' for Inactive)
REMARK    1  A    between atoms: C5_5  and  N6_21 
REMARK    2  A    between atoms: C18_14  and  N17_19 
ROOT
HETATM    1  O1  MIQ B 502       5.861 -13.195 -11.720  1.00142.91    -0.171 OA
HETATM    2  C2  MIQ B 502       7.034 -13.159 -10.962  1.00141.17     0.195 A 
HETATM    3  C3  MIQ B 502       7.624 -14.334 -10.120  1.00141.71     0.035 A 
HETATM    4  C4  MIQ B 502       7.189 -15.729  -9.872  1.00142.86     0.046 A 
HETATM    5  C5  MIQ B 502       7.957 -16.582  -9.039  1.00139.53     0.031 A 
HETATM    6  C12 MIQ B 502       9.179 -16.083  -8.425  1.00139.38     0.030 A 
HETATM    7  C13 MIQ B 502       9.597 -14.746  -8.664  1.00141.18     0.019 A 
HETATM    8  C14 MIQ B 502       8.789 -13.856  -9.541  1.00138.77     0.033 A 
HETATM    9  C15 MIQ B 502       8.922 -12.376 -10.027  1.00142.10     0.195 A 
HETATM   10  N17 MIQ B 502       7.875 -12.151 -10.804  1.00139.42    -0.288 N 
HETATM   11  O16 MIQ B 502       9.939 -11.478  -9.701  1.00148.93    -0.171 OA
ENDROOT
BRANCH  10  12
HETATM   12  C18 MIQ B 502       7.658 -10.859 -11.428  1.00139.82     0.187 C 
HETATM   13  C19 MIQ B 502       6.229 -10.414 -11.097  1.00140.06     0.247 C 
HETATM   14  O25 MIQ B 502       5.866 -10.427  -9.974  1.00143.95    -0.271 OA
HETATM   15  N20 MIQ B 502       5.309  -9.971 -12.125  1.00140.02    -0.296 N 
HETATM   16  H13 MIQ B 502       4.376  -9.689 -11.897  1.00142.77     0.171 HD
HETATM   17  C21 MIQ B 502       5.771  -9.973 -13.489  1.00142.22     0.224 C 
HETATM   18  C22 MIQ B 502       6.750 -11.066 -13.875  1.00139.52     0.106 C 
HETATM   19  O24 MIQ B 502       5.408  -9.160 -14.266  1.00146.13    -0.273 OA
HETATM   20  C23 MIQ B 502       7.930 -10.941 -12.929  1.00139.15     0.045 C 
ENDBRANCH  10  12
BRANCH   5  21
HETATM   21  N6  MIQ B 502       7.511 -17.941  -8.793  1.00140.95    -0.377 N 
HETATM   22  C7  MIQ B 502       6.097 -18.176  -8.553  1.00142.12     0.149 C 
HETATM   23  C8  MIQ B 502       5.863 -19.422  -7.710  1.00144.10     0.187 C 
HETATM   24  O9  MIQ B 502       6.583 -20.529  -8.164  1.00148.65    -0.388 OA
HETATM   25  C10 MIQ B 502       7.570 -20.379  -9.141  1.00147.44     0.187 C 
HETATM   26  C11 MIQ B 502       8.336 -19.062  -9.207  1.00144.08     0.149 C 
ENDBRANCH   5  21
TORSDOF 2
ENDMDL
MODEL 8
REMARK VINA RESULT:      -6.4      2.146      2.993
REMARK  2 active torsions:
REMARK  status: ('A' for Active; 'I' for Inactive)
REMARK    1  A    between atoms: C5_5  and  N6_21 
REMARK    2  A    between atoms: C18_14  and  N17_19 
ROOT
HETATM    1  O1  MIQ B 502       6.058 -19.765  -2.141  1.00142.91    -0.171 OA
HETATM    2  C2  MIQ B 502       6.775 -20.886  -2.566  1.00141.17     0.195 A 
HETATM    3  C3  MIQ B 502       7.130 -21.248  -4.044  1.00141.71     0.035 A 
HETATM    4  C4  MIQ B 502       6.858 -20.594  -5.346  1.00142.86     0.046 A 
HETATM    5  C5  MIQ B 502       7.324 -21.178  -6.552  1.00139.53     0.031 A 
HETATM    6  C12 MIQ B 502       8.073 -22.426  -6.508  1.00139.38     0.030 A 
HETATM    7  C13 MIQ B 502       8.335 -23.051  -5.259  1.00141.18     0.019 A 
HETATM    8  C14 MIQ B 502       7.846 -22.433  -3.997  1.00138.77     0.033 A 
HETATM    9  C15 MIQ B 502       7.936 -22.809  -2.482  1.00142.10     0.195 A 
HETATM   10  N17 MIQ B 502       7.298 -21.851  -1.830  1.00139.42    -0.288 N 
HETATM   11  O16 MIQ B 502       8.562 -23.930  -1.935  1.00148.93    -0.171 OA
ENDROOT
BRANCH  10  12
HETATM   12  C18 MIQ B 502       7.164 -21.878  -0.385  1.00139.82     0.187 C 
HETATM   13  C19 MIQ B 502       8.573 -21.803   0.216  1.00140.06     0.247 C 
HETATM   14  O25 MIQ B 502       9.308 -20.952  -0.142  1.00143.95    -0.271 OA
HETATM   15  N20 MIQ B 502       9.027 -22.745   1.219  1.00140.02    -0.296 N 
HETATM   16  H13 MIQ B 502       9.952 -22.689   1.598  1.00142.77     0.171 HD
HETATM   17  C21 MIQ B 502       8.116 -23.781   1.633  1.00142.22     0.224 C 
HETATM   18  C22 MIQ B 502       7.166 -24.313   0.578  1.00139.52     0.106 C 
HETATM   19  O24 MIQ B 502       8.108 -24.189   2.741  1.00146.13    -0.273 OA
HETATM   20  C23 MIQ B 502       6.389 -23.119   0.055  1.00139.15     0.045 C 
ENDBRANCH  10  12
BRANCH   5  21
HETATM   21  N6  MIQ B 502       7.037 -20.535  -7.821  1.00140.95    -0.377 N 
HETATM   22  C7  MIQ B 502       6.681 -19.127  -7.822  1.00142.12     0.149 C 
HETATM   23  C8  MIQ B 502       5.817 -18.760  -9.022  1.00144.10     0.187 C 
HETATM   24  O9  MIQ B 502       6.326 -19.247 -10.227  1.00148.65    -0.388 OA
HETATM   25  C10 MIQ B 502       7.382 -20.162 -10.231  1.00147.44     0.187 C 
HETATM   26  C11 MIQ B 502       7.516 -21.127  -9.058  1.00144.08     0.149 C 
ENDBRANCH   5  21
TORSDOF 2
ENDMDL
MODEL 9
REMARK VINA RESULT:      -6.4      2.394      4.610
REMARK  2 active torsions:
REMARK  status: ('A' for Active; 'I' for Inactive)
REMARK    1  A    between atoms: C5_5  and  N6_21 
REMARK    2  A    between atoms: C18_14  and  N17_19 
ROOT
HETATM    1  O1  MIQ B 502       8.368 -17.558  -3.621  1.00142.91    -0.171 OA
HETATM    2  C2  MIQ B 502       7.941 -18.794  -4.113  1.00141.17     0.195 A 
HETATM    3  C3  MIQ B 502       7.435 -19.085  -5.562  1.00141.71     0.035 A 
HETATM    4  C4  MIQ B 502       7.260 -18.243  -6.769  1.00142.86     0.046 A 
HETATM    5  C5  MIQ B 502       6.768 -18.808  -7.972  1.00139.53     0.031 A 
HETATM    6  C12 MIQ B 502       6.433 -20.224  -8.021  1.00139.38     0.030 A 
HETATM    7  C13 MIQ B 502       6.602 -21.032  -6.865  1.00141.18     0.019 A 
HETATM    8  C14 MIQ B 502       7.121 -20.434  -5.605  1.00138.77     0.033 A 
HETATM    9  C15 MIQ B 502       7.435 -20.983  -4.175  1.00142.10     0.195 A 
HETATM   10  N17 MIQ B 502       7.880 -19.951  -3.477  1.00139.42    -0.288 N 
HETATM   11  O16 MIQ B 502       7.273 -22.296  -3.730  1.00148.93    -0.171 OA
ENDROOT
BRANCH  10  12
HETATM   12  C18 MIQ B 502       8.259 -20.087  -2.083  1.00139.82     0.187 C 
HETATM   13  C19 MIQ B 502       9.247 -21.255  -1.978  1.00140.06     0.247 C 
HETATM   14  O25 MIQ B 502      10.185 -21.282  -2.694  1.00143.95    -0.271 OA
HETATM   15  N20 MIQ B 502       9.066 -22.326  -1.020  1.00140.02    -0.296 N 
HETATM   16  H13 MIQ B 502       9.715 -23.086  -0.966  1.00142.77     0.171 HD
HETATM   17  C21 MIQ B 502       7.908 -22.276  -0.164  1.00142.22     0.224 C 
HETATM   18  C22 MIQ B 502       6.650 -21.670  -0.755  1.00139.52     0.106 C 
HETATM   19  O24 MIQ B 502       7.942 -22.683   0.945  1.00146.13    -0.273 OA
HETATM   20  C23 MIQ B 502       7.018 -20.270  -1.210  1.00139.15     0.045 C 
ENDBRANCH  10  12
BRANCH   5  21
HETATM   21  N6  MIQ B 502       6.587 -17.968  -9.142  1.00140.95    -0.377 N 
HETATM   22  C7  MIQ B 502       5.496 -18.269 -10.052  1.00142.12     0.149 C 
HETATM   23  C8  MIQ B 502       5.788 -17.791 -11.469  1.00144.10     0.187 C 
HETATM   24  O9  MIQ B 502       6.255 -16.476 -11.512  1.00148.65    -0.388 OA
HETATM   25  C10 MIQ B 502       6.617 -15.814 -10.336  1.00147.44     0.187 C 
HETATM   26  C11 MIQ B 502       7.166 -16.636  -9.175  1.00144.08     0.149 C 
ENDBRANCH   5  21
TORSDOF 2
ENDMDL
