MODEL 1
REMARK VINA RESULT:      -7.9      0.000      0.000
REMARK  2 active torsions:
REMARK  status: ('A' for Active; 'I' for Inactive)
REMARK    1  A    between atoms: C5_5  and  N6_21 
REMARK    2  A    between atoms: C18_14  and  N17_19 
ROOT
HETATM    1  O1  MIQ B 502      -7.777   0.115  18.153  1.00142.91    -0.171 OA
HETATM    2  C2  MIQ B 502      -9.134  -0.215  18.172  1.00141.17     0.195 A 
HETATM    3  C3  MIQ B 502      -9.738  -1.644  17.991  1.00141.71     0.035 A 
HETATM    4  C4  MIQ B 502      -9.140  -2.982  17.768  1.00142.86     0.046 A 
HETATM    5  C5  MIQ B 502      -9.969  -4.125  17.641  1.00139.53     0.031 A 
HETATM    6  C12 MIQ B 502     -11.415  -3.983  17.733  1.00139.38     0.030 A 
HETATM    7  C13 MIQ B 502     -11.988  -2.701  17.948  1.00141.18     0.019 A 
HETATM    8  C14 MIQ B 502     -11.113  -1.505  18.082  1.00138.77     0.033 A 
HETATM    9  C15 MIQ B 502     -11.364   0.020  18.321  1.00142.10     0.195 A 
HETATM   10  N17 MIQ B 502     -10.170   0.588  18.347  1.00139.42    -0.288 N 
HETATM   11  O16 MIQ B 502     -12.601   0.649  18.473  1.00148.93    -0.171 OA
ENDROOT
BRANCH  10  12
HETATM   12  C18 MIQ B 502     -10.015   2.018  18.535  1.00139.82     0.187 C 
HETATM   13  C19 MIQ B 502      -9.171   2.554  17.373  1.00140.06     0.247 C 
HETATM   14  O25 MIQ B 502      -9.479   2.287  16.266  1.00143.95    -0.271 OA
HETATM   15  N20 MIQ B 502      -8.006   3.387  17.595  1.00140.02    -0.296 N 
HETATM   16  H13 MIQ B 502      -7.460   3.725  16.827  1.00142.77     0.171 HD
HETATM   17  C21 MIQ B 502      -7.644   3.690  18.955  1.00142.22     0.224 C 
HETATM   18  C22 MIQ B 502      -7.921   2.617  19.990  1.00139.52     0.106 C 
HETATM   19  O24 MIQ B 502      -7.159   4.727  19.248  1.00146.13    -0.273 OA
HETATM   20  C23 MIQ B 502      -9.405   2.310  19.906  1.00139.15     0.045 C 
ENDBRANCH  10  12
BRANCH   5  21
HETATM   21  N6  MIQ B 502      -9.371  -5.427  17.408  1.00140.95    -0.377 N 
HETATM   22  C7  MIQ B 502      -8.167  -5.503  16.599  1.00142.12     0.149 C 
HETATM   23  C8  MIQ B 502      -8.025  -6.857  15.915  1.00144.10     0.187 C 
HETATM   24  O9  MIQ B 502      -8.228  -7.930  16.786  1.00148.65    -0.388 OA
HETATM   25  C10 MIQ B 502      -8.734  -7.713  18.070  1.00147.44     0.187 C 
HETATM   26  C11 MIQ B 502      -9.680  -6.537  18.293  1.00144.08     0.149 C 
ENDBRANCH   5  21
TORSDOF 2
ENDMDL
MODEL 2
REMARK VINA RESULT:      -7.9      0.269      1.019
REMARK  2 active torsions:
REMARK  status: ('A' for Active; 'I' for Inactive)
REMARK    1  A    between atoms: C5_5  and  N6_21 
REMARK    2  A    between atoms: C18_14  and  N17_19 
ROOT
HETATM    1  O1  MIQ B 502      -7.676   0.028  18.167  1.00142.91    -0.171 OA
HETATM    2  C2  MIQ B 502      -9.022  -0.344  18.140  1.00141.17     0.195 A 
HETATM    3  C3  MIQ B 502      -9.575  -1.790  17.931  1.00141.71     0.035 A 
HETATM    4  C4  MIQ B 502      -8.929  -3.107  17.717  1.00142.86     0.046 A 
HETATM    5  C5  MIQ B 502      -9.718  -4.274  17.556  1.00139.53     0.031 A 
HETATM    6  C12 MIQ B 502     -11.170  -4.176  17.603  1.00139.38     0.030 A 
HETATM    7  C13 MIQ B 502     -11.789  -2.914  17.809  1.00141.18     0.019 A 
HETATM    8  C14 MIQ B 502     -10.956  -1.693  17.979  1.00138.77     0.033 A 
HETATM    9  C15 MIQ B 502     -11.262  -0.178  18.221  1.00142.10     0.195 A 
HETATM   10  N17 MIQ B 502     -10.087   0.425  18.288  1.00139.42    -0.288 N 
HETATM   11  O16 MIQ B 502     -12.521   0.412  18.338  1.00148.93    -0.171 OA
ENDROOT
BRANCH  10  12
HETATM   12  C18 MIQ B 502      -9.982   1.858  18.492  1.00139.82     0.187 C 
HETATM   13  C19 MIQ B 502      -9.123   2.430  17.357  1.00140.06     0.247 C 
HETATM   14  O25 MIQ B 502      -9.392   2.163  16.240  1.00143.95    -0.271 OA
HETATM   15  N20 MIQ B 502      -7.992   3.296  17.618  1.00140.02    -0.296 N 
HETATM   16  H13 MIQ B 502      -7.435   3.658  16.869  1.00142.77     0.171 HD
HETATM   17  C21 MIQ B 502      -7.677   3.600  18.990  1.00142.22     0.224 C 
HETATM   18  C22 MIQ B 502      -7.949   2.510  20.009  1.00139.52     0.106 C 
HETATM   19  O24 MIQ B 502      -7.233   4.649  19.305  1.00146.13    -0.273 OA
HETATM   20  C23 MIQ B 502      -9.420   2.158  19.881  1.00139.15     0.045 C 
ENDBRANCH  10  12
BRANCH   5  21
HETATM   21  N6  MIQ B 502      -9.073  -5.555  17.332  1.00140.95    -0.377 N 
HETATM   22  C7  MIQ B 502      -9.656  -6.741  17.936  1.00142.12     0.149 C 
HETATM   23  C8  MIQ B 502      -8.615  -7.825  18.180  1.00144.10     0.187 C 
HETATM   24  O9  MIQ B 502      -7.803  -8.059  17.068  1.00148.65    -0.388 OA
HETATM   25  C10 MIQ B 502      -7.841  -7.195  15.970  1.00147.44     0.187 C 
HETATM   26  C11 MIQ B 502      -8.169  -5.725  16.209  1.00144.08     0.149 C 
ENDBRANCH   5  21
TORSDOF 2
ENDMDL
MODEL 3
REMARK VINA RESULT:      -7.4      1.974      3.175
REMARK  2 active torsions:
REMARK  status: ('A' for Active; 'I' for Inactive)
REMARK    1  A    between atoms: C5_5  and  N6_21 
REMARK    2  A    between atoms: C18_14  and  N17_19 
ROOT
HETATM    1  O1  MIQ B 502     -11.503  -2.311  18.921  1.00142.91    -0.171 OA
HETATM    2  C2  MIQ B 502     -10.401  -2.436  18.073  1.00141.17     0.195 A 
HETATM    3  C3  MIQ B 502      -9.669  -3.765  17.701  1.00141.71     0.035 A 
HETATM    4  C4  MIQ B 502      -9.877  -5.183  18.078  1.00142.86     0.046 A 
HETATM    5  C5  MIQ B 502      -9.027  -6.194  17.564  1.00139.53     0.031 A 
HETATM    6  C12 MIQ B 502      -7.944  -5.836  16.660  1.00139.38     0.030 A 
HETATM    7  C13 MIQ B 502      -7.744  -4.477  16.297  1.00141.18     0.019 A 
HETATM    8  C14 MIQ B 502      -8.641  -3.420  16.838  1.00138.77     0.033 A 
HETATM    9  C15 MIQ B 502      -8.736  -1.868  16.673  1.00142.10     0.195 A 
HETATM   10  N17 MIQ B 502      -9.760  -1.483  17.417  1.00139.42    -0.288 N 
HETATM   11  O16 MIQ B 502      -7.905  -1.058  15.898  1.00148.93    -0.171 OA
ENDROOT
BRANCH  10  12
HETATM   12  C18 MIQ B 502     -10.140  -0.086  17.519  1.00139.82     0.187 C 
HETATM   13  C19 MIQ B 502     -10.261   0.471  16.095  1.00140.06     0.247 C 
HETATM   14  O25 MIQ B 502     -10.918  -0.107  15.304  1.00143.95    -0.271 OA
HETATM   15  N20 MIQ B 502      -9.594   1.693  15.694  1.00140.02    -0.296 N 
HETATM   16  H13 MIQ B 502      -9.675   2.043  14.760  1.00142.77     0.171 HD
HETATM   17  C21 MIQ B 502      -8.789   2.375  16.675  1.00142.22     0.224 C 
HETATM   18  C22 MIQ B 502      -8.068   1.507  17.688  1.00139.52     0.106 C 
HETATM   19  O24 MIQ B 502      -8.700   3.553  16.690  1.00146.13    -0.273 OA
HETATM   20  C23 MIQ B 502      -9.134   0.676  18.380  1.00139.15     0.045 C 
ENDBRANCH  10  12
BRANCH   5  21
HETATM   21  N6  MIQ B 502      -9.234  -7.577  17.954  1.00140.95    -0.377 N 
HETATM   22  C7  MIQ B 502      -8.422  -8.605  17.324  1.00142.12     0.149 C 
HETATM   23  C8  MIQ B 502      -9.127  -9.955  17.308  1.00144.10     0.187 C 
HETATM   24  O9  MIQ B 502      -9.671 -10.299  18.547  1.00148.65    -0.388 OA
HETATM   25  C10 MIQ B 502      -9.732  -9.359  19.579  1.00147.44     0.187 C 
HETATM   26  C11 MIQ B 502      -9.883  -7.886  19.216  1.00144.08     0.149 C 
ENDBRANCH   5  21
TORSDOF 2
ENDMDL
MODEL 4
REMARK VINA RESULT:      -7.2      2.020      7.989
REMARK  2 active torsions:
REMARK  status: ('A' for Active; 'I' for Inactive)
REMARK    1  A    between atoms: C5_5  and  N6_21 
REMARK    2  A    between atoms: C18_14  and  N17_19 
ROOT
HETATM    1  O1  MIQ B 502      -8.037  -4.147  18.008  1.00142.91    -0.171 OA
HETATM    2  C2  MIQ B 502      -9.124  -3.595  17.326  1.00141.17     0.195 A 
HETATM    3  C3  MIQ B 502      -9.492  -2.079  17.252  1.00141.71     0.035 A 
HETATM    4  C4  MIQ B 502      -8.879  -0.853  17.814  1.00142.86     0.046 A 
HETATM    5  C5  MIQ B 502      -9.458   0.417  17.565  1.00139.53     0.031 A 
HETATM    6  C12 MIQ B 502     -10.661   0.515  16.751  1.00139.38     0.030 A 
HETATM    7  C13 MIQ B 502     -11.249  -0.660  16.211  1.00141.18     0.019 A 
HETATM    8  C14 MIQ B 502     -10.635  -1.990  16.474  1.00138.77     0.033 A 
HETATM    9  C15 MIQ B 502     -10.978  -3.460  16.063  1.00142.10     0.195 A 
HETATM   10  N17 MIQ B 502     -10.045  -4.220  16.613  1.00139.42    -0.288 N 
HETATM   11  O16 MIQ B 502     -12.053  -3.878  15.277  1.00148.93    -0.171 OA
ENDROOT
BRANCH  10  12
HETATM   12  C18 MIQ B 502     -10.053  -5.662  16.454  1.00139.82     0.187 C 
HETATM   13  C19 MIQ B 502      -9.896  -6.286  17.846  1.00140.06     0.247 C 
HETATM   14  O25 MIQ B 502     -10.608  -5.935  18.719  1.00143.95    -0.271 OA
HETATM   15  N20 MIQ B 502      -8.899  -7.301  18.120  1.00140.02    -0.296 N 
HETATM   16  H13 MIQ B 502      -8.802  -7.696  19.034  1.00142.77     0.171 HD
HETATM   17  C21 MIQ B 502      -8.034  -7.706  17.041  1.00142.22     0.224 C 
HETATM   18  C22 MIQ B 502      -7.660  -6.638  16.031  1.00139.52     0.106 C 
HETATM   19  O24 MIQ B 502      -7.642  -8.816  16.947  1.00146.13    -0.273 OA
HETATM   20  C23 MIQ B 502      -8.964  -6.095  15.474  1.00139.15     0.045 C 
ENDBRANCH  10  12
BRANCH   5  21
HETATM   21  N6  MIQ B 502      -8.855   1.609  18.134  1.00140.95    -0.377 N 
HETATM   22  C7  MIQ B 502      -7.816   1.450  19.137  1.00142.12     0.149 C 
HETATM   23  C8  MIQ B 502      -7.742   2.649  20.073  1.00144.10     0.187 C 
HETATM   24  O9  MIQ B 502      -7.735   3.869  19.395  1.00148.65    -0.388 OA
HETATM   25  C10 MIQ B 502      -8.008   3.919  18.025  1.00147.44     0.187 C 
HETATM   26  C11 MIQ B 502      -8.949   2.876  17.431  1.00144.08     0.149 C 
ENDBRANCH   5  21
TORSDOF 2
ENDMDL
MODEL 5
REMARK VINA RESULT:      -7.1      4.441      8.204
REMARK  2 active torsions:
REMARK  status: ('A' for Active; 'I' for Inactive)
REMARK    1  A    between atoms: C5_5  and  N6_21 
REMARK    2  A    between atoms: C18_14  and  N17_19 
ROOT
HETATM    1  O1  MIQ B 502     -10.322   1.841  18.050  1.00142.91    -0.171 OA
HETATM    2  C2  MIQ B 502     -10.857   0.958  17.108  1.00141.17     0.195 A 
HETATM    3  C3  MIQ B 502     -12.033   1.259  16.126  1.00141.71     0.035 A 
HETATM    4  C4  MIQ B 502     -12.882   2.450  15.887  1.00142.86     0.046 A 
HETATM    5  C5  MIQ B 502     -13.897   2.421  14.898  1.00139.53     0.031 A 
HETATM    6  C12 MIQ B 502     -14.106   1.212  14.113  1.00139.38     0.030 A 
HETATM    7  C13 MIQ B 502     -13.292   0.070  14.341  1.00141.18     0.019 A 
HETATM    8  C14 MIQ B 502     -12.226   0.108  15.379  1.00138.77     0.033 A 
HETATM    9  C15 MIQ B 502     -11.163  -0.913  15.901  1.00142.10     0.195 A 
HETATM   10  N17 MIQ B 502     -10.488  -0.285  16.850  1.00139.42    -0.288 N 
HETATM   11  O16 MIQ B 502     -10.970  -2.221  15.453  1.00148.93    -0.171 OA
ENDROOT
BRANCH  10  12
HETATM   12  C18 MIQ B 502      -9.418  -0.940  17.579  1.00139.82     0.187 C 
HETATM   13  C19 MIQ B 502      -8.439  -1.521  16.550  1.00140.06     0.247 C 
HETATM   14  O25 MIQ B 502      -8.026  -0.825  15.692  1.00143.95    -0.271 OA
HETATM   15  N20 MIQ B 502      -8.002  -2.901  16.606  1.00140.02    -0.296 N 
HETATM   16  H13 MIQ B 502      -7.368  -3.269  15.925  1.00142.77     0.171 HD
HETATM   17  C21 MIQ B 502      -8.529  -3.733  17.657  1.00142.22     0.224 C 
HETATM   18  C22 MIQ B 502      -9.951  -3.450  18.102  1.00139.52     0.106 C 
HETATM   19  O24 MIQ B 502      -7.881  -4.590  18.150  1.00146.13    -0.273 OA
HETATM   20  C23 MIQ B 502      -9.988  -1.994  18.527  1.00139.15     0.045 C 
ENDBRANCH  10  12
BRANCH   5  21
HETATM   21  N6  MIQ B 502     -14.730   3.590  14.684  1.00140.95    -0.377 N 
HETATM   22  C7  MIQ B 502     -15.971   3.433  13.945  1.00142.12     0.149 C 
HETATM   23  C8  MIQ B 502     -16.389   4.725  13.255  1.00144.10     0.187 C 
HETATM   24  O9  MIQ B 502     -16.334   5.835  14.101  1.00148.65    -0.388 OA
HETATM   25  C10 MIQ B 502     -15.728   5.739  15.356  1.00147.44     0.187 C 
HETATM   26  C11 MIQ B 502     -14.577   4.755  15.537  1.00144.08     0.149 C 
ENDBRANCH   5  21
TORSDOF 2
ENDMDL
MODEL 6
REMARK VINA RESULT:      -7.1      2.094      2.820
REMARK  2 active torsions:
REMARK  status: ('A' for Active; 'I' for Inactive)
REMARK    1  A    between atoms: C5_5  and  N6_21 
REMARK    2  A    between atoms: C18_14  and  N17_19 
ROOT
HETATM    1  O1  MIQ B 502      -8.205  -2.341  17.030  1.00142.91    -0.171 OA
HETATM    2  C2  MIQ B 502      -9.424  -2.621  17.652  1.00141.17     0.195 A 
HETATM    3  C3  MIQ B 502      -9.892  -4.016  18.178  1.00141.71     0.035 A 
HETATM    4  C4  MIQ B 502      -9.269  -5.360  18.194  1.00142.86     0.046 A 
HETATM    5  C5  MIQ B 502      -9.959  -6.464  18.757  1.00139.53     0.031 A 
HETATM    6  C12 MIQ B 502     -11.287  -6.273  19.323  1.00139.38     0.030 A 
HETATM    7  C13 MIQ B 502     -11.884  -4.984  19.308  1.00141.18     0.019 A 
HETATM    8  C14 MIQ B 502     -11.154  -3.829  18.718  1.00138.77     0.033 A 
HETATM    9  C15 MIQ B 502     -11.471  -2.310  18.527  1.00142.10     0.195 A 
HETATM   10  N17 MIQ B 502     -10.414  -1.789  17.927  1.00139.42    -0.288 N 
HETATM   11  O16 MIQ B 502     -12.636  -1.644  18.912  1.00148.93    -0.171 OA
ENDROOT
BRANCH  10  12
HETATM   12  C18 MIQ B 502     -10.360  -0.382  17.574  1.00139.82     0.187 C 
HETATM   13  C19 MIQ B 502      -9.913  -0.285  16.110  1.00140.06     0.247 C 
HETATM   14  O25 MIQ B 502     -10.475  -0.923  15.292  1.00143.95    -0.271 OA
HETATM   15  N20 MIQ B 502      -8.821   0.575  15.700  1.00140.02    -0.296 N 
HETATM   16  H13 MIQ B 502      -8.535   0.625  14.743  1.00142.77     0.171 HD
HETATM   17  C21 MIQ B 502      -8.144   1.336  16.718  1.00142.22     0.224 C 
HETATM   18  C22 MIQ B 502      -8.027   0.693  18.086  1.00139.52     0.106 C 
HETATM   19  O24 MIQ B 502      -7.706   2.412  16.497  1.00146.13    -0.273 OA
HETATM   20  C23 MIQ B 502      -9.442   0.372  18.534  1.00139.15     0.045 C 
ENDBRANCH  10  12
BRANCH   5  21
HETATM   21  N6  MIQ B 502      -9.342  -7.778  18.753  1.00140.95    -0.377 N 
HETATM   22  C7  MIQ B 502      -8.779  -8.277  17.511  1.00142.12     0.149 C 
HETATM   23  C8  MIQ B 502      -8.769  -9.799  17.462  1.00144.10     0.187 C 
HETATM   24  O9  MIQ B 502      -8.256 -10.377  18.624  1.00148.65    -0.388 OA
HETATM   25  C10 MIQ B 502      -8.018  -9.596  19.758  1.00147.44     0.187 C 
HETATM   26  C11 MIQ B 502      -8.901  -8.376  20.001  1.00144.08     0.149 C 
ENDBRANCH   5  21
TORSDOF 2
ENDMDL
MODEL 7
REMARK VINA RESULT:      -7.1      2.479      7.975
REMARK  2 active torsions:
REMARK  status: ('A' for Active; 'I' for Inactive)
REMARK    1  A    between atoms: C5_5  and  N6_21 
REMARK    2  A    between atoms: C18_14  and  N17_19 
ROOT
HETATM    1  O1  MIQ B 502      -9.468  -4.008  20.060  1.00142.91    -0.171 OA
HETATM    2  C2  MIQ B 502      -9.833  -3.752  18.736  1.00141.17     0.195 A 
HETATM    3  C3  MIQ B 502      -9.730  -2.378  18.001  1.00141.71     0.035 A 
HETATM    4  C4  MIQ B 502      -9.261  -1.034  18.413  1.00142.86     0.046 A 
HETATM    5  C5  MIQ B 502      -9.289   0.048  17.497  1.00139.53     0.031 A 
HETATM    6  C12 MIQ B 502      -9.781  -0.165  16.143  1.00139.38     0.030 A 
HETATM    7  C13 MIQ B 502     -10.230  -1.454  15.747  1.00141.18     0.019 A 
HETATM    8  C14 MIQ B 502     -10.196  -2.586  16.713  1.00138.77     0.033 A 
HETATM    9  C15 MIQ B 502     -10.589  -4.098  16.648  1.00142.10     0.195 A 
HETATM   10  N17 MIQ B 502     -10.324  -4.595  17.845  1.00139.42    -0.288 N 
HETATM   11  O16 MIQ B 502     -11.115  -4.778  15.549  1.00148.93    -0.171 OA
ENDROOT
BRANCH  10  12
HETATM   12  C18 MIQ B 502     -10.582  -5.988  18.160  1.00139.82     0.187 C 
HETATM   13  C19 MIQ B 502     -11.487  -6.028  19.397  1.00140.06     0.247 C 
HETATM   14  O25 MIQ B 502     -12.475  -5.384  19.409  1.00143.95    -0.271 OA
HETATM   15  N20 MIQ B 502     -11.166  -6.841  20.553  1.00140.02    -0.296 N 
HETATM   16  H13 MIQ B 502     -11.762  -6.853  21.357  1.00142.77     0.171 HD
HETATM   17  C21 MIQ B 502      -9.949  -7.610  20.519  1.00142.22     0.224 C 
HETATM   18  C22 MIQ B 502      -8.780  -7.004  19.766  1.00139.52     0.106 C 
HETATM   19  O24 MIQ B 502      -9.869  -8.664  21.048  1.00146.13    -0.273 OA
HETATM   20  C23 MIQ B 502      -9.267  -6.742  18.352  1.00139.15     0.045 C 
ENDBRANCH  10  12
BRANCH   5  21
HETATM   21  N6  MIQ B 502      -8.840   1.362  17.919  1.00140.95    -0.377 N 
HETATM   22  C7  MIQ B 502      -9.481   2.532  17.344  1.00142.12     0.149 C 
HETATM   23  C8  MIQ B 502      -8.557   3.744  17.344  1.00144.10     0.187 C 
HETATM   24  O9  MIQ B 502      -7.932   3.950  18.575  1.00148.65    -0.388 OA
HETATM   25  C10 MIQ B 502      -8.005   2.980  19.577  1.00147.44     0.187 C 
HETATM   26  C11 MIQ B 502      -8.116   1.515  19.168  1.00144.08     0.149 C 
ENDBRANCH   5  21
TORSDOF 2
ENDMDL
MODEL 8
REMARK VINA RESULT:      -7.0      3.114      4.606
REMARK  2 active torsions:
REMARK  status: ('A' for Active; 'I' for Inactive)
REMARK    1  A    between atoms: C5_5  and  N6_21 
REMARK    2  A    between atoms: C18_14  and  N17_19 
ROOT
HETATM    1  O1  MIQ B 502     -10.701  -0.918  18.346  1.00142.91    -0.171 OA
HETATM    2  C2  MIQ B 502      -9.876  -1.965  17.930  1.00141.17     0.195 A 
HETATM    3  C3  MIQ B 502      -9.834  -3.404  18.537  1.00141.71     0.035 A 
HETATM    4  C4  MIQ B 502     -10.575  -4.069  19.635  1.00142.86     0.046 A 
HETATM    5  C5  MIQ B 502     -10.310  -5.422  19.961  1.00139.53     0.031 A 
HETATM    6  C12 MIQ B 502      -9.304  -6.163  19.213  1.00139.38     0.030 A 
HETATM    7  C13 MIQ B 502      -8.593  -5.526  18.161  1.00141.18     0.019 A 
HETATM    8  C14 MIQ B 502      -8.878  -4.105  17.820  1.00138.77     0.033 A 
HETATM    9  C15 MIQ B 502      -8.324  -3.096  16.762  1.00142.10     0.195 A 
HETATM   10  N17 MIQ B 502      -8.981  -1.965  16.956  1.00139.42    -0.288 N 
HETATM   11  O16 MIQ B 502      -7.334  -3.344  15.809  1.00148.93    -0.171 OA
ENDROOT
BRANCH  10  12
HETATM   12  C18 MIQ B 502      -8.714  -0.786  16.154  1.00139.82     0.187 C 
HETATM   13  C19 MIQ B 502      -8.448   0.382  17.113  1.00140.06     0.247 C 
HETATM   14  O25 MIQ B 502      -7.656   0.248  17.977  1.00143.95    -0.271 OA
HETATM   15  N20 MIQ B 502      -9.138   1.649  16.983  1.00140.02    -0.296 N 
HETATM   16  H13 MIQ B 502      -8.961   2.401  17.619  1.00142.77     0.171 HD
HETATM   17  C21 MIQ B 502     -10.108   1.783  15.927  1.00142.22     0.224 C 
HETATM   18  C22 MIQ B 502     -10.893   0.539  15.559  1.00139.52     0.106 C 
HETATM   19  O24 MIQ B 502     -10.277   2.813  15.371  1.00146.13    -0.273 OA
HETATM   20  C23 MIQ B 502      -9.872  -0.523  15.193  1.00139.15     0.045 C 
ENDBRANCH  10  12
BRANCH   5  21
HETATM   21  N6  MIQ B 502     -11.033  -6.057  21.048  1.00140.95    -0.377 N 
HETATM   22  C7  MIQ B 502     -12.085  -5.307  21.714  1.00142.12     0.149 C 
HETATM   23  C8  MIQ B 502     -12.294  -5.772  23.149  1.00144.10     0.187 C 
HETATM   24  O9  MIQ B 502     -12.388  -7.161  23.262  1.00148.65    -0.388 OA
HETATM   25  C10 MIQ B 502     -12.079  -7.982  22.175  1.00147.44     0.187 C 
HETATM   26  C11 MIQ B 502     -11.031  -7.504  21.175  1.00144.08     0.149 C 
ENDBRANCH   5  21
TORSDOF 2
ENDMDL
MODEL 9
REMARK VINA RESULT:      -7.0      2.378      3.491
REMARK  2 active torsions:
REMARK  status: ('A' for Active; 'I' for Inactive)
REMARK    1  A    between atoms: C5_5  and  N6_21 
REMARK    2  A    between atoms: C18_14  and  N17_19 
ROOT
HETATM    1  O1  MIQ B 502      -7.311  -3.494  15.853  1.00142.91    -0.171 OA
HETATM    2  C2  MIQ B 502      -8.346  -3.210  16.747  1.00141.17     0.195 A 
HETATM    3  C3  MIQ B 502      -9.045  -4.229  17.702  1.00141.71     0.035 A 
HETATM    4  C4  MIQ B 502      -8.863  -5.678  17.955  1.00142.86     0.046 A 
HETATM    5  C5  MIQ B 502      -9.670  -6.345  18.912  1.00139.53     0.031 A 
HETATM    6  C12 MIQ B 502     -10.681  -5.602  19.649  1.00139.38     0.030 A 
HETATM    7  C13 MIQ B 502     -10.855  -4.212  19.407  1.00141.18     0.019 A 
HETATM    8  C14 MIQ B 502     -10.003  -3.516  18.404  1.00138.77     0.033 A 
HETATM    9  C15 MIQ B 502      -9.898  -2.046  17.882  1.00142.10     0.195 A 
HETATM   10  N17 MIQ B 502      -8.935  -2.049  16.975  1.00139.42    -0.288 N 
HETATM   11  O16 MIQ B 502     -10.670  -0.957  18.291  1.00148.93    -0.171 OA
ENDROOT
BRANCH  10  12
HETATM   12  C18 MIQ B 502      -8.567  -0.842  16.258  1.00139.82     0.187 C 
HETATM   13  C19 MIQ B 502      -8.330   0.263  17.294  1.00140.06     0.247 C 
HETATM   14  O25 MIQ B 502      -7.609   0.055  18.204  1.00143.95    -0.271 OA
HETATM   15  N20 MIQ B 502      -8.962   1.562  17.184  1.00140.02    -0.296 N 
HETATM   16  H13 MIQ B 502      -8.804   2.273  17.870  1.00142.77     0.171 HD
HETATM   17  C21 MIQ B 502      -9.846   1.789  16.070  1.00142.22     0.224 C 
HETATM   18  C22 MIQ B 502     -10.647   0.598  15.582  1.00139.52     0.106 C 
HETATM   19  O24 MIQ B 502      -9.937   2.851  15.560  1.00146.13    -0.273 OA
HETATM   20  C23 MIQ B 502      -9.642  -0.484  15.232  1.00139.15     0.045 C 
ENDBRANCH  10  12
BRANCH   5  21
HETATM   21  N6  MIQ B 502      -9.491  -7.768  19.138  1.00140.95    -0.377 N 
HETATM   22  C7  MIQ B 502      -9.112  -8.608  18.016  1.00142.12     0.149 C 
HETATM   23  C8  MIQ B 502      -9.575 -10.047  18.200  1.00144.10     0.187 C 
HETATM   24  O9  MIQ B 502      -9.265 -10.561  19.461  1.00148.65    -0.388 OA
HETATM   25  C10 MIQ B 502      -8.796  -9.718  20.472  1.00147.44     0.187 C 
HETATM   26  C11 MIQ B 502      -9.256  -8.264  20.483  1.00144.08     0.149 C 
ENDBRANCH   5  21
TORSDOF 2
ENDMDL
