MODEL 1
REMARK VINA RESULT:      -6.7      0.000      0.000
REMARK  2 active torsions:
REMARK  status: ('A' for Active; 'I' for Inactive)
REMARK    1  A    between atoms: C5_5  and  N6_21 
REMARK    2  A    between atoms: C18_14  and  N17_19 
ROOT
HETATM    1  O1  MIQ B 502     -16.556  -8.831 -21.306  1.00142.91    -0.171 OA
HETATM    2  C2  MIQ B 502     -17.117  -8.036 -20.304  1.00141.17     0.195 A 
HETATM    3  C3  MIQ B 502     -18.626  -7.989 -19.901  1.00141.71     0.035 A 
HETATM    4  C4  MIQ B 502     -19.833  -8.696 -20.389  1.00142.86     0.046 A 
HETATM    5  C5  MIQ B 502     -21.100  -8.436 -19.807  1.00139.53     0.031 A 
HETATM    6  C12 MIQ B 502     -21.213  -7.470 -18.724  1.00139.38     0.030 A 
HETATM    7  C13 MIQ B 502     -20.055  -6.793 -18.255  1.00141.18     0.019 A 
HETATM    8  C14 MIQ B 502     -18.728  -7.071 -18.868  1.00138.77     0.033 A 
HETATM    9  C15 MIQ B 502     -17.275  -6.546 -18.628  1.00142.10     0.195 A 
HETATM   10  N17 MIQ B 502     -16.509  -7.180 -19.501  1.00139.42    -0.288 N 
HETATM   11  O16 MIQ B 502     -16.873  -5.598 -17.686  1.00148.93    -0.171 OA
ENDROOT
BRANCH  10  12
HETATM   12  C18 MIQ B 502     -15.082  -6.929 -19.579  1.00139.82     0.187 C 
HETATM   13  C19 MIQ B 502     -14.739  -6.629 -21.043  1.00140.06     0.247 C 
HETATM   14  O25 MIQ B 502     -15.363  -5.814 -21.625  1.00143.95    -0.271 OA
HETATM   15  N20 MIQ B 502     -13.666  -7.315 -21.733  1.00140.02    -0.296 N 
HETATM   16  H13 MIQ B 502     -13.457  -7.115 -22.691  1.00142.77     0.171 HD
HETATM   17  C21 MIQ B 502     -12.927  -8.314 -21.005  1.00142.22     0.224 C 
HETATM   18  C22 MIQ B 502     -13.698  -9.116 -19.975  1.00139.52     0.106 C 
HETATM   19  O24 MIQ B 502     -11.775  -8.493 -21.199  1.00146.13    -0.273 OA
HETATM   20  C23 MIQ B 502     -14.301  -8.113 -19.009  1.00139.15     0.045 C 
ENDBRANCH  10  12
BRANCH   5  21
HETATM   21  N6  MIQ B 502     -22.277  -9.124 -20.305  1.00140.95    -0.377 N 
HETATM   22  C7  MIQ B 502     -23.456  -8.340 -20.629  1.00142.12     0.149 C 
HETATM   23  C8  MIQ B 502     -24.735  -9.157 -20.505  1.00144.10     0.187 C 
HETATM   24  O9  MIQ B 502     -24.651 -10.398 -21.140  1.00148.65    -0.388 OA
HETATM   25  C10 MIQ B 502     -23.423 -10.870 -21.612  1.00147.44     0.187 C 
HETATM   26  C11 MIQ B 502     -22.152 -10.452 -20.880  1.00144.08     0.149 C 
ENDBRANCH   5  21
TORSDOF 2
ENDMDL
MODEL 2
REMARK VINA RESULT:      -6.7      1.587      1.987
REMARK  2 active torsions:
REMARK  status: ('A' for Active; 'I' for Inactive)
REMARK    1  A    between atoms: C5_5  and  N6_21 
REMARK    2  A    between atoms: C18_14  and  N17_19 
ROOT
HETATM    1  O1  MIQ B 502     -17.655  -8.864 -22.976  1.00142.91    -0.171 OA
HETATM    2  C2  MIQ B 502     -17.896  -8.404 -21.680  1.00141.17     0.195 A 
HETATM    3  C3  MIQ B 502     -19.277  -8.381 -20.951  1.00141.71     0.035 A 
HETATM    4  C4  MIQ B 502     -20.644  -8.796 -21.345  1.00142.86     0.046 A 
HETATM    5  C5  MIQ B 502     -21.727  -8.649 -20.441  1.00139.53     0.031 A 
HETATM    6  C12 MIQ B 502     -21.492  -8.087 -19.119  1.00139.38     0.030 A 
HETATM    7  C13 MIQ B 502     -20.182  -7.689 -18.740  1.00141.18     0.019 A 
HETATM    8  C14 MIQ B 502     -19.049  -7.849 -19.692  1.00138.77     0.033 A 
HETATM    9  C15 MIQ B 502     -17.517  -7.541 -19.639  1.00142.10     0.195 A 
HETATM   10  N17 MIQ B 502     -17.029  -7.908 -20.813  1.00139.42    -0.288 N 
HETATM   11  O16 MIQ B 502     -16.812  -6.987 -18.569  1.00148.93    -0.171 OA
ENDROOT
BRANCH  10  12
HETATM   12  C18 MIQ B 502     -15.623  -7.751 -21.131  1.00139.82     0.187 C 
HETATM   13  C19 MIQ B 502     -14.814  -8.467 -20.043  1.00140.06     0.247 C 
HETATM   14  O25 MIQ B 502     -15.081  -9.582 -19.766  1.00143.95    -0.271 OA
HETATM   15  N20 MIQ B 502     -13.725  -7.814 -19.346  1.00140.02    -0.296 N 
HETATM   16  H13 MIQ B 502     -13.209  -8.290 -18.633  1.00142.77     0.171 HD
HETATM   17  C21 MIQ B 502     -13.424  -6.449 -19.694  1.00142.22     0.224 C 
HETATM   18  C22 MIQ B 502     -14.596  -5.575 -20.098  1.00139.52     0.106 C 
HETATM   19  O24 MIQ B 502     -12.318  -6.034 -19.670  1.00146.13    -0.273 OA
HETATM   20  C23 MIQ B 502     -15.270  -6.271 -21.267  1.00139.15     0.045 C 
ENDBRANCH  10  12
BRANCH   5  21
HETATM   21  N6  MIQ B 502     -23.063  -9.046 -20.846  1.00140.95    -0.377 N 
HETATM   22  C7  MIQ B 502     -23.863  -8.109 -21.616  1.00142.12     0.149 C 
HETATM   23  C8  MIQ B 502     -25.356  -8.340 -21.419  1.00144.10     0.187 C 
HETATM   24  O9  MIQ B 502     -25.720  -9.682 -21.547  1.00148.65    -0.388 OA
HETATM   25  C10 MIQ B 502     -24.742 -10.677 -21.613  1.00147.44     0.187 C 
HETATM   26  C11 MIQ B 502     -23.422 -10.453 -20.881  1.00144.08     0.149 C 
ENDBRANCH   5  21
TORSDOF 2
ENDMDL
MODEL 3
REMARK VINA RESULT:      -6.6      3.640      9.104
REMARK  2 active torsions:
REMARK  status: ('A' for Active; 'I' for Inactive)
REMARK    1  A    between atoms: C5_5  and  N6_21 
REMARK    2  A    between atoms: C18_14  and  N17_19 
ROOT
HETATM    1  O1  MIQ B 502     -15.693  -9.059 -18.074  1.00142.91    -0.171 OA
HETATM    2  C2  MIQ B 502     -14.708  -8.369 -18.784  1.00141.17     0.195 A 
HETATM    3  C3  MIQ B 502     -13.169  -8.630 -18.716  1.00141.71     0.035 A 
HETATM    4  C4  MIQ B 502     -12.331  -9.592 -17.962  1.00142.86     0.046 A 
HETATM    5  C5  MIQ B 502     -10.922  -9.588 -18.114  1.00139.53     0.031 A 
HETATM    6  C12 MIQ B 502     -10.295  -8.633 -19.017  1.00139.38     0.030 A 
HETATM    7  C13 MIQ B 502     -11.099  -7.711 -19.741  1.00141.18     0.019 A 
HETATM    8  C14 MIQ B 502     -12.578  -7.722 -19.579  1.00138.77     0.033 A 
HETATM    9  C15 MIQ B 502     -13.757  -6.893 -20.187  1.00142.10     0.195 A 
HETATM   10  N17 MIQ B 502     -14.862  -7.379 -19.646  1.00139.42    -0.288 N 
HETATM   11  O16 MIQ B 502     -13.657  -5.851 -21.110  1.00148.93    -0.171 OA
ENDROOT
BRANCH  10  12
HETATM   12  C18 MIQ B 502     -16.167  -6.833 -19.970  1.00139.82     0.187 C 
HETATM   13  C19 MIQ B 502     -16.843  -6.426 -18.655  1.00140.06     0.247 C 
HETATM   14  O25 MIQ B 502     -16.257  -5.742 -17.894  1.00143.95    -0.271 OA
HETATM   15  N20 MIQ B 502     -18.187  -6.853 -18.323  1.00140.02    -0.296 N 
HETATM   16  H13 MIQ B 502     -18.615  -6.585 -17.459  1.00142.77     0.171 HD
HETATM   17  C21 MIQ B 502     -18.878  -7.696 -19.264  1.00142.22     0.224 C 
HETATM   18  C22 MIQ B 502     -18.030  -8.672 -20.056  1.00139.52     0.106 C 
HETATM   19  O24 MIQ B 502     -20.049  -7.626 -19.413  1.00146.13    -0.273 OA
HETATM   20  C23 MIQ B 502     -16.980  -7.845 -20.776  1.00139.15     0.045 C 
ENDBRANCH  10  12
BRANCH   5  21
HETATM   21  N6  MIQ B 502     -10.112 -10.526 -17.359  1.00140.95    -0.377 N 
HETATM   22  C7  MIQ B 502      -8.751 -10.781 -17.799  1.00142.12     0.149 C 
HETATM   23  C8  MIQ B 502      -8.267 -12.163 -17.378  1.00144.10     0.187 C 
HETATM   24  O9  MIQ B 502      -8.521 -12.440 -16.033  1.00148.65    -0.388 OA
HETATM   25  C10 MIQ B 502      -9.342 -11.598 -15.279  1.00147.44     0.187 C 
HETATM   26  C11 MIQ B 502     -10.466 -10.849 -15.988  1.00144.08     0.149 C 
ENDBRANCH   5  21
TORSDOF 2
ENDMDL
MODEL 4
REMARK VINA RESULT:      -6.6     22.056     24.457
REMARK  2 active torsions:
REMARK  status: ('A' for Active; 'I' for Inactive)
REMARK    1  A    between atoms: C5_5  and  N6_21 
REMARK    2  A    between atoms: C18_14  and  N17_19 
ROOT
HETATM    1  O1  MIQ B 502     -15.530   9.234  -5.176  1.00142.91    -0.171 OA
HETATM    2  C2  MIQ B 502     -15.236   9.454  -3.828  1.00141.17     0.195 A 
HETATM    3  C3  MIQ B 502     -15.285   8.389  -2.687  1.00141.71     0.035 A 
HETATM    4  C4  MIQ B 502     -15.618   6.945  -2.655  1.00142.86     0.046 A 
HETATM    5  C5  MIQ B 502     -15.569   6.225  -1.435  1.00139.53     0.031 A 
HETATM    6  C12 MIQ B 502     -15.189   6.909  -0.207  1.00139.38     0.030 A 
HETATM    7  C13 MIQ B 502     -14.868   8.293  -0.238  1.00141.18     0.019 A 
HETATM    8  C14 MIQ B 502     -14.919   9.043  -1.522  1.00138.77     0.033 A 
HETATM    9  C15 MIQ B 502     -14.641  10.523  -1.942  1.00142.10     0.195 A 
HETATM   10  N17 MIQ B 502     -14.860  10.580  -3.246  1.00139.42    -0.288 N 
HETATM   11  O16 MIQ B 502     -14.246  11.569  -1.107  1.00148.93    -0.171 OA
ENDROOT
BRANCH  10  12
HETATM   12  C18 MIQ B 502     -14.713  11.820  -3.985  1.00139.82     0.187 C 
HETATM   13  C19 MIQ B 502     -16.028  12.078  -4.731  1.00140.06     0.247 C 
HETATM   14  O25 MIQ B 502     -17.045  12.039  -4.135  1.00143.95    -0.271 OA
HETATM   15  N20 MIQ B 502     -16.056  12.376  -6.148  1.00140.02    -0.296 N 
HETATM   16  H13 MIQ B 502     -16.922  12.537  -6.625  1.00142.77     0.171 HD
HETATM   17  C21 MIQ B 502     -14.802  12.409  -6.856  1.00142.22     0.224 C 
HETATM   18  C22 MIQ B 502     -13.728  11.448  -6.383  1.00139.52     0.106 C 
HETATM   19  O24 MIQ B 502     -14.620  13.152  -7.757  1.00146.13    -0.273 OA
HETATM   20  C23 MIQ B 502     -13.501  11.746  -4.912  1.00139.15     0.045 C 
ENDBRANCH  10  12
BRANCH   5  21
HETATM   21  N6  MIQ B 502     -15.912   4.815  -1.415  1.00140.95    -0.377 N 
HETATM   22  C7  MIQ B 502     -17.205   4.407  -1.937  1.00142.12     0.149 C 
HETATM   23  C8  MIQ B 502     -17.693   3.112  -1.301  1.00144.10     0.187 C 
HETATM   24  O9  MIQ B 502     -16.716   2.114  -1.282  1.00148.65    -0.388 OA
HETATM   25  C10 MIQ B 502     -15.391   2.415  -1.610  1.00147.44     0.187 C 
HETATM   26  C11 MIQ B 502     -14.864   3.814  -1.308  1.00144.08     0.149 C 
ENDBRANCH   5  21
TORSDOF 2
ENDMDL
MODEL 5
REMARK VINA RESULT:      -6.5     22.083     24.424
REMARK  2 active torsions:
REMARK  status: ('A' for Active; 'I' for Inactive)
REMARK    1  A    between atoms: C5_5  and  N6_21 
REMARK    2  A    between atoms: C18_14  and  N17_19 
ROOT
HETATM    1  O1  MIQ B 502     -15.886   6.182  -3.680  1.00142.91    -0.171 OA
HETATM    2  C2  MIQ B 502     -15.471   7.205  -2.825  1.00141.17     0.195 A 
HETATM    3  C3  MIQ B 502     -15.292   8.710  -3.206  1.00141.71     0.035 A 
HETATM    4  C4  MIQ B 502     -15.484   9.472  -4.462  1.00142.86     0.046 A 
HETATM    5  C5  MIQ B 502     -15.235  10.868  -4.499  1.00139.53     0.031 A 
HETATM    6  C12 MIQ B 502     -14.789  11.554  -3.295  1.00139.38     0.030 A 
HETATM    7  C13 MIQ B 502     -14.606  10.823  -2.090  1.00141.18     0.019 A 
HETATM    8  C14 MIQ B 502     -14.871   9.359  -2.057  1.00138.77     0.033 A 
HETATM    9  C15 MIQ B 502     -14.789   8.251  -0.956  1.00142.10     0.195 A 
HETATM   10  N17 MIQ B 502     -15.154   7.124  -1.544  1.00139.42    -0.288 N 
HETATM   11  O16 MIQ B 502     -14.404   8.423   0.375  1.00148.93    -0.171 OA
ENDROOT
BRANCH  10  12
HETATM   12  C18 MIQ B 502     -15.182   5.867  -0.820  1.00139.82     0.187 C 
HETATM   13  C19 MIQ B 502     -14.012   5.012  -1.322  1.00140.06     0.247 C 
HETATM   14  O25 MIQ B 502     -12.929   5.479  -1.351  1.00143.95    -0.271 OA
HETATM   15  N20 MIQ B 502     -14.197   3.642  -1.756  1.00140.02    -0.296 N 
HETATM   16  H13 MIQ B 502     -13.426   3.097  -2.087  1.00142.77     0.171 HD
HETATM   17  C21 MIQ B 502     -15.530   3.098  -1.720  1.00142.22     0.224 C 
HETATM   18  C22 MIQ B 502     -16.667   4.062  -2.002  1.00139.52     0.106 C 
HETATM   19  O24 MIQ B 502     -15.726   1.958  -1.479  1.00146.13    -0.273 OA
HETATM   20  C23 MIQ B 502     -16.540   5.186  -0.990  1.00139.15     0.045 C 
ENDBRANCH  10  12
BRANCH   5  21
HETATM   21  N6  MIQ B 502     -15.413  11.600  -5.740  1.00140.95    -0.377 N 
HETATM   22  C7  MIQ B 502     -16.599  12.424  -5.896  1.00142.12     0.149 C 
HETATM   23  C8  MIQ B 502     -16.988  12.590  -7.359  1.00144.10     0.187 C 
HETATM   24  O9  MIQ B 502     -15.908  12.939  -8.172  1.00148.65    -0.388 OA
HETATM   25  C10 MIQ B 502     -14.603  12.891  -7.674  1.00147.44     0.187 C 
HETATM   26  C11 MIQ B 502     -14.271  11.864  -6.596  1.00144.08     0.149 C 
ENDBRANCH   5  21
TORSDOF 2
ENDMDL
MODEL 6
REMARK VINA RESULT:      -6.5      1.298      2.357
REMARK  2 active torsions:
REMARK  status: ('A' for Active; 'I' for Inactive)
REMARK    1  A    between atoms: C5_5  and  N6_21 
REMARK    2  A    between atoms: C18_14  and  N17_19 
ROOT
HETATM    1  O1  MIQ B 502     -18.805  -6.453 -18.264  1.00142.91    -0.171 OA
HETATM    2  C2  MIQ B 502     -18.403  -7.431 -19.177  1.00141.17     0.195 A 
HETATM    3  C3  MIQ B 502     -19.344  -8.372 -19.994  1.00141.71     0.035 A 
HETATM    4  C4  MIQ B 502     -20.816  -8.525 -20.070  1.00142.86     0.046 A 
HETATM    5  C5  MIQ B 502     -21.393  -9.494 -20.930  1.00139.53     0.031 A 
HETATM    6  C12 MIQ B 502     -20.533 -10.341 -21.743  1.00139.38     0.030 A 
HETATM    7  C13 MIQ B 502     -19.121 -10.194 -21.671  1.00141.18     0.019 A 
HETATM    8  C14 MIQ B 502     -18.522  -9.174 -20.768  1.00138.77     0.033 A 
HETATM    9  C15 MIQ B 502     -17.062  -8.728 -20.430  1.00142.10     0.195 A 
HETATM   10  N17 MIQ B 502     -17.174  -7.757 -19.539  1.00139.42    -0.288 N 
HETATM   11  O16 MIQ B 502     -15.883  -9.253 -20.962  1.00148.93    -0.171 OA
ENDROOT
BRANCH  10  12
HETATM   12  C18 MIQ B 502     -16.006  -7.105 -18.977  1.00139.82     0.187 C 
HETATM   13  C19 MIQ B 502     -15.194  -6.519 -20.139  1.00140.06     0.247 C 
HETATM   14  O25 MIQ B 502     -15.737  -5.839 -20.936  1.00143.95    -0.271 OA
HETATM   15  N20 MIQ B 502     -13.775  -6.771 -20.283  1.00140.02    -0.296 N 
HETATM   16  H13 MIQ B 502     -13.258  -6.388 -21.050  1.00142.77     0.171 HD
HETATM   17  C21 MIQ B 502     -13.136  -7.612 -19.304  1.00142.22     0.224 C 
HETATM   18  C22 MIQ B 502     -13.972  -8.736 -18.722  1.00139.52     0.106 C 
HETATM   19  O24 MIQ B 502     -12.018  -7.430 -18.969  1.00146.13    -0.273 OA
HETATM   20  C23 MIQ B 502     -15.207  -8.088 -18.123  1.00139.15     0.045 C 
ENDBRANCH  10  12
BRANCH   5  21
HETATM   21  N6  MIQ B 502     -22.836  -9.643 -20.984  1.00140.95    -0.377 N 
HETATM   22  C7  MIQ B 502     -23.607  -8.669 -21.737  1.00142.12     0.149 C 
HETATM   23  C8  MIQ B 502     -25.031  -8.541 -21.210  1.00144.10     0.187 C 
HETATM   24  O9  MIQ B 502     -25.653  -9.776 -21.019  1.00148.65    -0.388 OA
HETATM   25  C10 MIQ B 502     -24.914 -10.960 -21.096  1.00147.44     0.187 C 
HETATM   26  C11 MIQ B 502     -23.444 -10.929 -20.693  1.00144.08     0.149 C 
ENDBRANCH   5  21
TORSDOF 2
ENDMDL
MODEL 7
REMARK VINA RESULT:      -6.3      1.751      2.195
REMARK  2 active torsions:
REMARK  status: ('A' for Active; 'I' for Inactive)
REMARK    1  A    between atoms: C5_5  and  N6_21 
REMARK    2  A    between atoms: C18_14  and  N17_19 
ROOT
HETATM    1  O1  MIQ B 502     -16.339  -9.086 -20.926  1.00142.91    -0.171 OA
HETATM    2  C2  MIQ B 502     -17.442  -8.520 -20.283  1.00141.17     0.195 A 
HETATM    3  C3  MIQ B 502     -18.935  -8.934 -20.478  1.00141.71     0.035 A 
HETATM    4  C4  MIQ B 502     -19.609  -9.955 -21.316  1.00142.86     0.046 A 
HETATM    5  C5  MIQ B 502     -21.019 -10.098 -21.276  1.00139.53     0.031 A 
HETATM    6  C12 MIQ B 502     -21.808  -9.238 -20.406  1.00139.38     0.030 A 
HETATM    7  C13 MIQ B 502     -21.163  -8.261 -19.601  1.00141.18     0.019 A 
HETATM    8  C14 MIQ B 502     -19.682  -8.116 -19.646  1.00138.77     0.033 A 
HETATM    9  C15 MIQ B 502     -18.646  -7.189 -18.929  1.00142.10     0.195 A 
HETATM   10  N17 MIQ B 502     -17.458  -7.544 -19.391  1.00139.42    -0.288 N 
HETATM   11  O16 MIQ B 502     -18.924  -6.190 -17.995  1.00148.93    -0.171 OA
ENDROOT
BRANCH  10  12
HETATM   12  C18 MIQ B 502     -16.246  -6.878 -18.953  1.00139.82     0.187 C 
HETATM   13  C19 MIQ B 502     -15.498  -6.399 -20.203  1.00140.06     0.247 C 
HETATM   14  O25 MIQ B 502     -16.078  -5.769 -21.015  1.00143.95    -0.271 OA
HETATM   15  N20 MIQ B 502     -14.095  -6.692 -20.414  1.00140.02    -0.296 N 
HETATM   16  H13 MIQ B 502     -13.620  -6.379 -21.237  1.00142.77     0.171 HD
HETATM   17  C21 MIQ B 502     -13.412  -7.472 -19.414  1.00142.22     0.224 C 
HETATM   18  C22 MIQ B 502     -14.229  -8.530 -18.699  1.00139.52     0.106 C 
HETATM   19  O24 MIQ B 502     -12.272  -7.290 -19.162  1.00146.13    -0.273 OA
HETATM   20  C23 MIQ B 502     -15.413  -7.812 -18.076  1.00139.15     0.045 C 
ENDBRANCH  10  12
BRANCH   5  21
HETATM   21  N6  MIQ B 502     -21.666 -11.092 -22.113  1.00140.95    -0.377 N 
HETATM   22  C7  MIQ B 502     -22.832 -10.697 -22.883  1.00142.12     0.149 C 
HETATM   23  C8  MIQ B 502     -23.752 -11.877 -23.168  1.00144.10     0.187 C 
HETATM   24  O9  MIQ B 502     -23.069 -12.995 -23.650  1.00148.65    -0.388 OA
HETATM   25  C10 MIQ B 502     -21.672 -13.036 -23.625  1.00147.44     0.187 C 
HETATM   26  C11 MIQ B 502     -20.941 -12.283 -22.519  1.00144.08     0.149 C 
ENDBRANCH   5  21
TORSDOF 2
ENDMDL
MODEL 8
REMARK VINA RESULT:      -6.3     25.049     27.949
REMARK  2 active torsions:
REMARK  status: ('A' for Active; 'I' for Inactive)
REMARK    1  A    between atoms: C5_5  and  N6_21 
REMARK    2  A    between atoms: C18_14  and  N17_19 
ROOT
HETATM    1  O1  MIQ B 502     -13.881   7.935   0.304  1.00142.91    -0.171 OA
HETATM    2  C2  MIQ B 502     -14.268   8.890  -0.638  1.00141.17     0.195 A 
HETATM    3  C3  MIQ B 502     -14.171  10.441  -0.474  1.00141.71     0.035 A 
HETATM    4  C4  MIQ B 502     -13.688  11.321   0.616  1.00142.86     0.046 A 
HETATM    5  C5  MIQ B 502     -13.726  12.731   0.469  1.00139.53     0.031 A 
HETATM    6  C12 MIQ B 502     -14.243  13.315  -0.761  1.00139.38     0.030 A 
HETATM    7  C13 MIQ B 502     -14.706  12.471  -1.806  1.00141.18     0.019 A 
HETATM    8  C14 MIQ B 502     -14.661  10.992  -1.647  1.00138.77     0.033 A 
HETATM    9  C15 MIQ B 502     -15.063   9.777  -2.545  1.00142.10     0.195 A 
HETATM   10  N17 MIQ B 502     -14.779   8.693  -1.842  1.00139.42    -0.288 N 
HETATM   11  O16 MIQ B 502     -15.612   9.831  -3.827  1.00148.93    -0.171 OA
ENDROOT
BRANCH  10  12
HETATM   12  C18 MIQ B 502     -15.039   7.363  -2.361  1.00139.82     0.187 C 
HETATM   13  C19 MIQ B 502     -15.952   6.641  -1.363  1.00140.06     0.247 C 
HETATM   14  O25 MIQ B 502     -16.940   7.172  -0.999  1.00143.95    -0.271 OA
HETATM   15  N20 MIQ B 502     -15.638   5.320  -0.859  1.00140.02    -0.296 N 
HETATM   16  H13 MIQ B 502     -16.239   4.862  -0.202  1.00142.77     0.171 HD
HETATM   17  C21 MIQ B 502     -14.421   4.697  -1.311  1.00142.22     0.224 C 
HETATM   18  C22 MIQ B 502     -13.247   5.616  -1.589  1.00139.52     0.106 C 
HETATM   19  O24 MIQ B 502     -14.344   3.527  -1.462  1.00146.13    -0.273 OA
HETATM   20  C23 MIQ B 502     -13.725   6.626  -2.616  1.00139.15     0.045 C 
ENDBRANCH  10  12
BRANCH   5  21
HETATM   21  N6  MIQ B 502     -13.263  13.582   1.550  1.00140.95    -0.377 N 
HETATM   22  C7  MIQ B 502     -12.339  14.658   1.239  1.00142.12     0.149 C 
HETATM   23  C8  MIQ B 502     -11.469  15.024   2.435  1.00144.10     0.187 C 
HETATM   24  O9  MIQ B 502     -12.204  15.189   3.611  1.00148.65    -0.388 OA
HETATM   25  C10 MIQ B 502     -13.548  14.813   3.664  1.00147.44     0.187 C 
HETATM   26  C11 MIQ B 502     -14.017  13.655   2.789  1.00144.08     0.149 C 
ENDBRANCH   5  21
TORSDOF 2
ENDMDL
MODEL 9
REMARK VINA RESULT:      -6.2      2.286      8.402
REMARK  2 active torsions:
REMARK  status: ('A' for Active; 'I' for Inactive)
REMARK    1  A    between atoms: C5_5  and  N6_21 
REMARK    2  A    between atoms: C18_14  and  N17_19 
ROOT
HETATM    1  O1  MIQ B 502     -21.577  -9.284 -19.912  1.00142.91    -0.171 OA
HETATM    2  C2  MIQ B 502     -21.231  -8.802 -21.176  1.00141.17     0.195 A 
HETATM    3  C3  MIQ B 502     -19.841  -8.227 -21.596  1.00141.71     0.035 A 
HETATM    4  C4  MIQ B 502     -18.562  -8.025 -20.874  1.00142.86     0.046 A 
HETATM    5  C5  MIQ B 502     -17.443  -7.467 -21.542  1.00139.53     0.031 A 
HETATM    6  C12 MIQ B 502     -17.551  -7.092 -22.944  1.00139.38     0.030 A 
HETATM    7  C13 MIQ B 502     -18.777  -7.286 -23.637  1.00141.18     0.019 A 
HETATM    8  C14 MIQ B 502     -19.948  -7.875 -22.931  1.00138.77     0.033 A 
HETATM    9  C15 MIQ B 502     -21.413  -8.234 -23.343  1.00142.10     0.195 A 
HETATM   10  N17 MIQ B 502     -21.984  -8.736 -22.261  1.00139.42    -0.288 N 
HETATM   11  O16 MIQ B 502     -21.996  -8.055 -24.599  1.00148.93    -0.171 OA
ENDROOT
BRANCH  10  12
HETATM   12  C18 MIQ B 502     -23.369  -9.170 -22.268  1.00139.82     0.187 C 
HETATM   13  C19 MIQ B 502     -24.065  -8.530 -21.061  1.00140.06     0.247 C 
HETATM   14  O25 MIQ B 502     -23.969  -7.366 -20.890  1.00143.95    -0.271 OA
HETATM   15  N20 MIQ B 502     -24.844  -9.313 -20.124  1.00140.02    -0.296 N 
HETATM   16  H13 MIQ B 502     -25.288  -8.884 -19.336  1.00142.77     0.171 HD
HETATM   17  C21 MIQ B 502     -24.938 -10.733 -20.347  1.00142.22     0.224 C 
HETATM   18  C22 MIQ B 502     -23.726 -11.409 -20.957  1.00139.52     0.106 C 
HETATM   19  O24 MIQ B 502     -25.916 -11.338 -20.072  1.00146.13    -0.273 OA
HETATM   20  C23 MIQ B 502     -23.448 -10.696 -22.268  1.00139.15     0.045 C 
ENDBRANCH  10  12
BRANCH   5  21
HETATM   21  N6  MIQ B 502     -16.201  -7.261 -20.819  1.00140.95    -0.377 N 
HETATM   22  C7  MIQ B 502     -15.747  -5.900 -20.592  1.00142.12     0.149 C 
HETATM   23  C8  MIQ B 502     -14.234  -5.823 -20.438  1.00144.10     0.187 C 
HETATM   24  O9  MIQ B 502     -13.729  -6.776 -19.551  1.00148.65    -0.388 OA
HETATM   25  C10 MIQ B 502     -14.547  -7.805 -19.077  1.00147.44     0.187 C 
HETATM   26  C11 MIQ B 502     -15.670  -8.316 -19.974  1.00144.08     0.149 C 
ENDBRANCH   5  21
TORSDOF 2
ENDMDL
