MODEL 1
REMARK VINA RESULT:      -8.0      0.000      0.000
REMARK  2 active torsions:
REMARK  status: ('A' for Active; 'I' for Inactive)
REMARK    1  A    between atoms: C5_5  and  N6_21 
REMARK    2  A    between atoms: C18_14  and  N17_19 
ROOT
HETATM    1  O1  MIQ B 502       7.093  16.160  -6.692  1.00142.91    -0.171 OA
HETATM    2  C2  MIQ B 502       6.720  16.400  -8.017  1.00141.17     0.195 A 
HETATM    3  C3  MIQ B 502       7.614  17.044  -9.124  1.00141.71     0.035 A 
HETATM    4  C4  MIQ B 502       9.005  17.556  -9.141  1.00142.86     0.046 A 
HETATM    5  C5  MIQ B 502       9.556  18.096 -10.330  1.00139.53     0.031 A 
HETATM    6  C12 MIQ B 502       8.750  18.146 -11.542  1.00139.38     0.030 A 
HETATM    7  C13 MIQ B 502       7.417  17.654 -11.527  1.00141.18     0.019 A 
HETATM    8  C14 MIQ B 502       6.845  17.086 -10.275  1.00138.77     0.033 A 
HETATM    9  C15 MIQ B 502       5.465  16.464  -9.881  1.00142.10     0.195 A 
HETATM   10  N17 MIQ B 502       5.565  16.136  -8.603  1.00139.42    -0.288 N 
HETATM   11  O16 MIQ B 502       4.357  16.295 -10.711  1.00148.93    -0.171 OA
ENDROOT
BRANCH  10  12
HETATM   12  C18 MIQ B 502       4.454  15.539  -7.886  1.00139.82     0.187 C 
HETATM   13  C19 MIQ B 502       3.914  14.384  -8.738  1.00140.06     0.247 C 
HETATM   14  O25 MIQ B 502       4.663  13.570  -9.145  1.00143.95    -0.271 OA
HETATM   15  N20 MIQ B 502       2.505  14.261  -9.052  1.00140.02    -0.296 N 
HETATM   16  H13 MIQ B 502       2.166  13.506  -9.615  1.00142.77     0.171 HD
HETATM   17  C21 MIQ B 502       1.611  15.274  -8.552  1.00142.22     0.224 C 
HETATM   18  C22 MIQ B 502       2.166  16.681  -8.449  1.00139.52     0.106 C 
HETATM   19  O24 MIQ B 502       0.503  15.017  -8.233  1.00146.13    -0.273 OA
HETATM   20  C23 MIQ B 502       3.398  16.596  -7.566  1.00139.15     0.045 C 
ENDBRANCH  10  12
BRANCH   5  21
HETATM   21  N6  MIQ B 502      10.914  18.608 -10.328  1.00140.95    -0.377 N 
HETATM   22  C7  MIQ B 502      11.729  18.421 -11.517  1.00142.12     0.149 C 
HETATM   23  C8  MIQ B 502      13.216  18.393 -11.188  1.00144.10     0.187 C 
HETATM   24  O9  MIQ B 502      13.608  19.443 -10.355  1.00148.65    -0.388 OA
HETATM   25  C10 MIQ B 502      12.650  20.252  -9.738  1.00147.44     0.187 C 
HETATM   26  C11 MIQ B 502      11.298  19.642  -9.384  1.00144.08     0.149 C 
ENDBRANCH   5  21
TORSDOF 2
ENDMDL
MODEL 2
REMARK VINA RESULT:      -7.1      3.490      8.524
REMARK  2 active torsions:
REMARK  status: ('A' for Active; 'I' for Inactive)
REMARK    1  A    between atoms: C5_5  and  N6_21 
REMARK    2  A    between atoms: C18_14  and  N17_19 
ROOT
HETATM    1  O1  MIQ B 502       5.616  18.600  -7.943  1.00142.91    -0.171 OA
HETATM    2  C2  MIQ B 502       4.685  17.560  -8.001  1.00141.17     0.195 A 
HETATM    3  C3  MIQ B 502       3.197  17.626  -7.531  1.00141.71     0.035 A 
HETATM    4  C4  MIQ B 502       2.364  18.696  -6.934  1.00142.86     0.046 A 
HETATM    5  C5  MIQ B 502       1.007  18.449  -6.606  1.00139.53     0.031 A 
HETATM    6  C12 MIQ B 502       0.430  17.137  -6.859  1.00139.38     0.030 A 
HETATM    7  C13 MIQ B 502       1.228  16.111  -7.432  1.00141.18     0.019 A 
HETATM    8  C14 MIQ B 502       2.652  16.376  -7.777  1.00138.77     0.033 A 
HETATM    9  C15 MIQ B 502       3.807  15.530  -8.403  1.00142.10     0.195 A 
HETATM   10  N17 MIQ B 502       4.858  16.332  -8.460  1.00139.42    -0.288 N 
HETATM   11  O16 MIQ B 502       3.739  14.198  -8.815  1.00148.93    -0.171 OA
ENDROOT
BRANCH  10  12
HETATM   12  C18 MIQ B 502       6.133  15.874  -8.979  1.00139.82     0.187 C 
HETATM   13  C19 MIQ B 502       7.202  16.168  -7.919  1.00140.06     0.247 C 
HETATM   14  O25 MIQ B 502       7.026  15.813  -6.808  1.00143.95    -0.271 OA
HETATM   15  N20 MIQ B 502       8.429  16.867  -8.245  1.00140.02    -0.296 N 
HETATM   16  H13 MIQ B 502       9.116  17.059  -7.543  1.00142.77     0.171 HD
HETATM   17  C21 MIQ B 502       8.617  17.300  -9.606  1.00142.22     0.224 C 
HETATM   18  C22 MIQ B 502       7.373  17.716 -10.367  1.00139.52     0.106 C 
HETATM   19  O24 MIQ B 502       9.688  17.324 -10.104  1.00146.13    -0.273 OA
HETATM   20  C23 MIQ B 502       6.426  16.530 -10.327  1.00139.15     0.045 C 
ENDBRANCH  10  12
BRANCH   5  21
HETATM   21  N6  MIQ B 502       0.207  19.503  -6.008  1.00140.95    -0.377 N 
HETATM   22  C7  MIQ B 502      -1.089  19.805  -6.590  1.00142.12     0.149 C 
HETATM   23  C8  MIQ B 502      -1.506  21.248  -6.332  1.00144.10     0.187 C 
HETATM   24  O9  MIQ B 502      -1.347  21.629  -4.998  1.00148.65    -0.388 OA
HETATM   25  C10 MIQ B 502      -0.656  20.806  -4.105  1.00147.44     0.187 C 
HETATM   26  C11 MIQ B 502       0.467  19.925  -4.643  1.00144.08     0.149 C 
ENDBRANCH   5  21
TORSDOF 2
ENDMDL
MODEL 3
REMARK VINA RESULT:      -7.1      2.927      8.532
REMARK  2 active torsions:
REMARK  status: ('A' for Active; 'I' for Inactive)
REMARK    1  A    between atoms: C5_5  and  N6_21 
REMARK    2  A    between atoms: C18_14  and  N17_19 
ROOT
HETATM    1  O1  MIQ B 502       5.746  19.006  -8.438  1.00142.91    -0.171 OA
HETATM    2  C2  MIQ B 502       5.079  17.795  -8.632  1.00141.17     0.195 A 
HETATM    3  C3  MIQ B 502       3.583  17.502  -8.294  1.00141.71     0.035 A 
HETATM    4  C4  MIQ B 502       2.488  18.320  -7.720  1.00142.86     0.046 A 
HETATM    5  C5  MIQ B 502       1.200  17.761  -7.528  1.00139.53     0.031 A 
HETATM    6  C12 MIQ B 502       0.952  16.374  -7.897  1.00139.38     0.030 A 
HETATM    7  C13 MIQ B 502       2.001  15.589  -8.447  1.00141.18     0.019 A 
HETATM    8  C14 MIQ B 502       3.351  16.183  -8.649  1.00138.77     0.033 A 
HETATM    9  C15 MIQ B 502       4.711  15.655  -9.212  1.00142.10     0.195 A 
HETATM   10  N17 MIQ B 502       5.557  16.669  -9.134  1.00139.42    -0.288 N 
HETATM   11  O16 MIQ B 502       4.974  14.372  -9.694  1.00148.93    -0.171 OA
ENDROOT
BRANCH  10  12
HETATM   12  C18 MIQ B 502       6.938  16.537  -9.559  1.00139.82     0.187 C 
HETATM   13  C19 MIQ B 502       7.831  16.948  -8.382  1.00140.06     0.247 C 
HETATM   14  O25 MIQ B 502       7.647  16.461  -7.323  1.00143.95    -0.271 OA
HETATM   15  N20 MIQ B 502       8.899  17.914  -8.534  1.00140.02    -0.296 N 
HETATM   16  H13 MIQ B 502       9.470  18.179  -7.756  1.00142.77     0.171 HD
HETATM   17  C21 MIQ B 502       9.096  18.503  -9.834  1.00142.22     0.224 C 
HETATM   18  C22 MIQ B 502       7.855  18.720 -10.678  1.00139.52     0.106 C 
HETATM   19  O24 MIQ B 502      10.173  18.796 -10.222  1.00146.13    -0.273 OA
HETATM   20  C23 MIQ B 502       7.187  17.364 -10.820  1.00139.15     0.045 C 
ENDBRANCH  10  12
BRANCH   5  21
HETATM   21  N6  MIQ B 502       0.141  18.570  -6.952  1.00140.95    -0.377 N 
HETATM   22  C7  MIQ B 502      -0.978  18.952  -7.795  1.00142.12     0.149 C 
HETATM   23  C8  MIQ B 502      -1.629  20.246  -7.325  1.00144.10     0.187 C 
HETATM   24  O9  MIQ B 502      -1.884  20.259  -5.953  1.00148.65    -0.388 OA
HETATM   25  C10 MIQ B 502      -1.360  19.262  -5.126  1.00147.44     0.187 C 
HETATM   26  C11 MIQ B 502      -0.031  18.619  -5.511  1.00144.08     0.149 C 
ENDBRANCH   5  21
TORSDOF 2
ENDMDL
MODEL 4
REMARK VINA RESULT:      -6.9      2.147      8.378
REMARK  2 active torsions:
REMARK  status: ('A' for Active; 'I' for Inactive)
REMARK    1  A    between atoms: C5_5  and  N6_21 
REMARK    2  A    between atoms: C18_14  and  N17_19 
ROOT
HETATM    1  O1  MIQ B 502       9.848  18.117 -11.490  1.00142.91    -0.171 OA
HETATM    2  C2  MIQ B 502       9.282  18.378 -10.240  1.00141.17     0.195 A 
HETATM    3  C3  MIQ B 502       8.010  17.696  -9.643  1.00141.71     0.035 A 
HETATM    4  C4  MIQ B 502       7.082  16.655 -10.144  1.00142.86     0.046 A 
HETATM    5  C5  MIQ B 502       5.988  16.228  -9.349  1.00139.53     0.031 A 
HETATM    6  C12 MIQ B 502       5.777  16.815  -8.034  1.00139.38     0.030 A 
HETATM    7  C13 MIQ B 502       6.668  17.813  -7.553  1.00141.18     0.019 A 
HETATM    8  C14 MIQ B 502       7.816  18.255  -8.391  1.00138.77     0.033 A 
HETATM    9  C15 MIQ B 502       8.973  19.291  -8.209  1.00142.10     0.195 A 
HETATM   10  N17 MIQ B 502       9.693  19.232  -9.318  1.00139.42    -0.288 N 
HETATM   11  O16 MIQ B 502       9.196  20.110  -7.102  1.00148.93    -0.171 OA
ENDROOT
BRANCH  10  12
HETATM   12  C18 MIQ B 502      10.855  20.078  -9.512  1.00139.82     0.187 C 
HETATM   13  C19 MIQ B 502      10.711  20.766 -10.876  1.00140.06     0.247 C 
HETATM   14  O25 MIQ B 502       9.708  21.331 -11.132  1.00143.95    -0.271 OA
HETATM   15  N20 MIQ B 502      11.776  20.747 -11.857  1.00140.02    -0.296 N 
HETATM   16  H13 MIQ B 502      11.667  21.194 -12.746  1.00142.77     0.171 HD
HETATM   17  C21 MIQ B 502      12.987  20.042 -11.525  1.00142.22     0.224 C 
HETATM   18  C22 MIQ B 502      12.841  18.808 -10.655  1.00139.52     0.106 C 
HETATM   19  O24 MIQ B 502      14.042  20.411 -11.908  1.00146.13    -0.273 OA
HETATM   20  C23 MIQ B 502      12.138  19.257  -9.386  1.00139.15     0.045 C 
ENDBRANCH  10  12
BRANCH   5  21
HETATM   21  N6  MIQ B 502       5.078  15.218  -9.859  1.00140.95    -0.377 N 
HETATM   22  C7  MIQ B 502       5.135  14.880 -11.270  1.00142.12     0.149 C 
HETATM   23  C8  MIQ B 502       3.801  14.354 -11.784  1.00144.10     0.187 C 
HETATM   24  O9  MIQ B 502       3.249  13.373 -10.957  1.00148.65    -0.388 OA
HETATM   25  C10 MIQ B 502       3.795  13.121  -9.696  1.00147.44     0.187 C 
HETATM   26  C11 MIQ B 502       4.461  14.271  -8.946  1.00144.08     0.149 C 
ENDBRANCH   5  21
TORSDOF 2
ENDMDL
MODEL 5
REMARK VINA RESULT:      -6.8      4.618      7.836
REMARK  2 active torsions:
REMARK  status: ('A' for Active; 'I' for Inactive)
REMARK    1  A    between atoms: C5_5  and  N6_21 
REMARK    2  A    between atoms: C18_14  and  N17_19 
ROOT
HETATM    1  O1  MIQ B 502       1.794  14.617  -9.280  1.00142.91    -0.171 OA
HETATM    2  C2  MIQ B 502       2.933  15.310  -8.862  1.00141.17     0.195 A 
HETATM    3  C3  MIQ B 502       2.965  16.528  -7.885  1.00141.71     0.035 A 
HETATM    4  C4  MIQ B 502       1.915  17.273  -7.151  1.00142.86     0.046 A 
HETATM    5  C5  MIQ B 502       2.263  18.364  -6.314  1.00139.53     0.031 A 
HETATM    6  C12 MIQ B 502       3.659  18.752  -6.176  1.00139.38     0.030 A 
HETATM    7  C13 MIQ B 502       4.666  18.037  -6.879  1.00141.18     0.019 A 
HETATM    8  C14 MIQ B 502       4.295  16.891  -7.754  1.00138.77     0.033 A 
HETATM    9  C15 MIQ B 502       5.093  15.893  -8.655  1.00142.10     0.195 A 
HETATM   10  N17 MIQ B 502       4.193  15.086  -9.192  1.00139.42    -0.288 N 
HETATM   11  O16 MIQ B 502       6.475  15.865  -8.851  1.00148.93    -0.171 OA
ENDROOT
BRANCH  10  12
HETATM   12  C18 MIQ B 502       4.575  14.029 -10.109  1.00139.82     0.187 C 
HETATM   13  C19 MIQ B 502       4.077  14.418 -11.506  1.00140.06     0.247 C 
HETATM   14  O25 MIQ B 502       4.337  15.486 -11.933  1.00143.95    -0.271 OA
HETATM   15  N20 MIQ B 502       3.299  13.507 -12.321  1.00140.02    -0.296 N 
HETATM   16  H13 MIQ B 502       2.974  13.776 -13.228  1.00142.77     0.171 HD
HETATM   17  C21 MIQ B 502       2.986  12.212 -11.773  1.00142.22     0.224 C 
HETATM   18  C22 MIQ B 502       2.768  12.141 -10.274  1.00139.52     0.106 C 
HETATM   19  O24 MIQ B 502       2.908  11.254 -12.460  1.00146.13    -0.273 OA
HETATM   20  C23 MIQ B 502       4.029  12.685  -9.628  1.00139.15     0.045 C 
ENDBRANCH  10  12
BRANCH   5  21
HETATM   21  N6  MIQ B 502       1.223  19.095  -5.613  1.00140.95    -0.377 N 
HETATM   22  C7  MIQ B 502       1.405  20.519  -5.390  1.00142.12     0.149 C 
HETATM   23  C8  MIQ B 502       0.643  21.003  -4.163  1.00144.10     0.187 C 
HETATM   24  O9  MIQ B 502      -0.680  20.559  -4.133  1.00148.65    -0.388 OA
HETATM   25  C10 MIQ B 502      -1.120  19.587  -5.036  1.00147.44     0.187 C 
HETATM   26  C11 MIQ B 502      -0.121  18.549  -5.535  1.00144.08     0.149 C 
ENDBRANCH   5  21
TORSDOF 2
ENDMDL
MODEL 6
REMARK VINA RESULT:      -6.8      1.902      8.550
REMARK  2 active torsions:
REMARK  status: ('A' for Active; 'I' for Inactive)
REMARK    1  A    between atoms: C5_5  and  N6_21 
REMARK    2  A    between atoms: C18_14  and  N17_19 
ROOT
HETATM    1  O1  MIQ B 502       9.543  19.426  -7.597  1.00142.91    -0.171 OA
HETATM    2  C2  MIQ B 502       9.354  19.025  -8.922  1.00141.17     0.195 A 
HETATM    3  C3  MIQ B 502       8.119  18.252  -9.484  1.00141.71     0.035 A 
HETATM    4  C4  MIQ B 502       6.870  17.742  -8.870  1.00142.86     0.046 A 
HETATM    5  C5  MIQ B 502       5.910  17.060  -9.660  1.00139.53     0.031 A 
HETATM    6  C12 MIQ B 502       6.153  16.862 -11.082  1.00139.38     0.030 A 
HETATM    7  C13 MIQ B 502       7.350  17.351 -11.671  1.00141.18     0.019 A 
HETATM    8  C14 MIQ B 502       8.353  18.068 -10.837  1.00138.77     0.033 A 
HETATM    9  C15 MIQ B 502       9.741  18.732 -11.117  1.00142.10     0.195 A 
HETATM   10  N17 MIQ B 502      10.155  19.215  -9.957  1.00139.42    -0.288 N 
HETATM   11  O16 MIQ B 502      10.405  18.798 -12.343  1.00148.93    -0.171 OA
ENDROOT
BRANCH  10  12
HETATM   12  C18 MIQ B 502      11.431  19.895  -9.831  1.00139.82     0.187 C 
HETATM   13  C19 MIQ B 502      11.487  20.986 -10.907  1.00140.06     0.247 C 
HETATM   14  O25 MIQ B 502      10.590  21.747 -11.003  1.00143.95    -0.271 OA
HETATM   15  N20 MIQ B 502      12.615  21.114 -11.807  1.00140.02    -0.296 N 
HETATM   16  H13 MIQ B 502      12.637  21.827 -12.509  1.00142.77     0.171 HD
HETATM   17  C21 MIQ B 502      13.692  20.167 -11.677  1.00142.22     0.224 C 
HETATM   18  C22 MIQ B 502      13.316  18.761 -11.252  1.00139.52     0.106 C 
HETATM   19  O24 MIQ B 502      14.814  20.475 -11.886  1.00146.13    -0.273 OA
HETATM   20  C23 MIQ B 502      12.579  18.892  -9.931  1.00139.15     0.045 C 
ENDBRANCH  10  12
BRANCH   5  21
HETATM   21  N6  MIQ B 502       4.698  16.553  -9.043  1.00140.95    -0.377 N 
HETATM   22  C7  MIQ B 502       4.347  15.158  -9.244  1.00142.12     0.149 C 
HETATM   23  C8  MIQ B 502       2.846  14.927  -9.131  1.00144.10     0.187 C 
HETATM   24  O9  MIQ B 502       2.288  15.525  -8.000  1.00148.65    -0.388 OA
HETATM   25  C10 MIQ B 502       3.036  16.419  -7.230  1.00147.44     0.187 C 
HETATM   26  C11 MIQ B 502       4.105  17.259  -7.920  1.00144.08     0.149 C 
ENDBRANCH   5  21
TORSDOF 2
ENDMDL
MODEL 7
REMARK VINA RESULT:      -6.7      1.858      2.380
REMARK  2 active torsions:
REMARK  status: ('A' for Active; 'I' for Inactive)
REMARK    1  A    between atoms: C5_5  and  N6_21 
REMARK    2  A    between atoms: C18_14  and  N17_19 
ROOT
HETATM    1  O1  MIQ B 502       6.117  15.069  -9.737  1.00142.91    -0.171 OA
HETATM    2  C2  MIQ B 502       5.857  16.346 -10.241  1.00141.17     0.195 A 
HETATM    3  C3  MIQ B 502       6.897  17.499 -10.412  1.00141.71     0.035 A 
HETATM    4  C4  MIQ B 502       8.348  17.612 -10.133  1.00142.86     0.046 A 
HETATM    5  C5  MIQ B 502       9.037  18.821 -10.402  1.00139.53     0.031 A 
HETATM    6  C12 MIQ B 502       8.315  19.957 -10.957  1.00139.38     0.030 A 
HETATM    7  C13 MIQ B 502       6.924  19.848 -11.226  1.00141.18     0.019 A 
HETATM    8  C14 MIQ B 502       6.206  18.576 -10.943  1.00138.77     0.033 A 
HETATM    9  C15 MIQ B 502       4.729  18.088 -11.103  1.00142.10     0.195 A 
HETATM   10  N17 MIQ B 502       4.708  16.837 -10.673  1.00139.42    -0.288 N 
HETATM   11  O16 MIQ B 502       3.653  18.828 -11.598  1.00148.93    -0.171 OA
ENDROOT
BRANCH  10  12
HETATM   12  C18 MIQ B 502       3.482  16.061 -10.659  1.00139.82     0.187 C 
HETATM   13  C19 MIQ B 502       3.390  15.357  -9.300  1.00140.06     0.247 C 
HETATM   14  O25 MIQ B 502       3.522  15.989  -8.313  1.00143.95    -0.271 OA
HETATM   15  N20 MIQ B 502       3.140  13.934  -9.193  1.00140.02    -0.296 N 
HETATM   16  H13 MIQ B 502       3.088  13.485  -8.300  1.00142.77     0.171 HD
HETATM   17  C21 MIQ B 502       2.993  13.181 -10.412  1.00142.22     0.224 C 
HETATM   18  C22 MIQ B 502       3.817  13.640 -11.599  1.00139.52     0.106 C 
HETATM   19  O24 MIQ B 502       2.262  12.255 -10.482  1.00146.13    -0.273 OA
HETATM   20  C23 MIQ B 502       3.453  15.093 -11.841  1.00139.15     0.045 C 
ENDBRANCH  10  12
BRANCH   5  21
HETATM   21  N6  MIQ B 502      10.456  18.923 -10.110  1.00140.95    -0.377 N 
HETATM   22  C7  MIQ B 502      11.406  18.534 -11.137  1.00142.12     0.149 C 
HETATM   23  C8  MIQ B 502      12.731  18.076 -10.542  1.00144.10     0.187 C 
HETATM   24  O9  MIQ B 502      13.224  18.953  -9.574  1.00148.65    -0.388 OA
HETATM   25  C10 MIQ B 502      12.425  19.990  -9.086  1.00147.44     0.187 C 
HETATM   26  C11 MIQ B 502      10.915  19.785  -9.035  1.00144.08     0.149 C 
ENDBRANCH   5  21
TORSDOF 2
ENDMDL
MODEL 8
REMARK VINA RESULT:      -6.6      1.385      1.504
REMARK  2 active torsions:
REMARK  status: ('A' for Active; 'I' for Inactive)
REMARK    1  A    between atoms: C5_5  and  N6_21 
REMARK    2  A    between atoms: C18_14  and  N17_19 
ROOT
HETATM    1  O1  MIQ B 502       6.944  19.007  -7.153  1.00142.91    -0.171 OA
HETATM    2  C2  MIQ B 502       6.839  18.322  -8.366  1.00141.17     0.195 A 
HETATM    3  C3  MIQ B 502       7.893  18.321  -9.518  1.00141.71     0.035 A 
HETATM    4  C4  MIQ B 502       9.213  18.971  -9.692  1.00142.86     0.046 A 
HETATM    5  C5  MIQ B 502       9.957  18.775 -10.883  1.00139.53     0.031 A 
HETATM    6  C12 MIQ B 502       9.420  17.929 -11.940  1.00139.38     0.030 A 
HETATM    7  C13 MIQ B 502       8.155  17.304 -11.772  1.00141.18     0.019 A 
HETATM    8  C14 MIQ B 502       7.379  17.512 -10.519  1.00138.77     0.033 A 
HETATM    9  C15 MIQ B 502       5.999  17.008  -9.984  1.00142.10     0.195 A 
HETATM   10  N17 MIQ B 502       5.855  17.544  -8.784  1.00139.42    -0.288 N 
HETATM   11  O16 MIQ B 502       5.104  16.165 -10.645  1.00148.93    -0.171 OA
ENDROOT
BRANCH  10  12
HETATM   12  C18 MIQ B 502       4.667  17.305  -7.986  1.00139.82     0.187 C 
HETATM   13  C19 MIQ B 502       4.528  15.789  -7.796  1.00140.06     0.247 C 
HETATM   14  O25 MIQ B 502       5.454  15.171  -7.406  1.00143.95    -0.271 OA
HETATM   15  N20 MIQ B 502       3.289  15.095  -8.079  1.00140.02    -0.296 N 
HETATM   16  H13 MIQ B 502       3.213  14.104  -7.958  1.00142.77     0.171 HD
HETATM   17  C21 MIQ B 502       2.177  15.870  -8.564  1.00142.22     0.224 C 
HETATM   18  C22 MIQ B 502       2.508  17.058  -9.447  1.00139.52     0.106 C 
HETATM   19  O24 MIQ B 502       1.062  15.595  -8.283  1.00146.13    -0.273 OA
HETATM   20  C23 MIQ B 502       3.445  17.943  -8.645  1.00139.15     0.045 C 
ENDBRANCH  10  12
BRANCH   5  21
HETATM   21  N6  MIQ B 502      11.242  19.430 -11.046  1.00140.95    -0.377 N 
HETATM   22  C7  MIQ B 502      12.338  18.674 -11.628  1.00142.12     0.149 C 
HETATM   23  C8  MIQ B 502      13.694  19.192 -11.166  1.00144.10     0.187 C 
HETATM   24  O9  MIQ B 502      13.808  20.580 -11.265  1.00148.65    -0.388 OA
HETATM   25  C10 MIQ B 502      12.684  21.365 -11.540  1.00147.44     0.187 C 
HETATM   26  C11 MIQ B 502      11.321  20.880 -11.057  1.00144.08     0.149 C 
ENDBRANCH   5  21
TORSDOF 2
ENDMDL
MODEL 9
REMARK VINA RESULT:      -6.6      1.821      2.464
REMARK  2 active torsions:
REMARK  status: ('A' for Active; 'I' for Inactive)
REMARK    1  A    between atoms: C5_5  and  N6_21 
REMARK    2  A    between atoms: C18_14  and  N17_19 
ROOT
HETATM    1  O1  MIQ B 502       6.072  15.347 -11.185  1.00142.91    -0.171 OA
HETATM    2  C2  MIQ B 502       5.962  16.346 -10.215  1.00141.17     0.195 A 
HETATM    3  C3  MIQ B 502       7.027  17.444  -9.897  1.00141.71     0.035 A 
HETATM    4  C4  MIQ B 502       8.361  17.762 -10.459  1.00142.86     0.046 A 
HETATM    5  C5  MIQ B 502       9.111  18.853  -9.951  1.00139.53     0.031 A 
HETATM    6  C12 MIQ B 502       8.566  19.664  -8.871  1.00139.38     0.030 A 
HETATM    7  C13 MIQ B 502       7.286  19.360  -8.334  1.00141.18     0.019 A 
HETATM    8  C14 MIQ B 502       6.503  18.215  -8.873  1.00138.77     0.033 A 
HETATM    9  C15 MIQ B 502       5.104  17.592  -8.553  1.00142.10     0.195 A 
HETATM   10  N17 MIQ B 502       4.960  16.573  -9.383  1.00139.42    -0.288 N 
HETATM   11  O16 MIQ B 502       4.198  18.027  -7.584  1.00148.93    -0.171 OA
ENDROOT
BRANCH  10  12
HETATM   12  C18 MIQ B 502       3.771  15.741  -9.361  1.00139.82     0.187 C 
HETATM   13  C19 MIQ B 502       4.101  14.476  -8.559  1.00140.06     0.247 C 
HETATM   14  O25 MIQ B 502       4.584  14.582  -7.488  1.00143.95    -0.271 OA
HETATM   15  N20 MIQ B 502       3.830  13.151  -9.078  1.00140.02    -0.296 N 
HETATM   16  H13 MIQ B 502       4.056  12.332  -8.548  1.00142.77     0.171 HD
HETATM   17  C21 MIQ B 502       3.250  13.046 -10.392  1.00142.22     0.224 C 
HETATM   18  C22 MIQ B 502       3.655  14.103 -11.402  1.00139.52     0.106 C 
HETATM   19  O24 MIQ B 502       2.492  12.182 -10.666  1.00146.13    -0.273 OA
HETATM   20  C23 MIQ B 502       3.303  15.445 -10.785  1.00139.15     0.045 C 
ENDBRANCH  10  12
BRANCH   5  21
HETATM   21  N6  MIQ B 502      10.423  19.144 -10.500  1.00140.95    -0.377 N 
HETATM   22  C7  MIQ B 502      11.099  18.112 -11.268  1.00142.12     0.149 C 
HETATM   23  C8  MIQ B 502      12.613  18.269 -11.222  1.00144.10     0.187 C 
HETATM   24  O9  MIQ B 502      13.032  19.576 -11.479  1.00148.65    -0.388 OA
HETATM   25  C10 MIQ B 502      12.104  20.620 -11.529  1.00147.44     0.187 C 
HETATM   26  C11 MIQ B 502      10.849  20.522 -10.669  1.00144.08     0.149 C 
ENDBRANCH   5  21
TORSDOF 2
ENDMDL
