MODEL 1
REMARK VINA RESULT:      -6.6      0.000      0.000
REMARK  2 active torsions:
REMARK  status: ('A' for Active; 'I' for Inactive)
REMARK    1  A    between atoms: C5_5  and  N6_21 
REMARK    2  A    between atoms: C18_14  and  N17_19 
ROOT
HETATM    1  O1  MIQ B 502     -11.774  -3.424  17.088  1.00142.91    -0.171 OA
HETATM    2  C2  MIQ B 502     -11.173  -2.690  18.113  1.00141.17     0.195 A 
HETATM    3  C3  MIQ B 502     -11.878  -2.154  19.399  1.00141.71     0.035 A 
HETATM    4  C4  MIQ B 502     -13.267  -2.238  19.910  1.00142.86     0.046 A 
HETATM    5  C5  MIQ B 502     -13.614  -1.636  21.146  1.00139.53     0.031 A 
HETATM    6  C12 MIQ B 502     -12.599  -0.933  21.917  1.00139.38     0.030 A 
HETATM    7  C13 MIQ B 502     -11.267  -0.853  21.429  1.00141.18     0.019 A 
HETATM    8  C14 MIQ B 502     -10.908  -1.489  20.131  1.00138.77     0.033 A 
HETATM    9  C15 MIQ B 502      -9.593  -1.613  19.295  1.00142.10     0.195 A 
HETATM   10  N17 MIQ B 502      -9.912  -2.306  18.214  1.00139.42    -0.288 N 
HETATM   11  O16 MIQ B 502      -8.340  -1.094  19.625  1.00148.93    -0.171 OA
ENDROOT
BRANCH  10  12
HETATM   12  C18 MIQ B 502      -8.929  -2.605  17.189  1.00139.82     0.187 C 
HETATM   13  C19 MIQ B 502      -7.727  -3.268  17.873  1.00140.06     0.247 C 
HETATM   14  O25 MIQ B 502      -7.908  -4.186  18.591  1.00143.95    -0.271 OA
HETATM   15  N20 MIQ B 502      -6.373  -2.802  17.657  1.00140.02    -0.296 N 
HETATM   16  H13 MIQ B 502      -5.597  -3.239  18.114  1.00142.77     0.171 HD
HETATM   17  C21 MIQ B 502      -6.179  -1.673  16.784  1.00142.22     0.224 C 
HETATM   18  C22 MIQ B 502      -7.271  -0.620  16.779  1.00139.52     0.106 C 
HETATM   19  O24 MIQ B 502      -5.219  -1.577  16.102  1.00146.13    -0.273 OA
HETATM   20  C23 MIQ B 502      -8.560  -1.337  16.420  1.00139.15     0.045 C 
ENDBRANCH  10  12
BRANCH   5  21
HETATM   21  N6  MIQ B 502     -14.981  -1.714  21.627  1.00140.95    -0.377 N 
HETATM   22  C7  MIQ B 502     -16.062  -1.447  20.693  1.00142.12     0.149 C 
HETATM   23  C8  MIQ B 502     -17.310  -0.934  21.399  1.00144.10     0.187 C 
HETATM   24  O9  MIQ B 502     -17.659  -1.701  22.513  1.00148.65    -0.388 OA
HETATM   25  C10 MIQ B 502     -16.783  -2.672  23.006  1.00147.44     0.187 C 
HETATM   26  C11 MIQ B 502     -15.283  -2.453  22.840  1.00144.08     0.149 C 
ENDBRANCH   5  21
TORSDOF 2
ENDMDL
MODEL 2
REMARK VINA RESULT:      -6.5      3.857     10.446
REMARK  2 active torsions:
REMARK  status: ('A' for Active; 'I' for Inactive)
REMARK    1  A    between atoms: C5_5  and  N6_21 
REMARK    2  A    between atoms: C18_14  and  N17_19 
ROOT
HETATM    1  O1  MIQ B 502      -5.955   2.083  16.942  1.00142.91    -0.171 OA
HETATM    2  C2  MIQ B 502      -6.123   0.704  17.079  1.00141.17     0.195 A 
HETATM    3  C3  MIQ B 502      -5.143  -0.400  16.568  1.00141.71     0.035 A 
HETATM    4  C4  MIQ B 502      -3.848  -0.360  15.849  1.00142.86     0.046 A 
HETATM    5  C5  MIQ B 502      -3.176  -1.562  15.514  1.00139.53     0.031 A 
HETATM    6  C12 MIQ B 502      -3.763  -2.844  15.879  1.00139.38     0.030 A 
HETATM    7  C13 MIQ B 502      -5.005  -2.883  16.570  1.00141.18     0.019 A 
HETATM    8  C14 MIQ B 502      -5.704  -1.617  16.921  1.00138.77     0.033 A 
HETATM    9  C15 MIQ B 502      -7.039  -1.266  17.656  1.00142.10     0.195 A 
HETATM   10  N17 MIQ B 502      -7.118   0.054  17.659  1.00139.42    -0.288 N 
HETATM   11  O16 MIQ B 502      -7.959  -2.168  18.194  1.00148.93    -0.171 OA
ENDROOT
BRANCH  10  12
HETATM   12  C18 MIQ B 502      -8.249   0.744  18.252  1.00139.82     0.187 C 
HETATM   13  C19 MIQ B 502      -8.383   0.263  19.702  1.00140.06     0.247 C 
HETATM   14  O25 MIQ B 502      -7.437   0.284  20.405  1.00143.95    -0.271 OA
HETATM   15  N20 MIQ B 502      -9.643  -0.213  20.235  1.00140.02    -0.296 N 
HETATM   16  H13 MIQ B 502      -9.716  -0.530  21.181  1.00142.77     0.171 HD
HETATM   17  C21 MIQ B 502     -10.782  -0.240  19.353  1.00142.22     0.224 C 
HETATM   18  C22 MIQ B 502     -10.505  -0.536  17.892  1.00139.52     0.106 C 
HETATM   19  O24 MIQ B 502     -11.876  -0.035  19.751  1.00146.13    -0.273 OA
HETATM   20  C23 MIQ B 502      -9.509   0.508  17.421  1.00139.15     0.045 C 
ENDBRANCH  10  12
BRANCH   5  21
HETATM   21  N6  MIQ B 502      -1.916  -1.508  14.797  1.00140.95    -0.377 N 
HETATM   22  C7  MIQ B 502      -0.781  -0.864  15.435  1.00142.12     0.149 C 
HETATM   23  C8  MIQ B 502       0.207  -0.311  14.415  1.00144.10     0.187 C 
HETATM   24  O9  MIQ B 502       0.528  -1.232  13.415  1.00148.65    -0.388 OA
HETATM   25  C10 MIQ B 502      -0.194  -2.422  13.291  1.00147.44     0.187 C 
HETATM   26  C11 MIQ B 502      -1.662  -2.432  13.705  1.00144.08     0.149 C 
ENDBRANCH   5  21
TORSDOF 2
ENDMDL
MODEL 3
REMARK VINA RESULT:      -6.5      3.452      9.793
REMARK  2 active torsions:
REMARK  status: ('A' for Active; 'I' for Inactive)
REMARK    1  A    between atoms: C5_5  and  N6_21 
REMARK    2  A    between atoms: C18_14  and  N17_19 
ROOT
HETATM    1  O1  MIQ B 502      -7.930  -2.979  17.495  1.00142.91    -0.171 OA
HETATM    2  C2  MIQ B 502      -7.329  -1.726  17.358  1.00141.17     0.195 A 
HETATM    3  C3  MIQ B 502      -5.986  -1.422  16.621  1.00141.71     0.035 A 
HETATM    4  C4  MIQ B 502      -5.009  -2.267  15.895  1.00142.86     0.046 A 
HETATM    5  C5  MIQ B 502      -3.852  -1.688  15.315  1.00139.53     0.031 A 
HETATM    6  C12 MIQ B 502      -3.626  -0.254  15.432  1.00139.38     0.030 A 
HETATM    7  C13 MIQ B 502      -4.564   0.557  16.126  1.00141.18     0.019 A 
HETATM    8  C14 MIQ B 502      -5.777  -0.057  16.732  1.00138.77     0.033 A 
HETATM    9  C15 MIQ B 502      -6.997   0.490  17.542  1.00142.10     0.195 A 
HETATM   10  N17 MIQ B 502      -7.759  -0.559  17.807  1.00139.42    -0.288 N 
HETATM   11  O16 MIQ B 502      -7.229   1.816  17.911  1.00148.93    -0.171 OA
ENDROOT
BRANCH  10  12
HETATM   12  C18 MIQ B 502      -8.987  -0.429  18.569  1.00139.82     0.187 C 
HETATM   13  C19 MIQ B 502      -8.932  -1.440  19.721  1.00140.06     0.247 C 
HETATM   14  O25 MIQ B 502      -7.982  -1.465  20.420  1.00143.95    -0.271 OA
HETATM   15  N20 MIQ B 502     -10.018  -2.362  19.981  1.00140.02    -0.296 N 
HETATM   16  H13 MIQ B 502      -9.967  -3.021  20.733  1.00142.77     0.171 HD
HETATM   17  C21 MIQ B 502     -11.163  -2.319  19.108  1.00142.22     0.224 C 
HETATM   18  C22 MIQ B 502     -10.900  -1.968  17.657  1.00139.52     0.106 C 
HETATM   19  O24 MIQ B 502     -12.253  -2.541  19.508  1.00146.13    -0.273 OA
HETATM   20  C23 MIQ B 502     -10.200  -0.621  17.659  1.00139.15     0.045 C 
ENDBRANCH  10  12
BRANCH   5  21
HETATM   21  N6  MIQ B 502      -2.895  -2.529  14.620  1.00140.95    -0.377 N 
HETATM   22  C7  MIQ B 502      -3.372  -3.749  13.991  1.00142.12     0.149 C 
HETATM   23  C8  MIQ B 502      -2.275  -4.802  13.888  1.00144.10     0.187 C 
HETATM   24  O9  MIQ B 502      -1.080  -4.293  13.375  1.00148.65    -0.388 OA
HETATM   25  C10 MIQ B 502      -0.907  -2.916  13.219  1.00147.44     0.187 C 
HETATM   26  C11 MIQ B 502      -1.627  -1.976  14.180  1.00144.08     0.149 C 
ENDBRANCH   5  21
TORSDOF 2
ENDMDL
MODEL 4
REMARK VINA RESULT:      -6.4      3.068      9.842
REMARK  2 active torsions:
REMARK  status: ('A' for Active; 'I' for Inactive)
REMARK    1  A    between atoms: C5_5  and  N6_21 
REMARK    2  A    between atoms: C18_14  and  N17_19 
ROOT
HETATM    1  O1  MIQ B 502      -6.782  -4.524  17.680  1.00142.91    -0.171 OA
HETATM    2  C2  MIQ B 502      -6.934  -3.139  17.587  1.00141.17     0.195 A 
HETATM    3  C3  MIQ B 502      -5.915  -2.140  16.950  1.00141.71     0.035 A 
HETATM    4  C4  MIQ B 502      -4.593  -2.308  16.301  1.00142.86     0.046 A 
HETATM    5  C5  MIQ B 502      -3.889  -1.181  15.807  1.00139.53     0.031 A 
HETATM    6  C12 MIQ B 502      -4.469   0.147  15.938  1.00139.38     0.030 A 
HETATM    7  C13 MIQ B 502      -5.737   0.309  16.559  1.00141.18     0.019 A 
HETATM    8  C14 MIQ B 502      -6.473  -0.878  17.074  1.00138.77     0.033 A 
HETATM    9  C15 MIQ B 502      -7.846  -1.095  17.790  1.00142.10     0.195 A 
HETATM   10  N17 MIQ B 502      -7.947  -2.397  18.000  1.00139.42    -0.288 N 
HETATM   11  O16 MIQ B 502      -8.771  -0.110  18.138  1.00148.93    -0.171 OA
ENDROOT
BRANCH  10  12
HETATM   12  C18 MIQ B 502      -9.101  -2.969  18.668  1.00139.82     0.187 C 
HETATM   13  C19 MIQ B 502     -10.354  -2.505  17.915  1.00140.06     0.247 C 
HETATM   14  O25 MIQ B 502     -10.408  -2.645  16.745  1.00143.95    -0.271 OA
HETATM   15  N20 MIQ B 502     -11.479  -1.904  18.602  1.00140.02    -0.296 N 
HETATM   16  H13 MIQ B 502     -12.289  -1.600  18.098  1.00142.77     0.171 HD
HETATM   17  C21 MIQ B 502     -11.385  -1.734  20.029  1.00142.22     0.224 C 
HETATM   18  C22 MIQ B 502     -10.008  -1.441  20.591  1.00139.52     0.106 C 
HETATM   19  O24 MIQ B 502     -12.336  -1.825  20.726  1.00146.13    -0.273 OA
HETATM   20  C23 MIQ B 502      -9.108  -2.579  20.145  1.00139.15     0.045 C 
ENDBRANCH  10  12
BRANCH   5  21
HETATM   21  N6  MIQ B 502      -2.589  -1.359  15.187  1.00140.95    -0.377 N 
HETATM   22  C7  MIQ B 502      -1.411  -0.894  15.899  1.00142.12     0.149 C 
HETATM   23  C8  MIQ B 502      -0.273  -0.544  14.948  1.00144.10     0.187 C 
HETATM   24  O9  MIQ B 502      -0.040  -1.534  13.992  1.00148.65    -0.388 OA
HETATM   25  C10 MIQ B 502      -0.941  -2.591  13.833  1.00147.44     0.187 C 
HETATM   26  C11 MIQ B 502      -2.415  -2.344  14.134  1.00144.08     0.149 C 
ENDBRANCH   5  21
TORSDOF 2
ENDMDL
MODEL 5
REMARK VINA RESULT:      -6.3      1.922      3.121
REMARK  2 active torsions:
REMARK  status: ('A' for Active; 'I' for Inactive)
REMARK    1  A    between atoms: C5_5  and  N6_21 
REMARK    2  A    between atoms: C18_14  and  N17_19 
ROOT
HETATM    1  O1  MIQ B 502      -8.333  -1.149  19.759  1.00142.91    -0.171 OA
HETATM    2  C2  MIQ B 502      -9.597  -1.627  19.407  1.00141.17     0.195 A 
HETATM    3  C3  MIQ B 502     -10.907  -1.474  20.244  1.00141.71     0.035 A 
HETATM    4  C4  MIQ B 502     -11.214  -0.839  21.548  1.00142.86     0.046 A 
HETATM    5  C5  MIQ B 502     -12.535  -0.863  22.062  1.00139.53     0.031 A 
HETATM    6  C12 MIQ B 502     -13.594  -1.514  21.304  1.00139.38     0.030 A 
HETATM    7  C13 MIQ B 502     -13.300  -2.122  20.054  1.00141.18     0.019 A 
HETATM    8  C14 MIQ B 502     -11.912  -2.092  19.518  1.00138.77     0.033 A 
HETATM    9  C15 MIQ B 502     -11.222  -2.630  18.222  1.00142.10     0.195 A 
HETATM   10  N17 MIQ B 502      -9.948  -2.288  18.317  1.00139.42    -0.288 N 
HETATM   11  O16 MIQ B 502     -11.832  -3.332  17.181  1.00148.93    -0.171 OA
ENDROOT
BRANCH  10  12
HETATM   12  C18 MIQ B 502      -8.990  -2.640  17.286  1.00139.82     0.187 C 
HETATM   13  C19 MIQ B 502      -7.792  -3.311  17.970  1.00140.06     0.247 C 
HETATM   14  O25 MIQ B 502      -7.982  -4.203  18.719  1.00143.95    -0.271 OA
HETATM   15  N20 MIQ B 502      -6.431  -2.884  17.718  1.00140.02    -0.296 N 
HETATM   16  H13 MIQ B 502      -5.659  -3.325  18.176  1.00142.77     0.171 HD
HETATM   17  C21 MIQ B 502      -6.226  -1.786  16.808  1.00142.22     0.224 C 
HETATM   18  C22 MIQ B 502      -7.293  -0.709  16.789  1.00139.52     0.106 C 
HETATM   19  O24 MIQ B 502      -5.276  -1.734  16.108  1.00146.13    -0.273 OA
HETATM   20  C23 MIQ B 502      -8.604  -1.405  16.473  1.00139.15     0.045 C 
ENDBRANCH  10  12
BRANCH   5  21
HETATM   21  N6  MIQ B 502     -12.820  -0.250  23.347  1.00140.95    -0.377 N 
HETATM   22  C7  MIQ B 502     -11.718   0.317  24.105  1.00142.12     0.149 C 
HETATM   23  C8  MIQ B 502     -12.001   0.322  25.602  1.00144.10     0.187 C 
HETATM   24  O9  MIQ B 502     -13.263   0.830  25.914  1.00148.65    -0.388 OA
HETATM   25  C10 MIQ B 502     -14.201   1.066  24.905  1.00147.44     0.187 C 
HETATM   26  C11 MIQ B 502     -14.170   0.186  23.660  1.00144.08     0.149 C 
ENDBRANCH   5  21
TORSDOF 2
ENDMDL
MODEL 6
REMARK VINA RESULT:      -6.3      2.339      3.135
REMARK  2 active torsions:
REMARK  status: ('A' for Active; 'I' for Inactive)
REMARK    1  A    between atoms: C5_5  and  N6_21 
REMARK    2  A    between atoms: C18_14  and  N17_19 
ROOT
HETATM    1  O1  MIQ B 502      -8.600  -1.317  19.708  1.00142.91    -0.171 OA
HETATM    2  C2  MIQ B 502      -9.732  -0.581  19.348  1.00141.17     0.195 A 
HETATM    3  C3  MIQ B 502     -11.064  -0.482  20.158  1.00141.71     0.035 A 
HETATM    4  C4  MIQ B 502     -11.522  -1.067  21.440  1.00142.86     0.046 A 
HETATM    5  C5  MIQ B 502     -12.821  -0.784  21.933  1.00139.53     0.031 A 
HETATM    6  C12 MIQ B 502     -13.708   0.086  21.174  1.00139.38     0.030 A 
HETATM    7  C13 MIQ B 502     -13.268   0.648  19.945  1.00141.18     0.019 A 
HETATM    8  C14 MIQ B 502     -11.903   0.349  19.434  1.00138.77     0.033 A 
HETATM    9  C15 MIQ B 502     -11.087   0.769  18.168  1.00142.10     0.195 A 
HETATM   10  N17 MIQ B 502      -9.912   0.172  18.276  1.00139.42    -0.288 N 
HETATM   11  O16 MIQ B 502     -11.518   1.603  17.135  1.00148.93    -0.171 OA
ENDROOT
BRANCH  10  12
HETATM   12  C18 MIQ B 502      -8.889   0.323  17.258  1.00139.82     0.187 C 
HETATM   13  C19 MIQ B 502      -8.487  -1.080  16.786  1.00140.06     0.247 C 
HETATM   14  O25 MIQ B 502      -9.328  -1.839  16.456  1.00143.95    -0.271 OA
HETATM   15  N20 MIQ B 502      -7.102  -1.499  16.728  1.00140.02    -0.296 N 
HETATM   16  H13 MIQ B 502      -6.854  -2.420  16.424  1.00142.77     0.171 HD
HETATM   17  C21 MIQ B 502      -6.095  -0.559  17.146  1.00142.22     0.224 C 
HETATM   18  C22 MIQ B 502      -6.473   0.391  18.266  1.00139.52     0.106 C 
HETATM   19  O24 MIQ B 502      -5.029  -0.527  16.636  1.00146.13    -0.273 OA
HETATM   20  C23 MIQ B 502      -7.713   1.133  17.803  1.00139.15     0.045 C 
ENDBRANCH  10  12
BRANCH   5  21
HETATM   21  N6  MIQ B 502     -13.263  -1.375  23.183  1.00140.95    -0.377 N 
HETATM   22  C7  MIQ B 502     -12.557  -1.027  24.404  1.00142.12     0.149 C 
HETATM   23  C8  MIQ B 502     -12.658  -2.126  25.453  1.00144.10     0.187 C 
HETATM   24  O9  MIQ B 502     -13.963  -2.590  25.630  1.00148.65    -0.388 OA
HETATM   25  C10 MIQ B 502     -14.975  -2.212  24.744  1.00147.44     0.187 C 
HETATM   26  C11 MIQ B 502     -14.603  -1.923  23.293  1.00144.08     0.149 C 
ENDBRANCH   5  21
TORSDOF 2
ENDMDL
MODEL 7
REMARK VINA RESULT:      -6.3      3.040      9.345
REMARK  2 active torsions:
REMARK  status: ('A' for Active; 'I' for Inactive)
REMARK    1  A    between atoms: C5_5  and  N6_21 
REMARK    2  A    between atoms: C18_14  and  N17_19 
ROOT
HETATM    1  O1  MIQ B 502      -9.024  -1.519  15.810  1.00142.91    -0.171 OA
HETATM    2  C2  MIQ B 502      -8.538  -1.066  17.038  1.00141.17     0.195 A 
HETATM    3  C3  MIQ B 502      -7.043  -0.774  17.388  1.00141.71     0.035 A 
HETATM    4  C4  MIQ B 502      -5.780  -0.867  16.619  1.00142.86     0.046 A 
HETATM    5  C5  MIQ B 502      -4.545  -0.523  17.225  1.00139.53     0.031 A 
HETATM    6  C12 MIQ B 502      -4.520  -0.077  18.610  1.00139.38     0.030 A 
HETATM    7  C13 MIQ B 502      -5.731   0.013  19.348  1.00141.18     0.019 A 
HETATM    8  C14 MIQ B 502      -7.025  -0.347  18.706  1.00138.77     0.033 A 
HETATM    9  C15 MIQ B 502      -8.516  -0.372  19.176  1.00142.10     0.195 A 
HETATM   10  N17 MIQ B 502      -9.219  -0.789  18.137  1.00139.42    -0.288 N 
HETATM   11  O16 MIQ B 502      -8.999  -0.026  20.439  1.00148.93    -0.171 OA
ENDROOT
BRANCH  10  12
HETATM   12  C18 MIQ B 502     -10.659  -0.952  18.213  1.00139.82     0.187 C 
HETATM   13  C19 MIQ B 502     -11.266   0.413  18.561  1.00140.06     0.247 C 
HETATM   14  O25 MIQ B 502     -10.963   1.358  17.922  1.00143.95    -0.271 OA
HETATM   15  N20 MIQ B 502     -12.208   0.575  19.649  1.00140.02    -0.296 N 
HETATM   16  H13 MIQ B 502     -12.592   1.473  19.870  1.00142.77     0.171 HD
HETATM   17  C21 MIQ B 502     -12.555  -0.591  20.421  1.00142.22     0.224 C 
HETATM   18  C22 MIQ B 502     -11.467  -1.630  20.610  1.00139.52     0.106 C 
HETATM   19  O24 MIQ B 502     -13.635  -0.730  20.878  1.00146.13    -0.273 OA
HETATM   20  C23 MIQ B 502     -11.018  -2.043  19.220  1.00139.15     0.045 C 
ENDBRANCH  10  12
BRANCH   5  21
HETATM   21  N6  MIQ B 502      -3.314  -0.633  16.464  1.00140.95    -0.377 N 
HETATM   22  C7  MIQ B 502      -2.053  -0.665  17.185  1.00142.12     0.149 C 
HETATM   23  C8  MIQ B 502      -0.900  -0.142  16.338  1.00144.10     0.187 C 
HETATM   24  O9  MIQ B 502      -0.870  -0.699  15.058  1.00148.65    -0.388 OA
HETATM   25  C10 MIQ B 502      -1.944  -1.462  14.593  1.00147.44     0.187 C 
HETATM   26  C11 MIQ B 502      -3.344  -1.138  15.103  1.00144.08     0.149 C 
ENDBRANCH   5  21
TORSDOF 2
ENDMDL
MODEL 8
REMARK VINA RESULT:      -6.3      3.865      4.917
REMARK  2 active torsions:
REMARK  status: ('A' for Active; 'I' for Inactive)
REMARK    1  A    between atoms: C5_5  and  N6_21 
REMARK    2  A    between atoms: C18_14  and  N17_19 
ROOT
HETATM    1  O1  MIQ B 502     -13.471  -0.148  21.358  1.00142.91    -0.171 OA
HETATM    2  C2  MIQ B 502     -12.216  -0.731  21.545  1.00141.17     0.195 A 
HETATM    3  C3  MIQ B 502     -11.594  -1.163  22.912  1.00141.71     0.035 A 
HETATM    4  C4  MIQ B 502     -12.076  -1.110  24.312  1.00142.86     0.046 A 
HETATM    5  C5  MIQ B 502     -11.263  -1.593  25.369  1.00139.53     0.031 A 
HETATM    6  C12 MIQ B 502      -9.949  -2.146  25.074  1.00139.38     0.030 A 
HETATM    7  C13 MIQ B 502      -9.487  -2.199  23.731  1.00141.18     0.019 A 
HETATM    8  C14 MIQ B 502     -10.346  -1.691  22.626  1.00138.77     0.033 A 
HETATM    9  C15 MIQ B 502     -10.192  -1.587  21.074  1.00142.10     0.195 A 
HETATM   10  N17 MIQ B 502     -11.311  -1.038  20.632  1.00139.42    -0.288 N 
HETATM   11  O16 MIQ B 502      -9.092  -1.990  20.314  1.00148.93    -0.171 OA
ENDROOT
BRANCH  10  12
HETATM   12  C18 MIQ B 502     -11.518  -0.771  19.220  1.00139.82     0.187 C 
HETATM   13  C19 MIQ B 502     -11.299  -2.083  18.459  1.00140.06     0.247 C 
HETATM   14  O25 MIQ B 502     -11.868  -3.055  18.811  1.00143.95    -0.271 OA
HETATM   15  N20 MIQ B 502     -10.416  -2.164  17.313  1.00140.02    -0.296 N 
HETATM   16  H13 MIQ B 502     -10.277  -3.028  16.828  1.00142.77     0.171 HD
HETATM   17  C21 MIQ B 502      -9.725  -0.967  16.909  1.00142.22     0.224 C 
HETATM   18  C22 MIQ B 502      -9.324  -0.006  18.012  1.00139.52     0.106 C 
HETATM   19  O24 MIQ B 502      -9.488  -0.744  15.773  1.00146.13    -0.273 OA
HETATM   20  C23 MIQ B 502     -10.598   0.356  18.753  1.00139.15     0.045 C 
ENDBRANCH  10  12
BRANCH   5  21
HETATM   21  N6  MIQ B 502     -11.741  -1.521  26.737  1.00140.95    -0.377 N 
HETATM   22  C7  MIQ B 502     -12.942  -2.257  27.093  1.00142.12     0.149 C 
HETATM   23  C8  MIQ B 502     -13.669  -1.623  28.272  1.00144.10     0.187 C 
HETATM   24  O9  MIQ B 502     -12.818  -1.319  29.336  1.00148.65    -0.388 OA
HETATM   25  C10 MIQ B 502     -11.432  -1.395  29.178  1.00147.44     0.187 C 
HETATM   26  C11 MIQ B 502     -10.838  -1.116  27.801  1.00144.08     0.149 C 
ENDBRANCH   5  21
TORSDOF 2
ENDMDL
MODEL 9
REMARK VINA RESULT:      -6.2      2.223      2.689
REMARK  2 active torsions:
REMARK  status: ('A' for Active; 'I' for Inactive)
REMARK    1  A    between atoms: C5_5  and  N6_21 
REMARK    2  A    between atoms: C18_14  and  N17_19 
ROOT
HETATM    1  O1  MIQ B 502     -10.433   0.557  17.122  1.00142.91    -0.171 OA
HETATM    2  C2  MIQ B 502      -9.835   0.254  18.347  1.00141.17     0.195 A 
HETATM    3  C3  MIQ B 502     -10.568  -0.244  19.633  1.00141.71     0.035 A 
HETATM    4  C4  MIQ B 502     -11.987  -0.534  19.949  1.00142.86     0.046 A 
HETATM    5  C5  MIQ B 502     -12.355  -0.987  21.241  1.00139.53     0.031 A 
HETATM    6  C12 MIQ B 502     -11.333  -1.169  22.262  1.00139.38     0.030 A 
HETATM    7  C13 MIQ B 502      -9.972  -0.892  21.959  1.00141.18     0.019 A 
HETATM    8  C14 MIQ B 502      -9.591  -0.419  20.600  1.00138.77     0.033 A 
HETATM    9  C15 MIQ B 502      -8.244  -0.028  19.910  1.00142.10     0.195 A 
HETATM   10  N17 MIQ B 502      -8.554   0.316  18.671  1.00139.42    -0.288 N 
HETATM   11  O16 MIQ B 502      -6.974  -0.039  20.490  1.00148.93    -0.171 OA
ENDROOT
BRANCH  10  12
HETATM   12  C18 MIQ B 502      -7.541   0.758  17.731  1.00139.82     0.187 C 
HETATM   13  C19 MIQ B 502      -6.466  -0.332  17.656  1.00140.06     0.247 C 
HETATM   14  O25 MIQ B 502      -6.791  -1.449  17.459  1.00143.95    -0.271 OA
HETATM   15  N20 MIQ B 502      -5.058  -0.029  17.813  1.00140.02    -0.296 N 
HETATM   16  H13 MIQ B 502      -4.366  -0.751  17.768  1.00142.77     0.171 HD
HETATM   17  C21 MIQ B 502      -4.687   1.340  18.062  1.00142.22     0.224 C 
HETATM   18  C22 MIQ B 502      -5.658   2.172  18.877  1.00139.52     0.106 C 
HETATM   19  O24 MIQ B 502      -3.677   1.792  17.646  1.00146.13    -0.273 OA
HETATM   20  C23 MIQ B 502      -6.988   2.121  18.147  1.00139.15     0.045 C 
ENDBRANCH  10  12
BRANCH   5  21
HETATM   21  N6  MIQ B 502     -13.750  -1.252  21.542  1.00140.95    -0.377 N 
HETATM   22  C7  MIQ B 502     -14.611  -1.734  20.475  1.00142.12     0.149 C 
HETATM   23  C8  MIQ B 502     -16.069  -1.363  20.709  1.00144.10     0.187 C 
HETATM   24  O9  MIQ B 502     -16.503  -1.655  22.004  1.00148.65    -0.388 OA
HETATM   25  C10 MIQ B 502     -15.586  -2.024  22.991  1.00147.44     0.187 C 
HETATM   26  C11 MIQ B 502     -14.169  -1.465  22.916  1.00144.08     0.149 C 
ENDBRANCH   5  21
TORSDOF 2
ENDMDL
