MODEL 1
REMARK VINA RESULT:      -7.5      0.000      0.000
REMARK  2 active torsions:
REMARK  status: ('A' for Active; 'I' for Inactive)
REMARK    1  A    between atoms: C5_5  and  N6_21 
REMARK    2  A    between atoms: C18_14  and  N17_19 
ROOT
HETATM    1  O1  MIQ B 502       8.705 -14.870  17.956  1.00142.91    -0.171 OA
HETATM    2  C2  MIQ B 502       9.127 -14.548  16.664  1.00141.17     0.195 A 
HETATM    3  C3  MIQ B 502       9.194 -13.115  16.046  1.00141.71     0.035 A 
HETATM    4  C4  MIQ B 502       8.872 -11.765  16.567  1.00142.86     0.046 A 
HETATM    5  C5  MIQ B 502       9.041 -10.621  15.747  1.00139.53     0.031 A 
HETATM    6  C12 MIQ B 502       9.536 -10.774  14.386  1.00139.38     0.030 A 
HETATM    7  C13 MIQ B 502       9.846 -12.068  13.887  1.00141.18     0.019 A 
HETATM    8  C14 MIQ B 502       9.668 -13.265  14.754  1.00138.77     0.033 A 
HETATM    9  C15 MIQ B 502       9.897 -14.801  14.567  1.00142.10     0.195 A 
HETATM   10  N17 MIQ B 502       9.553 -15.363  15.714  1.00139.42    -0.288 N 
HETATM   11  O16 MIQ B 502      10.367 -15.443  13.420  1.00148.93    -0.171 OA
ENDROOT
BRANCH  10  12
HETATM   12  C18 MIQ B 502       9.623 -16.800  15.904  1.00139.82     0.187 C 
HETATM   13  C19 MIQ B 502      11.024 -17.260  15.485  1.00140.06     0.247 C 
HETATM   14  O25 MIQ B 502      11.968 -16.711  15.931  1.00143.95    -0.271 OA
HETATM   15  N20 MIQ B 502      11.223 -18.356  14.559  1.00140.02    -0.296 N 
HETATM   16  H13 MIQ B 502      12.143 -18.643  14.288  1.00142.77     0.171 HD
HETATM   17  C21 MIQ B 502      10.055 -19.004  14.020  1.00142.22     0.224 C 
HETATM   18  C22 MIQ B 502       8.836 -18.131  13.791  1.00139.52     0.106 C 
HETATM   19  O24 MIQ B 502      10.047 -20.160  13.775  1.00146.13    -0.273 OA
HETATM   20  C23 MIQ B 502       8.505 -17.493  15.128  1.00139.15     0.045 C 
ENDBRANCH  10  12
BRANCH   5  21
HETATM   21  N6  MIQ B 502       8.708  -9.307  16.264  1.00140.95    -0.377 N 
HETATM   22  C7  MIQ B 502       8.415  -9.172  17.681  1.00142.12     0.149 C 
HETATM   23  C8  MIQ B 502       7.497  -7.989  17.962  1.00144.10     0.187 C 
HETATM   24  O9  MIQ B 502       7.910  -6.817  17.324  1.00148.65    -0.388 OA
HETATM   25  C10 MIQ B 502       8.922  -6.855  16.362  1.00147.44     0.187 C 
HETATM   26  C11 MIQ B 502       9.083  -8.117  15.521  1.00144.08     0.149 C 
ENDBRANCH   5  21
TORSDOF 2
ENDMDL
MODEL 2
REMARK VINA RESULT:      -7.3      4.240      8.906
REMARK  2 active torsions:
REMARK  status: ('A' for Active; 'I' for Inactive)
REMARK    1  A    between atoms: C5_5  and  N6_21 
REMARK    2  A    between atoms: C18_14  and  N17_19 
ROOT
HETATM    1  O1  MIQ B 502      11.334 -15.572  11.917  1.00142.91    -0.171 OA
HETATM    2  C2  MIQ B 502      10.381 -16.472  12.399  1.00141.17     0.195 A 
HETATM    3  C3  MIQ B 502       9.509 -17.440  11.538  1.00141.71     0.035 A 
HETATM    4  C4  MIQ B 502       9.413 -17.703  10.082  1.00142.86     0.046 A 
HETATM    5  C5  MIQ B 502       8.502 -18.671   9.587  1.00139.53     0.031 A 
HETATM    6  C12 MIQ B 502       7.658 -19.409  10.515  1.00139.38     0.030 A 
HETATM    7  C13 MIQ B 502       7.750 -19.158  11.911  1.00141.18     0.019 A 
HETATM    8  C14 MIQ B 502       8.710 -18.143  12.425  1.00138.77     0.033 A 
HETATM    9  C15 MIQ B 502       9.088 -17.608  13.844  1.00142.10     0.195 A 
HETATM   10  N17 MIQ B 502      10.025 -16.694  13.652  1.00139.42    -0.288 N 
HETATM   11  O16 MIQ B 502       8.542 -18.014  15.063  1.00148.93    -0.171 OA
ENDROOT
BRANCH  10  12
HETATM   12  C18 MIQ B 502      10.610 -15.965  14.762  1.00139.82     0.187 C 
HETATM   13  C19 MIQ B 502      11.048 -16.990  15.816  1.00140.06     0.247 C 
HETATM   14  O25 MIQ B 502      11.718 -17.903  15.488  1.00143.95    -0.271 OA
HETATM   15  N20 MIQ B 502      10.667 -16.864  17.208  1.00140.02    -0.296 N 
HETATM   16  H13 MIQ B 502      10.954 -17.543  17.885  1.00142.77     0.171 HD
HETATM   17  C21 MIQ B 502       9.840 -15.746  17.582  1.00142.22     0.224 C 
HETATM   18  C22 MIQ B 502       8.832 -15.269  16.554  1.00139.52     0.106 C 
HETATM   19  O24 MIQ B 502       9.948 -15.224  18.637  1.00146.13    -0.273 OA
HETATM   20  C23 MIQ B 502       9.621 -14.934  15.301  1.00139.15     0.045 C 
ENDBRANCH  10  12
BRANCH   5  21
HETATM   21  N6  MIQ B 502       8.408 -18.908   8.158  1.00140.95    -0.377 N 
HETATM   22  C7  MIQ B 502       7.600 -20.021   7.690  1.00142.12     0.149 C 
HETATM   23  C8  MIQ B 502       8.078 -20.543   6.341  1.00144.10     0.187 C 
HETATM   24  O9  MIQ B 502       8.289 -19.525   5.409  1.00148.65    -0.388 OA
HETATM   25  C10 MIQ B 502       8.274 -18.186   5.807  1.00147.44     0.187 C 
HETATM   26  C11 MIQ B 502       8.722 -17.841   7.224  1.00144.08     0.149 C 
ENDBRANCH   5  21
TORSDOF 2
ENDMDL
MODEL 3
REMARK VINA RESULT:      -7.1      2.084      8.551
REMARK  2 active torsions:
REMARK  status: ('A' for Active; 'I' for Inactive)
REMARK    1  A    between atoms: C5_5  and  N6_21 
REMARK    2  A    between atoms: C18_14  and  N17_19 
ROOT
HETATM    1  O1  MIQ B 502      10.142 -10.279  14.365  1.00142.91    -0.171 OA
HETATM    2  C2  MIQ B 502       9.629 -10.831  15.540  1.00141.17     0.195 A 
HETATM    3  C3  MIQ B 502       9.348 -12.346  15.802  1.00141.71     0.035 A 
HETATM    4  C4  MIQ B 502       9.517 -13.569  14.982  1.00142.86     0.046 A 
HETATM    5  C5  MIQ B 502       9.166 -14.838  15.509  1.00139.53     0.031 A 
HETATM    6  C12 MIQ B 502       8.638 -14.938  16.862  1.00139.38     0.030 A 
HETATM    7  C13 MIQ B 502       8.477 -13.765  17.648  1.00141.18     0.019 A 
HETATM    8  C14 MIQ B 502       8.850 -12.436  17.091  1.00138.77     0.033 A 
HETATM    9  C15 MIQ B 502       8.821 -10.970  17.633  1.00142.10     0.195 A 
HETATM   10  N17 MIQ B 502       9.285 -10.210  16.655  1.00139.42    -0.288 N 
HETATM   11  O16 MIQ B 502       8.389 -10.553  18.894  1.00148.93    -0.171 OA
ENDROOT
BRANCH  10  12
HETATM   12  C18 MIQ B 502       9.388  -8.769  16.799  1.00139.82     0.187 C 
HETATM   13  C19 MIQ B 502      10.185  -8.483  18.077  1.00140.06     0.247 C 
HETATM   14  O25 MIQ B 502      11.225  -9.017  18.240  1.00143.95    -0.271 OA
HETATM   15  N20 MIQ B 502       9.701  -7.568  19.091  1.00140.02    -0.296 N 
HETATM   16  H13 MIQ B 502      10.228  -7.395  19.924  1.00142.77     0.171 HD
HETATM   17  C21 MIQ B 502       8.425  -6.937  18.875  1.00142.22     0.224 C 
HETATM   18  C22 MIQ B 502       7.380  -7.749  18.134  1.00139.52     0.106 C 
HETATM   19  O24 MIQ B 502       8.207  -5.839  19.253  1.00146.13    -0.273 OA
HETATM   20  C23 MIQ B 502       7.998  -8.135  16.803  1.00139.15     0.045 C 
ENDBRANCH  10  12
BRANCH   5  21
HETATM   21  N6  MIQ B 502       9.322 -16.026  14.690  1.00140.95    -0.377 N 
HETATM   22  C7  MIQ B 502      10.377 -16.049  13.692  1.00142.12     0.149 C 
HETATM   23  C8  MIQ B 502      10.047 -16.984  12.536  1.00144.10     0.187 C 
HETATM   24  O9  MIQ B 502       9.601 -18.237  12.961  1.00148.65    -0.388 OA
HETATM   25  C10 MIQ B 502       9.290 -18.459  14.305  1.00147.44     0.187 C 
HETATM   26  C11 MIQ B 502       8.765 -17.292  15.135  1.00144.08     0.149 C 
ENDBRANCH   5  21
TORSDOF 2
ENDMDL
MODEL 4
REMARK VINA RESULT:      -7.0      1.582      2.058
REMARK  2 active torsions:
REMARK  status: ('A' for Active; 'I' for Inactive)
REMARK    1  A    between atoms: C5_5  and  N6_21 
REMARK    2  A    between atoms: C18_14  and  N17_19 
ROOT
HETATM    1  O1  MIQ B 502      10.232 -13.781  19.165  1.00142.91    -0.171 OA
HETATM    2  C2  MIQ B 502       9.910 -13.403  17.860  1.00141.17     0.195 A 
HETATM    3  C3  MIQ B 502       9.440 -11.987  17.398  1.00141.71     0.035 A 
HETATM    4  C4  MIQ B 502       9.206 -10.709  18.111  1.00142.86     0.046 A 
HETATM    5  C5  MIQ B 502       8.770  -9.562  17.401  1.00139.53     0.031 A 
HETATM    6  C12 MIQ B 502       8.552  -9.641  15.964  1.00139.38     0.030 A 
HETATM    7  C13 MIQ B 502       8.777 -10.866  15.280  1.00141.18     0.019 A 
HETATM    8  C14 MIQ B 502       9.237 -12.067  16.030  1.00138.77     0.033 A 
HETATM    9  C15 MIQ B 502       9.584 -13.541  15.640  1.00142.10     0.195 A 
HETATM   10  N17 MIQ B 502       9.939 -14.142  16.764  1.00139.42    -0.288 N 
HETATM   11  O16 MIQ B 502       9.526 -14.103  14.364  1.00148.93    -0.171 OA
ENDROOT
BRANCH  10  12
HETATM   12  C18 MIQ B 502      10.318 -15.542  16.786  1.00139.82     0.187 C 
HETATM   13  C19 MIQ B 502      11.457 -15.735  15.778  1.00140.06     0.247 C 
HETATM   14  O25 MIQ B 502      12.397 -15.024  15.828  1.00143.95    -0.271 OA
HETATM   15  N20 MIQ B 502      11.415 -16.772  14.767  1.00140.02    -0.296 N 
HETATM   16  H13 MIQ B 502      12.162 -16.883  14.110  1.00142.77     0.171 HD
HETATM   17  C21 MIQ B 502      10.252 -17.620  14.719  1.00142.22     0.224 C 
HETATM   18  C22 MIQ B 502       8.929 -16.985  15.098  1.00139.52     0.106 C 
HETATM   19  O24 MIQ B 502      10.329 -18.757  14.404  1.00146.13    -0.273 OA
HETATM   20  C23 MIQ B 502       9.105 -16.426  16.499  1.00139.15     0.045 C 
ENDBRANCH  10  12
BRANCH   5  21
HETATM   21  N6  MIQ B 502       8.531  -8.320  18.114  1.00140.95    -0.377 N 
HETATM   22  C7  MIQ B 502       7.193  -7.755  18.094  1.00142.12     0.149 C 
HETATM   23  C8  MIQ B 502       7.211  -6.243  18.283  1.00144.10     0.187 C 
HETATM   24  O9  MIQ B 502       8.014  -5.839  19.352  1.00148.65    -0.388 OA
HETATM   25  C10 MIQ B 502       8.864  -6.751  19.983  1.00147.44     0.187 C 
HETATM   26  C11 MIQ B 502       9.444  -7.897  19.162  1.00144.08     0.149 C 
ENDBRANCH   5  21
TORSDOF 2
ENDMDL
MODEL 5
REMARK VINA RESULT:      -6.9      2.067      8.459
REMARK  2 active torsions:
REMARK  status: ('A' for Active; 'I' for Inactive)
REMARK    1  A    between atoms: C5_5  and  N6_21 
REMARK    2  A    between atoms: C18_14  and  N17_19 
ROOT
HETATM    1  O1  MIQ B 502      10.260 -10.408  14.251  1.00142.91    -0.171 OA
HETATM    2  C2  MIQ B 502       9.732 -10.985  15.408  1.00141.17     0.195 A 
HETATM    3  C3  MIQ B 502       9.487 -12.509  15.650  1.00141.71     0.035 A 
HETATM    4  C4  MIQ B 502       9.711 -13.720  14.825  1.00142.86     0.046 A 
HETATM    5  C5  MIQ B 502       9.382 -15.003  15.332  1.00139.53     0.031 A 
HETATM    6  C12 MIQ B 502       8.822 -15.129  16.670  1.00139.38     0.030 A 
HETATM    7  C13 MIQ B 502       8.608 -13.968  17.461  1.00141.18     0.019 A 
HETATM    8  C14 MIQ B 502       8.957 -12.624  16.924  1.00138.77     0.033 A 
HETATM    9  C15 MIQ B 502       8.873 -11.164  17.477  1.00142.10     0.195 A 
HETATM   10  N17 MIQ B 502       9.341 -10.383  16.518  1.00139.42    -0.288 N 
HETATM   11  O16 MIQ B 502       8.397 -10.771  18.729  1.00148.93    -0.171 OA
ENDROOT
BRANCH  10  12
HETATM   12  C18 MIQ B 502       9.400  -8.942  16.676  1.00139.82     0.187 C 
HETATM   13  C19 MIQ B 502      10.208  -8.642  17.944  1.00140.06     0.247 C 
HETATM   14  O25 MIQ B 502      11.267  -9.144  18.084  1.00143.95    -0.271 OA
HETATM   15  N20 MIQ B 502       9.711  -7.755  18.976  1.00140.02    -0.296 N 
HETATM   16  H13 MIQ B 502      10.246  -7.573  19.802  1.00142.77     0.171 HD
HETATM   17  C21 MIQ B 502       8.412  -7.163  18.787  1.00142.22     0.224 C 
HETATM   18  C22 MIQ B 502       7.381  -8.001  18.054  1.00139.52     0.106 C 
HETATM   19  O24 MIQ B 502       8.165  -6.077  19.181  1.00146.13    -0.273 OA
HETATM   20  C23 MIQ B 502       7.990  -8.353  16.709  1.00139.15     0.045 C 
ENDBRANCH  10  12
BRANCH   5  21
HETATM   21  N6  MIQ B 502       9.593 -16.179  14.508  1.00140.95    -0.377 N 
HETATM   22  C7  MIQ B 502       8.768 -17.351  14.747  1.00142.12     0.149 C 
HETATM   23  C8  MIQ B 502       9.470 -18.636  14.325  1.00144.10     0.187 C 
HETATM   24  O9  MIQ B 502      10.036 -18.553  13.051  1.00148.65    -0.388 OA
HETATM   25  C10 MIQ B 502      10.117 -17.324  12.392  1.00147.44     0.187 C 
HETATM   26  C11 MIQ B 502      10.265 -16.056  13.226  1.00144.08     0.149 C 
ENDBRANCH   5  21
TORSDOF 2
ENDMDL
MODEL 6
REMARK VINA RESULT:      -6.8      1.190      2.291
REMARK  2 active torsions:
REMARK  status: ('A' for Active; 'I' for Inactive)
REMARK    1  A    between atoms: C5_5  and  N6_21 
REMARK    2  A    between atoms: C18_14  and  N17_19 
ROOT
HETATM    1  O1  MIQ B 502       9.990 -14.640  14.151  1.00142.91    -0.171 OA
HETATM    2  C2  MIQ B 502       9.728 -14.372  15.496  1.00141.17     0.195 A 
HETATM    3  C3  MIQ B 502       9.495 -12.962  16.127  1.00141.71     0.035 A 
HETATM    4  C4  MIQ B 502       9.473 -11.588  15.572  1.00142.86     0.046 A 
HETATM    5  C5  MIQ B 502       9.227 -10.477  16.418  1.00139.53     0.031 A 
HETATM    6  C12 MIQ B 502       8.994 -10.688  17.839  1.00139.38     0.030 A 
HETATM    7  C13 MIQ B 502       9.015 -12.006  18.372  1.00141.18     0.019 A 
HETATM    8  C14 MIQ B 502       9.271 -13.168  17.479  1.00138.77     0.033 A 
HETATM    9  C15 MIQ B 502       9.365 -14.715  17.688  1.00142.10     0.195 A 
HETATM   10  N17 MIQ B 502       9.619 -15.230  16.496  1.00139.42    -0.288 N 
HETATM   11  O16 MIQ B 502       9.214 -15.407  18.891  1.00148.93    -0.171 OA
ENDROOT
BRANCH  10  12
HETATM   12  C18 MIQ B 502       9.789 -16.659  16.309  1.00139.82     0.187 C 
HETATM   13  C19 MIQ B 502      11.135 -16.882  15.608  1.00140.06     0.247 C 
HETATM   14  O25 MIQ B 502      12.105 -16.377  16.050  1.00143.95    -0.271 OA
HETATM   15  N20 MIQ B 502      11.250 -17.701  14.419  1.00140.02    -0.296 N 
HETATM   16  H13 MIQ B 502      12.133 -17.834  13.967  1.00142.77     0.171 HD
HETATM   17  C21 MIQ B 502      10.050 -18.298  13.892  1.00142.22     0.224 C 
HETATM   18  C22 MIQ B 502       8.768 -17.504  14.051  1.00139.52     0.106 C 
HETATM   19  O24 MIQ B 502      10.065 -19.357  13.368  1.00146.13    -0.273 OA
HETATM   20  C23 MIQ B 502       8.605 -17.238  15.536  1.00139.15     0.045 C 
ENDBRANCH  10  12
BRANCH   5  21
HETATM   21  N6  MIQ B 502       9.222  -9.136  15.863  1.00140.95    -0.377 N 
HETATM   22  C7  MIQ B 502       9.507  -8.018  16.746  1.00142.12     0.149 C 
HETATM   23  C8  MIQ B 502       8.864  -6.727  16.255  1.00144.10     0.187 C 
HETATM   24  O9  MIQ B 502       9.091  -6.489  14.898  1.00148.65    -0.388 OA
HETATM   25  C10 MIQ B 502       9.651  -7.481  14.089  1.00147.44     0.187 C 
HETATM   26  C11 MIQ B 502       9.376  -8.942  14.432  1.00144.08     0.149 C 
ENDBRANCH   5  21
TORSDOF 2
ENDMDL
MODEL 7
REMARK VINA RESULT:      -6.8      1.761      2.953
REMARK  2 active torsions:
REMARK  status: ('A' for Active; 'I' for Inactive)
REMARK    1  A    between atoms: C5_5  and  N6_21 
REMARK    2  A    between atoms: C18_14  and  N17_19 
ROOT
HETATM    1  O1  MIQ B 502      10.430 -15.337  13.411  1.00142.91    -0.171 OA
HETATM    2  C2  MIQ B 502       9.898 -14.716  14.544  1.00141.17     0.195 A 
HETATM    3  C3  MIQ B 502       9.646 -13.185  14.724  1.00141.71     0.035 A 
HETATM    4  C4  MIQ B 502       9.860 -12.008  13.849  1.00142.86     0.046 A 
HETATM    5  C5  MIQ B 502       9.523 -10.707  14.303  1.00139.53     0.031 A 
HETATM    6  C12 MIQ B 502       8.964 -10.529  15.635  1.00139.38     0.030 A 
HETATM    7  C13 MIQ B 502       8.758 -11.658  16.474  1.00141.18     0.019 A 
HETATM    8  C14 MIQ B 502       9.111 -13.021  15.991  1.00138.77     0.033 A 
HETATM    9  C15 MIQ B 502       9.030 -14.458  16.601  1.00142.10     0.195 A 
HETATM   10  N17 MIQ B 502       9.500 -15.276  15.673  1.00139.42    -0.288 N 
HETATM   11  O16 MIQ B 502       8.559 -14.803  17.869  1.00148.93    -0.171 OA
ENDROOT
BRANCH  10  12
HETATM   12  C18 MIQ B 502       9.591 -16.706  15.900  1.00139.82     0.187 C 
HETATM   13  C19 MIQ B 502      11.007 -17.152  15.516  1.00140.06     0.247 C 
HETATM   14  O25 MIQ B 502      11.934 -16.576  15.965  1.00143.95    -0.271 OA
HETATM   15  N20 MIQ B 502      11.241 -18.267  14.621  1.00140.02    -0.296 N 
HETATM   16  H13 MIQ B 502      12.170 -18.543  14.373  1.00142.77     0.171 HD
HETATM   17  C21 MIQ B 502      10.094 -18.948  14.078  1.00142.22     0.224 C 
HETATM   18  C22 MIQ B 502       8.865 -18.102  13.806  1.00139.52     0.106 C 
HETATM   19  O24 MIQ B 502      10.111 -20.109  13.862  1.00146.13    -0.273 OA
HETATM   20  C23 MIQ B 502       8.499 -17.438  15.121  1.00139.15     0.045 C 
ENDBRANCH  10  12
BRANCH   5  21
HETATM   21  N6  MIQ B 502       9.751  -9.562  13.441  1.00140.95    -0.377 N 
HETATM   22  C7  MIQ B 502      10.268  -8.340  14.033  1.00142.12     0.149 C 
HETATM   23  C8  MIQ B 502       9.862  -7.106  13.237  1.00144.10     0.187 C 
HETATM   24  O9  MIQ B 502      10.086  -7.246  11.866  1.00148.65    -0.388 OA
HETATM   25  C10 MIQ B 502      10.423  -8.491  11.328  1.00147.44     0.187 C 
HETATM   26  C11 MIQ B 502       9.892  -9.748  12.008  1.00144.08     0.149 C 
ENDBRANCH   5  21
TORSDOF 2
ENDMDL
MODEL 8
REMARK VINA RESULT:      -6.8      3.899      8.660
REMARK  2 active torsions:
REMARK  status: ('A' for Active; 'I' for Inactive)
REMARK    1  A    between atoms: C5_5  and  N6_21 
REMARK    2  A    between atoms: C18_14  and  N17_19 
ROOT
HETATM    1  O1  MIQ B 502       9.058 -17.539  15.162  1.00142.91    -0.171 OA
HETATM    2  C2  MIQ B 502       9.590 -16.871  14.056  1.00141.17     0.195 A 
HETATM    3  C3  MIQ B 502       9.524 -17.348  12.571  1.00141.71     0.035 A 
HETATM    4  C4  MIQ B 502       8.937 -18.536  11.907  1.00142.86     0.046 A 
HETATM    5  C5  MIQ B 502       9.039 -18.696  10.502  1.00139.53     0.031 A 
HETATM    6  C12 MIQ B 502       9.724 -17.686   9.708  1.00139.38     0.030 A 
HETATM    7  C13 MIQ B 502      10.285 -16.546  10.343  1.00141.18     0.019 A 
HETATM    8  C14 MIQ B 502      10.173 -16.382  11.819  1.00138.77     0.033 A 
HETATM    9  C15 MIQ B 502      10.644 -15.299  12.843  1.00142.10     0.195 A 
HETATM   10  N17 MIQ B 502      10.240 -15.720  14.031  1.00139.42    -0.288 N 
HETATM   11  O16 MIQ B 502      11.350 -14.129  12.558  1.00148.93    -0.171 OA
ENDROOT
BRANCH  10  12
HETATM   12  C18 MIQ B 502      10.519 -14.964  15.237  1.00139.82     0.187 C 
HETATM   13  C19 MIQ B 502      11.144 -15.924  16.257  1.00140.06     0.247 C 
HETATM   14  O25 MIQ B 502      12.062 -16.591  15.933  1.00143.95    -0.271 OA
HETATM   15  N20 MIQ B 502      10.642 -16.032  17.612  1.00140.02    -0.296 N 
HETATM   16  H13 MIQ B 502      11.054 -16.667  18.266  1.00142.77     0.171 HD
HETATM   17  C21 MIQ B 502       9.514 -15.215  17.980  1.00142.22     0.224 C 
HETATM   18  C22 MIQ B 502       8.492 -14.935  16.895  1.00139.52     0.106 C 
HETATM   19  O24 MIQ B 502       9.397 -14.781  19.073  1.00146.13    -0.273 OA
HETATM   20  C23 MIQ B 502       9.247 -14.289  15.748  1.00139.15     0.045 C 
ENDBRANCH  10  12
BRANCH   5  21
HETATM   21  N6  MIQ B 502       8.473 -19.872   9.867  1.00140.95    -0.377 N 
HETATM   22  C7  MIQ B 502       8.393 -21.104  10.633  1.00142.12     0.149 C 
HETATM   23  C8  MIQ B 502       8.411 -22.335   9.735  1.00144.10     0.187 C 
HETATM   24  O9  MIQ B 502       7.521 -22.239   8.664  1.00148.65    -0.388 OA
HETATM   25  C10 MIQ B 502       6.890 -21.026   8.374  1.00147.44     0.187 C 
HETATM   26  C11 MIQ B 502       7.620 -19.728   8.700  1.00144.08     0.149 C 
ENDBRANCH   5  21
TORSDOF 2
ENDMDL
MODEL 9
REMARK VINA RESULT:      -6.7      1.507      2.760
REMARK  2 active torsions:
REMARK  status: ('A' for Active; 'I' for Inactive)
REMARK    1  A    between atoms: C5_5  and  N6_21 
REMARK    2  A    between atoms: C18_14  and  N17_19 
ROOT
HETATM    1  O1  MIQ B 502      10.856 -14.618  12.467  1.00142.91    -0.171 OA
HETATM    2  C2  MIQ B 502      10.263 -15.008  13.670  1.00141.17     0.195 A 
HETATM    3  C3  MIQ B 502       9.650 -14.058  14.747  1.00141.71     0.035 A 
HETATM    4  C4  MIQ B 502       9.505 -12.586  14.843  1.00142.86     0.046 A 
HETATM    5  C5  MIQ B 502       8.886 -11.999  15.976  1.00139.53     0.031 A 
HETATM    6  C12 MIQ B 502       8.390 -12.848  17.049  1.00139.38     0.030 A 
HETATM    7  C13 MIQ B 502       8.528 -14.259  16.957  1.00141.18     0.019 A 
HETATM    8  C14 MIQ B 502       9.176 -14.870  15.764  1.00138.77     0.033 A 
HETATM    9  C15 MIQ B 502       9.496 -16.333  15.316  1.00142.10     0.195 A 
HETATM   10  N17 MIQ B 502      10.093 -16.232  14.139  1.00139.42    -0.288 N 
HETATM   11  O16 MIQ B 502       9.210 -17.505  16.019  1.00148.93    -0.171 OA
ENDROOT
BRANCH  10  12
HETATM   12  C18 MIQ B 502      10.551 -17.406  13.419  1.00139.82     0.187 C 
HETATM   13  C19 MIQ B 502       9.456 -18.475  13.521  1.00140.06     0.247 C 
HETATM   14  O25 MIQ B 502       8.346 -18.191  13.239  1.00143.95    -0.271 OA
HETATM   15  N20 MIQ B 502       9.747 -19.828  13.949  1.00140.02    -0.296 N 
HETATM   16  H13 MIQ B 502       9.021 -20.514  14.018  1.00142.77     0.171 HD
HETATM   17  C21 MIQ B 502      11.107 -20.147  14.299  1.00142.22     0.224 C 
HETATM   18  C22 MIQ B 502      11.924 -19.040  14.936  1.00139.52     0.106 C 
HETATM   19  O24 MIQ B 502      11.562 -21.218  14.092  1.00146.13    -0.273 OA
HETATM   20  C23 MIQ B 502      11.899 -17.873  13.967  1.00139.15     0.045 C 
ENDBRANCH  10  12
BRANCH   5  21
HETATM   21  N6  MIQ B 502       8.764 -10.555  16.064  1.00140.95    -0.377 N 
HETATM   22  C7  MIQ B 502       8.780  -9.935  17.377  1.00142.12     0.149 C 
HETATM   23  C8  MIQ B 502       8.030  -8.610  17.390  1.00144.10     0.187 C 
HETATM   24  O9  MIQ B 502       8.388  -7.773  16.331  1.00148.65    -0.388 OA
HETATM   25  C10 MIQ B 502       9.176  -8.256  15.282  1.00147.44     0.187 C 
HETATM   26  C11 MIQ B 502       9.066  -9.730  14.907  1.00144.08     0.149 C 
ENDBRANCH   5  21
TORSDOF 2
ENDMDL
