MODEL 1
REMARK VINA RESULT:      -7.6      0.000      0.000
REMARK  2 active torsions:
REMARK  status: ('A' for Active; 'I' for Inactive)
REMARK    1  A    between atoms: C5_5  and  N6_21 
REMARK    2  A    between atoms: C18_14  and  N17_19 
ROOT
HETATM    1  O1  MIQ B 502      -1.306 -13.396   3.174  1.00142.91    -0.171 OA
HETATM    2  C2  MIQ B 502      -1.234 -13.586   4.556  1.00141.17     0.195 A 
HETATM    3  C3  MIQ B 502       0.038 -13.993   5.366  1.00141.71     0.035 A 
HETATM    4  C4  MIQ B 502       1.441 -14.281   4.983  1.00142.86     0.046 A 
HETATM    5  C5  MIQ B 502       2.396 -14.633   5.970  1.00139.53     0.031 A 
HETATM    6  C12 MIQ B 502       1.994 -14.712   7.368  1.00139.38     0.030 A 
HETATM    7  C13 MIQ B 502       0.650 -14.435   7.735  1.00141.18     0.019 A 
HETATM    8  C14 MIQ B 502      -0.347 -14.063   6.694  1.00138.77     0.033 A 
HETATM    9  C15 MIQ B 502      -1.867 -13.696   6.710  1.00142.10     0.195 A 
HETATM   10  N17 MIQ B 502      -2.198 -13.459   5.451  1.00139.42    -0.288 N 
HETATM   11  O16 MIQ B 502      -2.701 -13.636   7.827  1.00148.93    -0.171 OA
ENDROOT
BRANCH  10  12
HETATM   12  C18 MIQ B 502      -3.554 -13.100   5.079  1.00139.82     0.187 C 
HETATM   13  C19 MIQ B 502      -4.034 -14.110   4.030  1.00140.06     0.247 C 
HETATM   14  O25 MIQ B 502      -3.929 -15.264   4.252  1.00143.95    -0.271 OA
HETATM   15  N20 MIQ B 502      -4.620 -13.687   2.775  1.00140.02    -0.296 N 
HETATM   16  H13 MIQ B 502      -4.924 -14.357   2.096  1.00142.77     0.171 HD
HETATM   17  C21 MIQ B 502      -4.728 -12.273   2.523  1.00142.22     0.224 C 
HETATM   18  C22 MIQ B 502      -3.632 -11.394   3.094  1.00139.52     0.106 C 
HETATM   19  O24 MIQ B 502      -5.630 -11.822   1.907  1.00146.13    -0.273 OA
HETATM   20  C23 MIQ B 502      -3.606 -11.654   4.589  1.00139.15     0.045 C 
ENDBRANCH  10  12
BRANCH   5  21
HETATM   21  N6  MIQ B 502       3.762 -14.927   5.579  1.00140.95    -0.377 N 
HETATM   22  C7  MIQ B 502       4.596 -13.839   5.096  1.00142.12     0.149 C 
HETATM   23  C8  MIQ B 502       5.689 -14.334   4.158  1.00144.10     0.187 C 
HETATM   24  O9  MIQ B 502       6.381 -15.437   4.664  1.00148.65    -0.388 OA
HETATM   25  C10 MIQ B 502       5.914 -16.105   5.799  1.00147.44     0.187 C 
HETATM   26  C11 MIQ B 502       4.412 -16.132   6.063  1.00144.08     0.149 C 
ENDBRANCH   5  21
TORSDOF 2
ENDMDL
MODEL 2
REMARK VINA RESULT:      -6.9      2.085      8.137
REMARK  2 active torsions:
REMARK  status: ('A' for Active; 'I' for Inactive)
REMARK    1  A    between atoms: C5_5  and  N6_21 
REMARK    2  A    between atoms: C18_14  and  N17_19 
ROOT
HETATM    1  O1  MIQ B 502       3.423 -12.470   3.816  1.00142.91    -0.171 OA
HETATM    2  C2  MIQ B 502       2.986 -13.480   4.677  1.00141.17     0.195 A 
HETATM    3  C3  MIQ B 502       1.502 -13.891   4.937  1.00141.71     0.035 A 
HETATM    4  C4  MIQ B 502       0.203 -13.405   4.415  1.00142.86     0.046 A 
HETATM    5  C5  MIQ B 502      -1.011 -13.994   4.851  1.00139.53     0.031 A 
HETATM    6  C12 MIQ B 502      -0.979 -15.084   5.816  1.00139.38     0.030 A 
HETATM    7  C13 MIQ B 502       0.266 -15.551   6.316  1.00141.18     0.019 A 
HETATM    8  C14 MIQ B 502       1.537 -14.930   5.853  1.00138.77     0.033 A 
HETATM    9  C15 MIQ B 502       3.052 -15.165   6.162  1.00142.10     0.195 A 
HETATM   10  N17 MIQ B 502       3.715 -14.285   5.430  1.00139.42    -0.288 N 
HETATM   11  O16 MIQ B 502       3.589 -16.111   7.037  1.00148.93    -0.171 OA
ENDROOT
BRANCH  10  12
HETATM   12  C18 MIQ B 502       5.163 -14.201   5.474  1.00139.82     0.187 C 
HETATM   13  C19 MIQ B 502       5.539 -12.737   5.733  1.00140.06     0.247 C 
HETATM   14  O25 MIQ B 502       5.037 -12.165   6.634  1.00143.95    -0.271 OA
HETATM   15  N20 MIQ B 502       6.499 -12.037   4.905  1.00140.02    -0.296 N 
HETATM   16  H13 MIQ B 502       6.731 -11.079   5.080  1.00142.77     0.171 HD
HETATM   17  C21 MIQ B 502       7.090 -12.755   3.804  1.00142.22     0.224 C 
HETATM   18  C22 MIQ B 502       6.216 -13.783   3.113  1.00139.52     0.106 C 
HETATM   19  O24 MIQ B 502       8.203 -12.553   3.463  1.00146.13    -0.273 OA
HETATM   20  C23 MIQ B 502       5.767 -14.758   4.186  1.00139.15     0.045 C 
ENDBRANCH  10  12
BRANCH   5  21
HETATM   21  N6  MIQ B 502      -2.277 -13.498   4.342  1.00140.95    -0.377 N 
HETATM   22  C7  MIQ B 502      -3.436 -13.527   5.217  1.00142.12     0.149 C 
HETATM   23  C8  MIQ B 502      -4.739 -13.611   4.432  1.00144.10     0.187 C 
HETATM   24  O9  MIQ B 502      -4.803 -12.688   3.386  1.00148.65    -0.388 OA
HETATM   25  C10 MIQ B 502      -3.669 -11.964   3.011  1.00147.44     0.187 C 
HETATM   26  C11 MIQ B 502      -2.299 -12.607   3.196  1.00144.08     0.149 C 
ENDBRANCH   5  21
TORSDOF 2
ENDMDL
MODEL 3
REMARK VINA RESULT:      -6.7      1.857      3.025
REMARK  2 active torsions:
REMARK  status: ('A' for Active; 'I' for Inactive)
REMARK    1  A    between atoms: C5_5  and  N6_21 
REMARK    2  A    between atoms: C18_14  and  N17_19 
ROOT
HETATM    1  O1  MIQ B 502      -2.696 -13.611   7.913  1.00142.91    -0.171 OA
HETATM    2  C2  MIQ B 502      -1.882 -13.686   6.781  1.00141.17     0.195 A 
HETATM    3  C3  MIQ B 502      -0.359 -14.034   6.761  1.00141.71     0.035 A 
HETATM    4  C4  MIQ B 502       0.623 -14.368   7.820  1.00142.86     0.046 A 
HETATM    5  C5  MIQ B 502       1.972 -14.646   7.484  1.00139.53     0.031 A 
HETATM    6  C12 MIQ B 502       2.393 -14.602   6.091  1.00139.38     0.030 A 
HETATM    7  C13 MIQ B 502       1.452 -14.283   5.076  1.00141.18     0.019 A 
HETATM    8  C14 MIQ B 502       0.036 -13.995   5.434  1.00138.77     0.033 A 
HETATM    9  C15 MIQ B 502      -1.248 -13.621   4.625  1.00142.10     0.195 A 
HETATM   10  N17 MIQ B 502      -2.216 -13.489   5.517  1.00139.42    -0.288 N 
HETATM   11  O16 MIQ B 502      -1.347 -13.459   3.242  1.00148.93    -0.171 OA
ENDROOT
BRANCH  10  12
HETATM   12  C18 MIQ B 502      -3.565 -13.125   5.123  1.00139.82     0.187 C 
HETATM   13  C19 MIQ B 502      -4.035 -14.139   4.073  1.00140.06     0.247 C 
HETATM   14  O25 MIQ B 502      -3.939 -15.292   4.302  1.00143.95    -0.271 OA
HETATM   15  N20 MIQ B 502      -4.600 -13.720   2.806  1.00140.02    -0.296 N 
HETATM   16  H13 MIQ B 502      -4.896 -14.392   2.126  1.00142.77     0.171 HD
HETATM   17  C21 MIQ B 502      -4.697 -12.307   2.545  1.00142.22     0.224 C 
HETATM   18  C22 MIQ B 502      -3.605 -11.431   3.127  1.00139.52     0.106 C 
HETATM   19  O24 MIQ B 502      -5.587 -11.856   1.913  1.00146.13    -0.273 OA
HETATM   20  C23 MIQ B 502      -3.602 -11.681   4.624  1.00139.15     0.045 C 
ENDBRANCH  10  12
BRANCH   5  21
HETATM   21  N6  MIQ B 502       2.927 -14.957   8.532  1.00140.95    -0.377 N 
HETATM   22  C7  MIQ B 502       2.445 -15.074   9.898  1.00142.12     0.149 C 
HETATM   23  C8  MIQ B 502       3.535 -14.757  10.914  1.00144.10     0.187 C 
HETATM   24  O9  MIQ B 502       4.736 -15.416  10.646  1.00148.65    -0.388 OA
HETATM   25  C10 MIQ B 502       4.920 -16.087   9.435  1.00147.44     0.187 C 
HETATM   26  C11 MIQ B 502       4.202 -15.565   8.195  1.00144.08     0.149 C 
ENDBRANCH   5  21
TORSDOF 2
ENDMDL
MODEL 4
REMARK VINA RESULT:      -6.5      2.336      8.521
REMARK  2 active torsions:
REMARK  status: ('A' for Active; 'I' for Inactive)
REMARK    1  A    between atoms: C5_5  and  N6_21 
REMARK    2  A    between atoms: C18_14  and  N17_19 
ROOT
HETATM    1  O1  MIQ B 502       3.458 -11.379   3.090  1.00142.91    -0.171 OA
HETATM    2  C2  MIQ B 502       3.401 -12.430   4.008  1.00141.17     0.195 A 
HETATM    3  C3  MIQ B 502       2.120 -13.219   4.428  1.00141.71     0.035 A 
HETATM    4  C4  MIQ B 502       0.693 -13.129   4.036  1.00142.86     0.046 A 
HETATM    5  C5  MIQ B 502      -0.263 -14.007   4.605  1.00139.53     0.031 A 
HETATM    6  C12 MIQ B 502       0.159 -15.003   5.579  1.00139.38     0.030 A 
HETATM    7  C13 MIQ B 502       1.527 -15.090   5.955  1.00141.18     0.019 A 
HETATM    8  C14 MIQ B 502       2.527 -14.167   5.352  1.00138.77     0.033 A 
HETATM    9  C15 MIQ B 502       4.070 -13.967   5.506  1.00142.10     0.195 A 
HETATM   10  N17 MIQ B 502       4.392 -12.973   4.695  1.00139.42    -0.288 N 
HETATM   11  O16 MIQ B 502       4.929 -14.691   6.335  1.00148.93    -0.171 OA
ENDROOT
BRANCH  10  12
HETATM   12  C18 MIQ B 502       5.758 -12.495   4.587  1.00139.82     0.187 C 
HETATM   13  C19 MIQ B 502       6.655 -13.705   4.300  1.00140.06     0.247 C 
HETATM   14  O25 MIQ B 502       6.373 -14.435   3.417  1.00143.95    -0.271 OA
HETATM   15  N20 MIQ B 502       7.846 -13.975   5.080  1.00140.02    -0.296 N 
HETATM   16  H13 MIQ B 502       8.419 -14.772   4.886  1.00142.77     0.171 HD
HETATM   17  C21 MIQ B 502       8.164 -13.076   6.158  1.00142.22     0.224 C 
HETATM   18  C22 MIQ B 502       6.993 -12.455   6.896  1.00139.52     0.106 C 
HETATM   19  O24 MIQ B 502       9.283 -12.831   6.449  1.00146.13    -0.273 OA
HETATM   20  C23 MIQ B 502       6.158 -11.737   5.851  1.00139.15     0.045 C 
ENDBRANCH  10  12
BRANCH   5  21
HETATM   21  N6  MIQ B 502      -1.659 -13.898   4.222  1.00140.95    -0.377 N 
HETATM   22  C7  MIQ B 502      -2.651 -13.694   5.264  1.00142.12     0.149 C 
HETATM   23  C8  MIQ B 502      -4.019 -14.227   4.859  1.00144.10     0.187 C 
HETATM   24  O9  MIQ B 502      -4.405 -13.820   3.581  1.00148.65    -0.388 OA
HETATM   25  C10 MIQ B 502      -3.489 -13.192   2.732  1.00147.44     0.187 C 
HETATM   26  C11 MIQ B 502      -2.013 -13.555   2.856  1.00144.08     0.149 C 
ENDBRANCH   5  21
TORSDOF 2
ENDMDL
MODEL 5
REMARK VINA RESULT:      -6.3      5.322     11.064
REMARK  2 active torsions:
REMARK  status: ('A' for Active; 'I' for Inactive)
REMARK    1  A    between atoms: C5_5  and  N6_21 
REMARK    2  A    between atoms: C18_14  and  N17_19 
ROOT
HETATM    1  O1  MIQ B 502       8.933 -15.592   3.378  1.00142.91    -0.171 OA
HETATM    2  C2  MIQ B 502       8.352 -16.802   3.765  1.00141.17     0.195 A 
HETATM    3  C3  MIQ B 502       7.031 -16.971   4.581  1.00141.71     0.035 A 
HETATM    4  C4  MIQ B 502       6.056 -16.012   5.152  1.00142.86     0.046 A 
HETATM    5  C5  MIQ B 502       4.921 -16.480   5.860  1.00139.53     0.031 A 
HETATM    6  C12 MIQ B 502       4.712 -17.911   6.027  1.00139.38     0.030 A 
HETATM    7  C13 MIQ B 502       5.646 -18.831   5.478  1.00141.18     0.019 A 
HETATM    8  C14 MIQ B 502       6.835 -18.334   4.734  1.00138.77     0.033 A 
HETATM    9  C15 MIQ B 502       8.041 -19.015   4.008  1.00142.10     0.195 A 
HETATM   10  N17 MIQ B 502       8.781 -18.030   3.527  1.00139.42    -0.288 N 
HETATM   11  O16 MIQ B 502       8.283 -20.385   3.896  1.00148.93    -0.171 OA
ENDROOT
BRANCH  10  12
HETATM   12  C18 MIQ B 502      10.007 -18.291   2.796  1.00139.82     0.187 C 
HETATM   13  C19 MIQ B 502      11.115 -17.432   3.420  1.00140.06     0.247 C 
HETATM   14  O25 MIQ B 502      11.282 -17.466   4.587  1.00143.95    -0.271 OA
HETATM   15  N20 MIQ B 502      11.968 -16.583   2.614  1.00140.02    -0.296 N 
HETATM   16  H13 MIQ B 502      12.683 -16.022   3.033  1.00142.77     0.171 HD
HETATM   17  C21 MIQ B 502      11.737 -16.550   1.192  1.00142.22     0.224 C 
HETATM   18  C22 MIQ B 502      10.302 -16.708   0.731  1.00139.52     0.106 C 
HETATM   19  O24 MIQ B 502      12.626 -16.413   0.425  1.00146.13    -0.273 OA
HETATM   20  C23 MIQ B 502       9.806 -18.023   1.306  1.00139.15     0.045 C 
ENDBRANCH  10  12
BRANCH   5  21
HETATM   21  N6  MIQ B 502       3.982 -15.528   6.427  1.00140.95    -0.377 N 
HETATM   22  C7  MIQ B 502       3.593 -14.378   5.630  1.00142.12     0.149 C 
HETATM   23  C8  MIQ B 502       3.174 -13.199   6.500  1.00144.10     0.187 C 
HETATM   24  O9  MIQ B 502       2.277 -13.558   7.507  1.00148.65    -0.388 OA
HETATM   25  C10 MIQ B 502       2.019 -14.905   7.778  1.00147.44     0.187 C 
HETATM   26  C11 MIQ B 502       3.127 -15.923   7.533  1.00144.08     0.149 C 
ENDBRANCH   5  21
TORSDOF 2
ENDMDL
MODEL 6
REMARK VINA RESULT:      -6.2      2.131      8.082
REMARK  2 active torsions:
REMARK  status: ('A' for Active; 'I' for Inactive)
REMARK    1  A    between atoms: C5_5  and  N6_21 
REMARK    2  A    between atoms: C18_14  and  N17_19 
ROOT
HETATM    1  O1  MIQ B 502       3.187 -13.475   4.889  1.00142.91    -0.171 OA
HETATM    2  C2  MIQ B 502       2.427 -14.332   5.689  1.00141.17     0.195 A 
HETATM    3  C3  MIQ B 502       0.870 -14.461   5.682  1.00141.71     0.035 A 
HETATM    4  C4  MIQ B 502      -0.204 -13.795   4.908  1.00142.86     0.046 A 
HETATM    5  C5  MIQ B 502      -1.563 -14.135   5.130  1.00139.53     0.031 A 
HETATM    6  C12 MIQ B 502      -1.903 -15.143   6.123  1.00139.38     0.030 A 
HETATM    7  C13 MIQ B 502      -0.873 -15.782   6.865  1.00141.18     0.019 A 
HETATM    8  C14 MIQ B 502       0.552 -15.424   6.626  1.00138.77     0.033 A 
HETATM    9  C15 MIQ B 502       1.918 -15.895   7.222  1.00142.10     0.195 A 
HETATM   10  N17 MIQ B 502       2.850 -15.196   6.595  1.00139.42    -0.288 N 
HETATM   11  O16 MIQ B 502       2.109 -16.856   8.216  1.00148.93    -0.171 OA
ENDROOT
BRANCH  10  12
HETATM   12  C18 MIQ B 502       4.258 -15.361   6.907  1.00139.82     0.187 C 
HETATM   13  C19 MIQ B 502       4.818 -13.983   7.283  1.00140.06     0.247 C 
HETATM   14  O25 MIQ B 502       4.259 -13.337   8.097  1.00143.95    -0.271 OA
HETATM   15  N20 MIQ B 502       6.019 -13.454   6.670  1.00140.02    -0.296 N 
HETATM   16  H13 MIQ B 502       6.370 -12.551   6.920  1.00142.77     0.171 HD
HETATM   17  C21 MIQ B 502       6.677 -14.257   5.672  1.00142.22     0.224 C 
HETATM   18  C22 MIQ B 502       5.788 -15.118   4.796  1.00139.52     0.106 C 
HETATM   19  O24 MIQ B 502       7.852 -14.247   5.548  1.00146.13    -0.273 OA
HETATM   20  C23 MIQ B 502       4.990 -16.007   5.732  1.00139.15     0.045 C 
ENDBRANCH  10  12
BRANCH   5  21
HETATM   21  N6  MIQ B 502      -2.606 -13.464   4.375  1.00140.95    -0.377 N 
HETATM   22  C7  MIQ B 502      -3.939 -13.388   4.948  1.00142.12     0.149 C 
HETATM   23  C8  MIQ B 502      -5.014 -13.276   3.874  1.00144.10     0.187 C 
HETATM   24  O9  MIQ B 502      -4.722 -12.307   2.912  1.00148.65    -0.388 OA
HETATM   25  C10 MIQ B 502      -3.458 -11.712   2.867  1.00147.44     0.187 C 
HETATM   26  C11 MIQ B 502      -2.252 -12.527   3.323  1.00144.08     0.149 C 
ENDBRANCH   5  21
TORSDOF 2
ENDMDL
MODEL 7
REMARK VINA RESULT:      -6.2      3.678      5.602
REMARK  2 active torsions:
REMARK  status: ('A' for Active; 'I' for Inactive)
REMARK    1  A    between atoms: C5_5  and  N6_21 
REMARK    2  A    between atoms: C18_14  and  N17_19 
ROOT
HETATM    1  O1  MIQ B 502       2.704 -14.591   7.724  1.00142.91    -0.171 OA
HETATM    2  C2  MIQ B 502       2.484 -14.066   6.449  1.00141.17     0.195 A 
HETATM    3  C3  MIQ B 502       3.564 -13.438   5.511  1.00141.71     0.035 A 
HETATM    4  C4  MIQ B 502       5.023 -13.215   5.643  1.00142.86     0.046 A 
HETATM    5  C5  MIQ B 502       5.753 -12.605   4.592  1.00139.53     0.031 A 
HETATM    6  C12 MIQ B 502       5.064 -12.197   3.376  1.00139.38     0.030 A 
HETATM    7  C13 MIQ B 502       3.665 -12.411   3.248  1.00141.18     0.019 A 
HETATM    8  C14 MIQ B 502       2.904 -13.054   4.354  1.00138.77     0.033 A 
HETATM    9  C15 MIQ B 502       1.407 -13.447   4.575  1.00142.10     0.195 A 
HETATM   10  N17 MIQ B 502       1.347 -13.995   5.778  1.00139.42    -0.288 N 
HETATM   11  O16 MIQ B 502       0.352 -13.254   3.682  1.00148.93    -0.171 OA
ENDROOT
BRANCH  10  12
HETATM   12  C18 MIQ B 502       0.093 -14.471   6.331  1.00139.82     0.187 C 
HETATM   13  C19 MIQ B 502      -0.069 -13.851   7.724  1.00140.06     0.247 C 
HETATM   14  O25 MIQ B 502       0.055 -12.685   7.854  1.00143.95    -0.271 OA
HETATM   15  N20 MIQ B 502      -0.376 -14.657   8.888  1.00140.02    -0.296 N 
HETATM   16  H13 MIQ B 502      -0.472 -14.241   9.793  1.00142.77     0.171 HD
HETATM   17  C21 MIQ B 502      -0.512 -16.080   8.707  1.00142.22     0.224 C 
HETATM   18  C22 MIQ B 502       0.366 -16.718   7.648  1.00139.52     0.106 C 
HETATM   19  O24 MIQ B 502      -1.275 -16.714   9.349  1.00146.13    -0.273 OA
HETATM   20  C23 MIQ B 502       0.064 -15.999   6.346  1.00139.15     0.045 C 
ENDBRANCH  10  12
BRANCH   5  21
HETATM   21  N6  MIQ B 502       7.179 -12.379   4.741  1.00140.95    -0.377 N 
HETATM   22  C7  MIQ B 502       7.723 -12.235   6.080  1.00142.12     0.149 C 
HETATM   23  C8  MIQ B 502       8.997 -11.400   6.090  1.00144.10     0.187 C 
HETATM   24  O9  MIQ B 502       9.913 -11.794   5.113  1.00148.65    -0.388 OA
HETATM   25  C10 MIQ B 502       9.540 -12.703   4.119  1.00147.44     0.187 C 
HETATM   26  C11 MIQ B 502       8.086 -12.727   3.661  1.00144.08     0.149 C 
ENDBRANCH   5  21
TORSDOF 2
ENDMDL
MODEL 8
REMARK VINA RESULT:      -6.2     10.358     12.524
REMARK  2 active torsions:
REMARK  status: ('A' for Active; 'I' for Inactive)
REMARK    1  A    between atoms: C5_5  and  N6_21 
REMARK    2  A    between atoms: C18_14  and  N17_19 
ROOT
HETATM    1  O1  MIQ B 502      11.837 -16.798   3.783  1.00142.91    -0.171 OA
HETATM    2  C2  MIQ B 502      11.006 -15.678   3.852  1.00141.17     0.195 A 
HETATM    3  C3  MIQ B 502      11.273 -14.380   4.679  1.00141.71     0.035 A 
HETATM    4  C4  MIQ B 502      12.378 -13.948   5.568  1.00142.86     0.046 A 
HETATM    5  C5  MIQ B 502      12.338 -12.677   6.194  1.00139.53     0.031 A 
HETATM    6  C12 MIQ B 502      11.206 -11.791   5.961  1.00139.38     0.030 A 
HETATM    7  C13 MIQ B 502      10.148 -12.204   5.107  1.00141.18     0.019 A 
HETATM    8  C14 MIQ B 502      10.196 -13.539   4.451  1.00138.77     0.033 A 
HETATM    9  C15 MIQ B 502       9.255 -14.319   3.476  1.00142.10     0.195 A 
HETATM   10  N17 MIQ B 502       9.849 -15.478   3.243  1.00139.42    -0.288 N 
HETATM   11  O16 MIQ B 502       8.034 -13.879   2.962  1.00148.93    -0.171 OA
ENDROOT
BRANCH  10  12
HETATM   12  C18 MIQ B 502       9.247 -16.478   2.382  1.00139.82     0.187 C 
HETATM   13  C19 MIQ B 502       9.144 -17.783   3.182  1.00140.06     0.247 C 
HETATM   14  O25 MIQ B 502       8.646 -17.765   4.251  1.00143.95    -0.271 OA
HETATM   15  N20 MIQ B 502       9.636 -19.041   2.658  1.00140.02    -0.296 N 
HETATM   16  H13 MIQ B 502       9.569 -19.884   3.193  1.00142.77     0.171 HD
HETATM   17  C21 MIQ B 502      10.249 -19.035   1.355  1.00142.22     0.224 C 
HETATM   18  C22 MIQ B 502      11.022 -17.788   0.971  1.00139.52     0.106 C 
HETATM   19  O24 MIQ B 502      10.149 -19.956   0.621  1.00146.13    -0.273 OA
HETATM   20  C23 MIQ B 502      10.054 -16.626   1.093  1.00139.15     0.045 C 
ENDBRANCH  10  12
BRANCH   5  21
HETATM   21  N6  MIQ B 502      13.419 -12.273   7.075  1.00140.95    -0.377 N 
HETATM   22  C7  MIQ B 502      13.211 -12.349   8.510  1.00142.12     0.149 C 
HETATM   23  C8  MIQ B 502      14.080 -11.351   9.265  1.00144.10     0.187 C 
HETATM   24  O9  MIQ B 502      15.414 -11.372   8.853  1.00148.65    -0.388 OA
HETATM   25  C10 MIQ B 502      15.791 -12.082   7.710  1.00147.44     0.187 C 
HETATM   26  C11 MIQ B 502      14.783 -12.227   6.576  1.00144.08     0.149 C 
ENDBRANCH   5  21
TORSDOF 2
ENDMDL
MODEL 9
REMARK VINA RESULT:      -6.1      9.771     12.460
REMARK  2 active torsions:
REMARK  status: ('A' for Active; 'I' for Inactive)
REMARK    1  A    between atoms: C5_5  and  N6_21 
REMARK    2  A    between atoms: C18_14  and  N17_19 
ROOT
HETATM    1  O1  MIQ B 502      10.756 -16.123   3.295  1.00142.91    -0.171 OA
HETATM    2  C2  MIQ B 502      10.619 -17.265   4.087  1.00141.17     0.195 A 
HETATM    3  C3  MIQ B 502      11.503 -17.645   5.317  1.00141.71     0.035 A 
HETATM    4  C4  MIQ B 502      12.653 -16.992   5.986  1.00142.86     0.046 A 
HETATM    5  C5  MIQ B 502      13.262 -17.596   7.116  1.00139.53     0.031 A 
HETATM    6  C12 MIQ B 502      12.754 -18.864   7.620  1.00139.38     0.030 A 
HETATM    7  C13 MIQ B 502      11.650 -19.489   6.979  1.00141.18     0.019 A 
HETATM    8  C14 MIQ B 502      11.013 -18.850   5.796  1.00138.77     0.033 A 
HETATM    9  C15 MIQ B 502       9.818 -19.219   4.857  1.00142.10     0.195 A 
HETATM   10  N17 MIQ B 502       9.734 -18.240   3.971  1.00139.42    -0.288 N 
HETATM   11  O16 MIQ B 502       9.010 -20.354   4.940  1.00148.93    -0.171 OA
ENDROOT
BRANCH  10  12
HETATM   12  C18 MIQ B 502       8.735 -18.255   2.919  1.00139.82     0.187 C 
HETATM   13  C19 MIQ B 502       7.367 -18.479   3.577  1.00140.06     0.247 C 
HETATM   14  O25 MIQ B 502       7.044 -17.794   4.481  1.00143.95    -0.271 OA
HETATM   15  N20 MIQ B 502       6.456 -19.505   3.113  1.00140.02    -0.296 N 
HETATM   16  H13 MIQ B 502       5.569 -19.645   3.555  1.00142.77     0.171 HD
HETATM   17  C21 MIQ B 502       6.877 -20.335   2.014  1.00142.22     0.224 C 
HETATM   18  C22 MIQ B 502       8.358 -20.648   1.926  1.00139.52     0.106 C 
HETATM   19  O24 MIQ B 502       6.105 -20.745   1.219  1.00146.13    -0.273 OA
HETATM   20  C23 MIQ B 502       9.079 -19.313   1.873  1.00139.15     0.045 C 
ENDBRANCH  10  12
BRANCH   5  21
HETATM   21  N6  MIQ B 502      14.398 -16.953   7.752  1.00140.95    -0.377 N 
HETATM   22  C7  MIQ B 502      14.833 -15.660   7.253  1.00142.12     0.149 C 
HETATM   23  C8  MIQ B 502      16.313 -15.417   7.520  1.00144.10     0.187 C 
HETATM   24  O9  MIQ B 502      16.682 -15.704   8.836  1.00148.65    -0.388 OA
HETATM   25  C10 MIQ B 502      15.795 -16.362   9.692  1.00147.44     0.187 C 
HETATM   26  C11 MIQ B 502      14.797 -17.346   9.092  1.00144.08     0.149 C 
ENDBRANCH   5  21
TORSDOF 2
ENDMDL
