MODEL 1
REMARK VINA RESULT:      -7.0      0.000      0.000
REMARK  2 active torsions:
REMARK  status: ('A' for Active; 'I' for Inactive)
REMARK    1  A    between atoms: C5_5  and  N6_21 
REMARK    2  A    between atoms: C18_14  and  N17_19 
ROOT
HETATM    1  O1  MIQ B 502      22.253  -5.650  -7.222  1.00142.91    -0.171 OA
HETATM    2  C2  MIQ B 502      21.028  -5.113  -6.821  1.00141.17     0.195 A 
HETATM    3  C3  MIQ B 502      20.262  -5.449  -5.502  1.00141.71     0.035 A 
HETATM    4  C4  MIQ B 502      20.547  -6.348  -4.358  1.00142.86     0.046 A 
HETATM    5  C5  MIQ B 502      19.637  -6.441  -3.275  1.00139.53     0.031 A 
HETATM    6  C12 MIQ B 502      18.416  -5.649  -3.288  1.00139.38     0.030 A 
HETATM    7  C13 MIQ B 502      18.142  -4.786  -4.383  1.00141.18     0.019 A 
HETATM    8  C14 MIQ B 502      19.103  -4.691  -5.516  1.00138.77     0.033 A 
HETATM    9  C15 MIQ B 502      19.150  -3.879  -6.852  1.00142.10     0.195 A 
HETATM   10  N17 MIQ B 502      20.277  -4.227  -7.451  1.00139.42    -0.288 N 
HETATM   11  O16 MIQ B 502      18.192  -2.975  -7.314  1.00148.93    -0.171 OA
ENDROOT
BRANCH  10  12
HETATM   12  C18 MIQ B 502      20.650  -3.675  -8.740  1.00139.82     0.187 C 
HETATM   13  C19 MIQ B 502      20.727  -2.151  -8.593  1.00140.06     0.247 C 
HETATM   14  O25 MIQ B 502      21.365  -1.689  -7.715  1.00143.95    -0.271 OA
HETATM   15  N20 MIQ B 502      20.042  -1.260  -9.506  1.00140.02    -0.296 N 
HETATM   16  H13 MIQ B 502      20.095  -0.266  -9.395  1.00142.77     0.171 HD
HETATM   17  C21 MIQ B 502      19.261  -1.848 -10.563  1.00142.22     0.224 C 
HETATM   18  C22 MIQ B 502      18.575  -3.164 -10.252  1.00139.52     0.106 C 
HETATM   19  O24 MIQ B 502      19.166  -1.331 -11.622  1.00146.13    -0.273 OA
HETATM   20  C23 MIQ B 502      19.664  -4.126  -9.817  1.00139.15     0.045 C 
ENDBRANCH  10  12
BRANCH   5  21
HETATM   21  N6  MIQ B 502      19.922  -7.336  -2.169  1.00140.95    -0.377 N 
HETATM   22  C7  MIQ B 502      21.129  -7.117  -1.390  1.00142.12     0.149 C 
HETATM   23  C8  MIQ B 502      21.633  -8.402  -0.747  1.00144.10     0.187 C 
HETATM   24  O9  MIQ B 502      20.624  -9.115  -0.095  1.00148.65    -0.388 OA
HETATM   25  C10 MIQ B 502      19.284  -8.754  -0.258  1.00147.44     0.187 C 
HETATM   26  C11 MIQ B 502      18.854  -8.124  -1.578  1.00144.08     0.149 C 
ENDBRANCH   5  21
TORSDOF 2
ENDMDL
MODEL 2
REMARK VINA RESULT:      -6.6     19.843     23.981
REMARK  2 active torsions:
REMARK  status: ('A' for Active; 'I' for Inactive)
REMARK    1  A    between atoms: C5_5  and  N6_21 
REMARK    2  A    between atoms: C18_14  and  N17_19 
ROOT
HETATM    1  O1  MIQ B 502       4.695 -19.070   2.573  1.00142.91    -0.171 OA
HETATM    2  C2  MIQ B 502       5.601 -20.060   2.956  1.00141.17     0.195 A 
HETATM    3  C3  MIQ B 502       5.244 -21.438   3.601  1.00141.71     0.035 A 
HETATM    4  C4  MIQ B 502       3.966 -22.086   3.977  1.00142.86     0.046 A 
HETATM    5  C5  MIQ B 502       3.961 -23.379   4.558  1.00139.53     0.031 A 
HETATM    6  C12 MIQ B 502       5.221 -24.073   4.786  1.00139.38     0.030 A 
HETATM    7  C13 MIQ B 502       6.447 -23.453   4.424  1.00141.18     0.019 A 
HETATM    8  C14 MIQ B 502       6.445 -22.096   3.812  1.00138.77     0.033 A 
HETATM    9  C15 MIQ B 502       7.554 -21.122   3.295  1.00142.10     0.195 A 
HETATM   10  N17 MIQ B 502       6.919 -20.048   2.854  1.00139.42    -0.288 N 
HETATM   11  O16 MIQ B 502       8.932 -21.344   3.303  1.00148.93    -0.171 OA
ENDROOT
BRANCH  10  12
HETATM   12  C18 MIQ B 502       7.641 -18.913   2.309  1.00139.82     0.187 C 
HETATM   13  C19 MIQ B 502       7.263 -17.678   3.136  1.00140.06     0.247 C 
HETATM   14  O25 MIQ B 502       7.341 -17.726   4.312  1.00143.95    -0.271 OA
HETATM   15  N20 MIQ B 502       6.816 -16.448   2.513  1.00140.02    -0.296 N 
HETATM   16  H13 MIQ B 502       6.566 -15.651   3.064  1.00142.77     0.171 HD
HETATM   17  C21 MIQ B 502       6.719 -16.418   1.076  1.00142.22     0.224 C 
HETATM   18  C22 MIQ B 502       6.321 -17.712   0.392  1.00139.52     0.106 C 
HETATM   19  O24 MIQ B 502       6.943 -15.433   0.463  1.00146.13    -0.273 OA
HETATM   20  C23 MIQ B 502       7.337 -18.755   0.820  1.00139.15     0.045 C 
ENDBRANCH  10  12
BRANCH   5  21
HETATM   21  N6  MIQ B 502       2.703 -23.996   4.935  1.00140.95    -0.377 N 
HETATM   22  C7  MIQ B 502       2.734 -25.280   5.614  1.00142.12     0.149 C 
HETATM   23  C8  MIQ B 502       1.461 -26.081   5.375  1.00144.10     0.187 C 
HETATM   24  O9  MIQ B 502       0.301 -25.330   5.573  1.00148.65    -0.388 OA
HETATM   25  C10 MIQ B 502       0.374 -23.944   5.737  1.00147.44     0.187 C 
HETATM   26  C11 MIQ B 502       1.502 -23.186   5.044  1.00144.08     0.149 C 
ENDBRANCH   5  21
TORSDOF 2
ENDMDL
MODEL 3
REMARK VINA RESULT:      -6.6      1.857      8.799
REMARK  2 active torsions:
REMARK  status: ('A' for Active; 'I' for Inactive)
REMARK    1  A    between atoms: C5_5  and  N6_21 
REMARK    2  A    between atoms: C18_14  and  N17_19 
ROOT
HETATM    1  O1  MIQ B 502      23.157  -7.470  -3.768  1.00142.91    -0.171 OA
HETATM    2  C2  MIQ B 502      21.850  -7.266  -3.319  1.00141.17     0.195 A 
HETATM    3  C3  MIQ B 502      20.777  -6.350  -3.989  1.00141.71     0.035 A 
HETATM    4  C4  MIQ B 502      20.783  -5.487  -5.195  1.00142.86     0.046 A 
HETATM    5  C5  MIQ B 502      19.623  -4.757  -5.559  1.00139.53     0.031 A 
HETATM    6  C12 MIQ B 502      18.421  -4.857  -4.745  1.00139.38     0.030 A 
HETATM    7  C13 MIQ B 502      18.414  -5.685  -3.590  1.00141.18     0.019 A 
HETATM    8  C14 MIQ B 502      19.634  -6.451  -3.213  1.00138.77     0.033 A 
HETATM    9  C15 MIQ B 502      19.999  -7.436  -2.055  1.00142.10     0.195 A 
HETATM   10  N17 MIQ B 502      21.255  -7.794  -2.263  1.00139.42    -0.288 N 
HETATM   11  O16 MIQ B 502      19.166  -7.847  -1.014  1.00148.93    -0.171 OA
ENDROOT
BRANCH  10  12
HETATM   12  C18 MIQ B 502      21.943  -8.702  -1.364  1.00139.82     0.187 C 
HETATM   13  C19 MIQ B 502      21.067  -9.950  -1.200  1.00140.06     0.247 C 
HETATM   14  O25 MIQ B 502      20.666 -10.503  -2.162  1.00143.95    -0.271 OA
HETATM   15  N20 MIQ B 502      20.722 -10.475   0.106  1.00140.02    -0.296 N 
HETATM   16  H13 MIQ B 502      20.144 -11.286   0.200  1.00142.77     0.171 HD
HETATM   17  C21 MIQ B 502      21.215  -9.776   1.265  1.00142.22     0.224 C 
HETATM   18  C22 MIQ B 502      21.345  -8.270   1.149  1.00139.52     0.106 C 
HETATM   19  O24 MIQ B 502      21.508 -10.352   2.255  1.00146.13    -0.273 OA
HETATM   20  C23 MIQ B 502      22.252  -8.006  -0.040  1.00139.15     0.045 C 
ENDBRANCH  10  12
BRANCH   5  21
HETATM   21  N6  MIQ B 502      19.648  -3.904  -6.734  1.00140.95    -0.377 N 
HETATM   22  C7  MIQ B 502      18.404  -3.666  -7.445  1.00142.12     0.149 C 
HETATM   23  C8  MIQ B 502      18.642  -3.343  -8.915  1.00144.10     0.187 C 
HETATM   24  O9  MIQ B 502      19.633  -2.379  -9.106  1.00148.65    -0.388 OA
HETATM   25  C10 MIQ B 502      20.440  -1.972  -8.040  1.00147.44     0.187 C 
HETATM   26  C11 MIQ B 502      20.747  -2.975  -6.933  1.00144.08     0.149 C 
ENDBRANCH   5  21
TORSDOF 2
ENDMDL
MODEL 4
REMARK VINA RESULT:      -6.5     25.033     26.665
REMARK  2 active torsions:
REMARK  status: ('A' for Active; 'I' for Inactive)
REMARK    1  A    between atoms: C5_5  and  N6_21 
REMARK    2  A    between atoms: C18_14  and  N17_19 
ROOT
HETATM    1  O1  MIQ B 502       1.798  -8.934 -23.186  1.00142.91    -0.171 OA
HETATM    2  C2  MIQ B 502       0.592  -8.230 -23.172  1.00141.17     0.195 A 
HETATM    3  C3  MIQ B 502      -0.678  -8.592 -22.337  1.00141.71     0.035 A 
HETATM    4  C4  MIQ B 502      -0.993  -9.682 -21.383  1.00142.86     0.046 A 
HETATM    5  C5  MIQ B 502      -2.268  -9.747 -20.766  1.00139.53     0.031 A 
HETATM    6  C12 MIQ B 502      -3.271  -8.737 -21.071  1.00139.38     0.030 A 
HETATM    7  C13 MIQ B 502      -2.969  -7.692 -21.984  1.00141.18     0.019 A 
HETATM    8  C14 MIQ B 502      -1.628  -7.627 -22.628  1.00138.77     0.033 A 
HETATM    9  C15 MIQ B 502      -0.945  -6.659 -23.648  1.00142.10     0.195 A 
HETATM   10  N17 MIQ B 502       0.276  -7.133 -23.839  1.00139.42    -0.288 N 
HETATM   11  O16 MIQ B 502      -1.513  -5.529 -24.238  1.00148.93    -0.171 OA
ENDROOT
BRANCH  10  12
HETATM   12  C18 MIQ B 502       1.204  -6.489 -24.749  1.00139.82     0.187 C 
HETATM   13  C19 MIQ B 502       1.663  -7.538 -25.769  1.00140.06     0.247 C 
HETATM   14  O25 MIQ B 502       0.853  -8.175 -26.344  1.00143.95    -0.271 OA
HETATM   15  N20 MIQ B 502       3.065  -7.766 -26.053  1.00140.02    -0.296 N 
HETATM   16  H13 MIQ B 502       3.352  -8.459 -26.716  1.00142.77     0.171 HD
HETATM   17  C21 MIQ B 502       4.035  -6.984 -25.331  1.00142.22     0.224 C 
HETATM   18  C22 MIQ B 502       3.681  -6.605 -23.906  1.00139.52     0.106 C 
HETATM   19  O24 MIQ B 502       5.054  -6.650 -25.829  1.00146.13    -0.273 OA
HETATM   20  C23 MIQ B 502       2.360  -5.860 -23.973  1.00139.15     0.045 C 
ENDBRANCH  10  12
BRANCH   5  21
HETATM   21  N6  MIQ B 502      -2.568 -10.828 -19.845  1.00140.95    -0.377 N 
HETATM   22  C7  MIQ B 502      -1.779 -10.946 -18.631  1.00142.12     0.149 C 
HETATM   23  C8  MIQ B 502      -1.731 -12.380 -18.120  1.00144.10     0.187 C 
HETATM   24  O9  MIQ B 502      -2.990 -12.983 -18.074  1.00148.65    -0.388 OA
HETATM   25  C10 MIQ B 502      -4.093 -12.364 -18.668  1.00147.44     0.187 C 
HETATM   26  C11 MIQ B 502      -3.864 -11.483 -19.892  1.00144.08     0.149 C 
ENDBRANCH   5  21
TORSDOF 2
ENDMDL
MODEL 5
REMARK VINA RESULT:      -6.3     26.997     27.801
REMARK  2 active torsions:
REMARK  status: ('A' for Active; 'I' for Inactive)
REMARK    1  A    between atoms: C5_5  and  N6_21 
REMARK    2  A    between atoms: C18_14  and  N17_19 
ROOT
HETATM    1  O1  MIQ B 502       5.360 -23.682 -17.484  1.00142.91    -0.171 OA
HETATM    2  C2  MIQ B 502       3.968 -23.573 -17.445  1.00141.17     0.195 A 
HETATM    3  C3  MIQ B 502       3.000 -24.434 -16.572  1.00141.71     0.035 A 
HETATM    4  C4  MIQ B 502       3.210 -25.532 -15.598  1.00142.86     0.046 A 
HETATM    5  C5  MIQ B 502       2.104 -26.132 -14.946  1.00139.53     0.031 A 
HETATM    6  C12 MIQ B 502       0.755 -25.667 -15.234  1.00139.38     0.030 A 
HETATM    7  C13 MIQ B 502       0.553 -24.614 -16.167  1.00141.18     0.019 A 
HETATM    8  C14 MIQ B 502       1.719 -23.986 -16.847  1.00138.77     0.033 A 
HETATM    9  C15 MIQ B 502       1.892 -22.839 -17.896  1.00142.10     0.195 A 
HETATM   10  N17 MIQ B 502       3.193 -22.738 -18.115  1.00139.42    -0.288 N 
HETATM   11  O16 MIQ B 502       0.876 -22.082 -18.482  1.00148.93    -0.171 OA
ENDROOT
BRANCH  10  12
HETATM   12  C18 MIQ B 502       3.730 -21.774 -19.057  1.00139.82     0.187 C 
HETATM   13  C19 MIQ B 502       4.673 -22.522 -20.006  1.00140.06     0.247 C 
HETATM   14  O25 MIQ B 502       4.290 -23.499 -20.546  1.00143.95    -0.271 OA
HETATM   15  N20 MIQ B 502       6.021 -22.060 -20.265  1.00140.02    -0.296 N 
HETATM   16  H13 MIQ B 502       6.629 -22.562 -20.882  1.00142.77     0.171 HD
HETATM   17  C21 MIQ B 502       6.469 -20.871 -19.586  1.00142.22     0.224 C 
HETATM   18  C22 MIQ B 502       5.925 -20.639 -18.190  1.00139.52     0.106 C 
HETATM   19  O24 MIQ B 502       7.218 -20.114 -20.096  1.00146.13    -0.273 OA
HETATM   20  C23 MIQ B 502       4.412 -20.627 -18.313  1.00139.15     0.045 C 
ENDBRANCH  10  12
BRANCH   5  21
HETATM   21  N6  MIQ B 502       2.323 -27.217 -14.006  1.00140.95    -0.377 N 
HETATM   22  C7  MIQ B 502       3.672 -27.726 -13.835  1.00142.12     0.149 C 
HETATM   23  C8  MIQ B 502       3.679 -29.179 -13.377  1.00144.10     0.187 C 
HETATM   24  O9  MIQ B 502       2.812 -29.415 -12.308  1.00148.65    -0.388 OA
HETATM   25  C10 MIQ B 502       1.897 -28.437 -11.909  1.00147.44     0.187 C 
HETATM   26  C11 MIQ B 502       1.348 -27.479 -12.961  1.00144.08     0.149 C 
ENDBRANCH   5  21
TORSDOF 2
ENDMDL
MODEL 6
REMARK VINA RESULT:      -6.3      1.934      2.538
REMARK  2 active torsions:
REMARK  status: ('A' for Active; 'I' for Inactive)
REMARK    1  A    between atoms: C5_5  and  N6_21 
REMARK    2  A    between atoms: C18_14  and  N17_19 
ROOT
HETATM    1  O1  MIQ B 502      21.279  -6.799  -7.920  1.00142.91    -0.171 OA
HETATM    2  C2  MIQ B 502      20.328  -5.937  -7.370  1.00141.17     0.195 A 
HETATM    3  C3  MIQ B 502      19.828  -5.938  -5.890  1.00141.71     0.035 A 
HETATM    4  C4  MIQ B 502      20.162  -6.760  -4.703  1.00142.86     0.046 A 
HETATM    5  C5  MIQ B 502      19.525  -6.515  -3.460  1.00139.53     0.031 A 
HETATM    6  C12 MIQ B 502      18.540  -5.449  -3.350  1.00139.38     0.030 A 
HETATM    7  C13 MIQ B 502      18.221  -4.660  -4.488  1.00141.18     0.019 A 
HETATM    8  C14 MIQ B 502      18.894  -4.921  -5.790  1.00138.77     0.033 A 
HETATM    9  C15 MIQ B 502      18.813  -4.284  -7.216  1.00142.10     0.195 A 
HETATM   10  N17 MIQ B 502      19.668  -4.959  -7.966  1.00139.42    -0.288 N 
HETATM   11  O16 MIQ B 502      17.999  -3.221  -7.611  1.00148.93    -0.171 OA
ENDROOT
BRANCH  10  12
HETATM   12  C18 MIQ B 502      19.849  -4.650  -9.372  1.00139.82     0.187 C 
HETATM   13  C19 MIQ B 502      19.701  -5.957 -10.161  1.00140.06     0.247 C 
HETATM   14  O25 MIQ B 502      18.754  -6.636  -9.978  1.00143.95    -0.271 OA
HETATM   15  N20 MIQ B 502      20.690  -6.380 -11.131  1.00140.02    -0.296 N 
HETATM   16  H13 MIQ B 502      20.585  -7.238 -11.635  1.00142.77     0.171 HD
HETATM   17  C21 MIQ B 502      21.843  -5.539 -11.329  1.00142.22     0.224 C 
HETATM   18  C22 MIQ B 502      22.356  -4.790 -10.115  1.00139.52     0.106 C 
HETATM   19  O24 MIQ B 502      22.358  -5.437 -12.388  1.00146.13    -0.273 OA
HETATM   20  C23 MIQ B 502      21.195  -3.962  -9.596  1.00139.15     0.045 C 
ENDBRANCH  10  12
BRANCH   5  21
HETATM   21  N6  MIQ B 502      19.850  -7.338  -2.309  1.00140.95    -0.377 N 
HETATM   22  C7  MIQ B 502      21.094  -7.083  -1.602  1.00142.12     0.149 C 
HETATM   23  C8  MIQ B 502      21.612  -8.329  -0.895  1.00144.10     0.187 C 
HETATM   24  O9  MIQ B 502      20.626  -8.982  -0.153  1.00148.65    -0.388 OA
HETATM   25  C10 MIQ B 502      19.284  -8.615  -0.280  1.00147.44     0.187 C 
HETATM   26  C11 MIQ B 502      18.801  -8.069  -1.620  1.00144.08     0.149 C 
ENDBRANCH   5  21
TORSDOF 2
ENDMDL
MODEL 7
REMARK VINA RESULT:      -6.2     25.155     27.775
REMARK  2 active torsions:
REMARK  status: ('A' for Active; 'I' for Inactive)
REMARK    1  A    between atoms: C5_5  and  N6_21 
REMARK    2  A    between atoms: C18_14  and  N17_19 
ROOT
HETATM    1  O1  MIQ B 502      -0.710 -11.408 -21.491  1.00142.91    -0.171 OA
HETATM    2  C2  MIQ B 502      -1.235 -10.136 -21.731  1.00141.17     0.195 A 
HETATM    3  C3  MIQ B 502      -0.550  -8.994 -22.548  1.00141.71     0.035 A 
HETATM    4  C4  MIQ B 502       0.742  -8.890 -23.267  1.00142.86     0.046 A 
HETATM    5  C5  MIQ B 502       1.095  -7.690 -23.935  1.00139.53     0.031 A 
HETATM    6  C12 MIQ B 502       0.182  -6.556 -23.916  1.00139.38     0.030 A 
HETATM    7  C13 MIQ B 502      -1.058  -6.657 -23.228  1.00141.18     0.019 A 
HETATM    8  C14 MIQ B 502      -1.424  -7.920 -22.530  1.00138.77     0.033 A 
HETATM    9  C15 MIQ B 502      -2.658  -8.397 -21.698  1.00142.10     0.195 A 
HETATM   10  N17 MIQ B 502      -2.395  -9.641 -21.334  1.00139.42    -0.288 N 
HETATM   11  O16 MIQ B 502      -3.803  -7.655 -21.399  1.00148.93    -0.171 OA
ENDROOT
BRANCH  10  12
HETATM   12  C18 MIQ B 502      -3.324 -10.407 -20.525  1.00139.82     0.187 C 
HETATM   13  C19 MIQ B 502      -2.524 -11.080 -19.403  1.00140.06     0.247 C 
HETATM   14  O25 MIQ B 502      -1.798 -10.426 -18.741  1.00143.95    -0.271 OA
HETATM   15  N20 MIQ B 502      -2.637 -12.498 -19.129  1.00140.02    -0.296 N 
HETATM   16  H13 MIQ B 502      -2.104 -12.926 -18.398  1.00142.77     0.171 HD
HETATM   17  C21 MIQ B 502      -3.521 -13.277 -19.957  1.00142.22     0.224 C 
HETATM   18  C22 MIQ B 502      -3.646 -12.851 -21.408  1.00139.52     0.106 C 
HETATM   19  O24 MIQ B 502      -4.121 -14.198 -19.525  1.00146.13    -0.273 OA
HETATM   20  C23 MIQ B 502      -4.093 -11.400 -21.394  1.00139.15     0.045 C 
ENDBRANCH  10  12
BRANCH   5  21
HETATM   21  N6  MIQ B 502       2.370  -7.596 -24.622  1.00140.95    -0.377 N 
HETATM   22  C7  MIQ B 502       2.665  -6.391 -25.378  1.00142.12     0.149 C 
HETATM   23  C8  MIQ B 502       3.648  -6.656 -26.511  1.00144.10     0.187 C 
HETATM   24  O9  MIQ B 502       4.762  -7.393 -26.103  1.00148.65    -0.388 OA
HETATM   25  C10 MIQ B 502       4.792  -7.989 -24.840  1.00147.44     0.187 C 
HETATM   26  C11 MIQ B 502       3.477  -8.445 -24.217  1.00144.08     0.149 C 
ENDBRANCH   5  21
TORSDOF 2
ENDMDL
MODEL 8
REMARK VINA RESULT:      -6.2      1.511      2.813
REMARK  2 active torsions:
REMARK  status: ('A' for Active; 'I' for Inactive)
REMARK    1  A    between atoms: C5_5  and  N6_21 
REMARK    2  A    between atoms: C18_14  and  N17_19 
ROOT
HETATM    1  O1  MIQ B 502      17.720  -4.459  -4.622  1.00142.91    -0.171 OA
HETATM    2  C2  MIQ B 502      18.990  -4.926  -4.967  1.00141.17     0.195 A 
HETATM    3  C3  MIQ B 502      19.879  -5.891  -4.120  1.00141.71     0.035 A 
HETATM    4  C4  MIQ B 502      19.693  -6.564  -2.812  1.00142.86     0.046 A 
HETATM    5  C5  MIQ B 502      20.707  -7.406  -2.289  1.00139.53     0.031 A 
HETATM    6  C12 MIQ B 502      21.936  -7.611  -3.042  1.00139.38     0.030 A 
HETATM    7  C13 MIQ B 502      22.114  -6.967  -4.296  1.00141.18     0.019 A 
HETATM    8  C14 MIQ B 502      21.046  -6.086  -4.841  1.00138.77     0.033 A 
HETATM    9  C15 MIQ B 502      20.880  -5.236  -6.144  1.00142.10     0.195 A 
HETATM   10  N17 MIQ B 502      19.691  -4.663  -6.056  1.00139.42    -0.288 N 
HETATM   11  O16 MIQ B 502      21.803  -5.111  -7.183  1.00148.93    -0.171 OA
ENDROOT
BRANCH  10  12
HETATM   12  C18 MIQ B 502      19.199  -3.777  -7.095  1.00139.82     0.187 C 
HETATM   13  C19 MIQ B 502      19.370  -4.493  -8.440  1.00140.06     0.247 C 
HETATM   14  O25 MIQ B 502      18.955  -5.590  -8.565  1.00143.95    -0.271 OA
HETATM   15  N20 MIQ B 502      20.022  -3.858  -9.567  1.00140.02    -0.296 N 
HETATM   16  H13 MIQ B 502      20.133  -4.338 -10.438  1.00142.77     0.171 HD
HETATM   17  C21 MIQ B 502      20.529  -2.522  -9.387  1.00142.22     0.224 C 
HETATM   18  C22 MIQ B 502      21.058  -2.174  -8.008  1.00139.52     0.106 C 
HETATM   19  O24 MIQ B 502      20.528  -1.736 -10.269  1.00146.13    -0.273 OA
HETATM   20  C23 MIQ B 502      19.923  -2.433  -7.034  1.00139.15     0.045 C 
ENDBRANCH  10  12
BRANCH   5  21
HETATM   21  N6  MIQ B 502      20.518  -8.047  -1.001  1.00140.95    -0.377 N 
HETATM   22  C7  MIQ B 502      21.549  -7.891   0.011  1.00142.12     0.149 C 
HETATM   23  C8  MIQ B 502      21.566  -9.058   0.991  1.00144.10     0.187 C 
HETATM   24  O9  MIQ B 502      20.296  -9.377   1.477  1.00148.65    -0.388 OA
HETATM   25  C10 MIQ B 502      19.156  -8.807   0.906  1.00147.44     0.187 C 
HETATM   26  C11 MIQ B 502      19.186  -8.441  -0.574  1.00144.08     0.149 C 
ENDBRANCH   5  21
TORSDOF 2
ENDMDL
MODEL 9
REMARK VINA RESULT:      -6.2     18.807     20.052
REMARK  2 active torsions:
REMARK  status: ('A' for Active; 'I' for Inactive)
REMARK    1  A    between atoms: C5_5  and  N6_21 
REMARK    2  A    between atoms: C18_14  and  N17_19 
ROOT
HETATM    1  O1  MIQ B 502       8.058 -19.446   0.790  1.00142.91    -0.171 OA
HETATM    2  C2  MIQ B 502       9.074 -19.133   1.695  1.00141.17     0.195 A 
HETATM    3  C3  MIQ B 502      10.567 -19.581   1.597  1.00141.71     0.035 A 
HETATM    4  C4  MIQ B 502      11.324 -20.397   0.617  1.00142.86     0.046 A 
HETATM    5  C5  MIQ B 502      12.709 -20.636   0.802  1.00139.53     0.031 A 
HETATM    6  C12 MIQ B 502      13.391 -20.076   1.960  1.00139.38     0.030 A 
HETATM    7  C13 MIQ B 502      12.666 -19.293   2.899  1.00141.18     0.019 A 
HETATM    8  C14 MIQ B 502      11.212 -19.044   2.698  1.00138.77     0.033 A 
HETATM    9  C15 MIQ B 502      10.113 -18.256   3.485  1.00142.10     0.195 A 
HETATM   10  N17 MIQ B 502       8.994 -18.405   2.795  1.00139.42    -0.288 N 
HETATM   11  O16 MIQ B 502      10.284 -17.546   4.674  1.00148.93    -0.171 OA
ENDROOT
BRANCH  10  12
HETATM   12  C18 MIQ B 502       7.746 -17.814   3.242  1.00139.82     0.187 C 
HETATM   13  C19 MIQ B 502       6.709 -18.939   3.349  1.00140.06     0.247 C 
HETATM   14  O25 MIQ B 502       6.977 -19.914   3.956  1.00143.95    -0.271 OA
HETATM   15  N20 MIQ B 502       5.404 -18.836   2.728  1.00140.02    -0.296 N 
HETATM   16  H13 MIQ B 502       4.738 -19.580   2.800  1.00142.77     0.171 HD
HETATM   17  C21 MIQ B 502       5.104 -17.640   1.983  1.00142.22     0.224 C 
HETATM   18  C22 MIQ B 502       6.259 -16.986   1.252  1.00139.52     0.106 C 
HETATM   19  O24 MIQ B 502       4.011 -17.191   1.950  1.00146.13    -0.273 OA
HETATM   20  C23 MIQ B 502       7.320 -16.692   2.296  1.00139.15     0.045 C 
ENDBRANCH  10  12
BRANCH   5  21
HETATM   21  N6  MIQ B 502      13.434 -21.449  -0.157  1.00140.95    -0.377 N 
HETATM   22  C7  MIQ B 502      12.795 -21.767  -1.422  1.00142.12     0.149 C 
HETATM   23  C8  MIQ B 502      13.321 -23.069  -2.013  1.00144.10     0.187 C 
HETATM   24  O9  MIQ B 502      14.715 -23.141  -2.014  1.00148.65    -0.388 OA
HETATM   25  C10 MIQ B 502      15.473 -22.195  -1.320  1.00147.44     0.187 C 
HETATM   26  C11 MIQ B 502      14.879 -21.563  -0.066  1.00144.08     0.149 C 
ENDBRANCH   5  21
TORSDOF 2
ENDMDL
