MODEL 1
REMARK VINA RESULT:      -6.9      0.000      0.000
REMARK  2 active torsions:
REMARK  status: ('A' for Active; 'I' for Inactive)
REMARK    1  A    between atoms: C5_5  and  N6_21 
REMARK    2  A    between atoms: C18_14  and  N17_19 
ROOT
HETATM    1  O1  MIQ B 502       8.522  13.123  13.815  1.00142.91    -0.171 OA
HETATM    2  C2  MIQ B 502       8.798  12.241  12.768  1.00141.17     0.195 A 
HETATM    3  C3  MIQ B 502       7.952  10.990  12.369  1.00141.71     0.035 A 
HETATM    4  C4  MIQ B 502       6.709  10.388  12.905  1.00142.86     0.046 A 
HETATM    5  C5  MIQ B 502       6.166   9.219  12.314  1.00139.53     0.031 A 
HETATM    6  C12 MIQ B 502       6.834   8.608  11.174  1.00139.38     0.030 A 
HETATM    7  C13 MIQ B 502       8.026   9.186  10.659  1.00141.18     0.019 A 
HETATM    8  C14 MIQ B 502       8.590  10.415  11.282  1.00138.77     0.033 A 
HETATM    9  C15 MIQ B 502       9.838  11.314  11.004  1.00142.10     0.195 A 
HETATM   10  N17 MIQ B 502       9.804  12.277  11.911  1.00139.42    -0.288 N 
HETATM   11  O16 MIQ B 502      10.794  11.131  10.004  1.00148.93    -0.171 OA
ENDROOT
BRANCH  10  12
HETATM   12  C18 MIQ B 502      10.830  13.301  11.967  1.00139.82     0.187 C 
HETATM   13  C19 MIQ B 502      11.316  13.397  13.419  1.00140.06     0.247 C 
HETATM   14  O25 MIQ B 502      11.643  12.414  13.983  1.00143.95    -0.271 OA
HETATM   15  N20 MIQ B 502      11.390  14.664  14.117  1.00140.02    -0.296 N 
HETATM   16  H13 MIQ B 502      11.702  14.713  15.067  1.00142.77     0.171 HD
HETATM   17  C21 MIQ B 502      10.974  15.849  13.411  1.00142.22     0.224 C 
HETATM   18  C22 MIQ B 502       9.844  15.686  12.413  1.00139.52     0.106 C 
HETATM   19  O24 MIQ B 502      11.494  16.894  13.598  1.00146.13    -0.273 OA
HETATM   20  C23 MIQ B 502      10.291  14.624  11.425  1.00139.15     0.045 C 
ENDBRANCH  10  12
BRANCH   5  21
HETATM   21  N6  MIQ B 502       4.955   8.631  12.859  1.00140.95    -0.377 N 
HETATM   22  C7  MIQ B 502       4.764   7.196  12.736  1.00142.12     0.149 C 
HETATM   23  C8  MIQ B 502       3.288   6.818  12.733  1.00144.10     0.187 C 
HETATM   24  O9  MIQ B 502       2.568   7.430  13.761  1.00148.65    -0.388 OA
HETATM   25  C10 MIQ B 502       3.148   8.447  14.523  1.00147.44     0.187 C 
HETATM   26  C11 MIQ B 502       4.191   9.346  13.866  1.00144.08     0.149 C 
ENDBRANCH   5  21
TORSDOF 2
ENDMDL
MODEL 2
REMARK VINA RESULT:      -6.8      1.623      2.032
REMARK  2 active torsions:
REMARK  status: ('A' for Active; 'I' for Inactive)
REMARK    1  A    between atoms: C5_5  and  N6_21 
REMARK    2  A    between atoms: C18_14  and  N17_19 
ROOT
HETATM    1  O1  MIQ B 502       8.878  13.034  14.604  1.00142.91    -0.171 OA
HETATM    2  C2  MIQ B 502       8.985  12.518  13.311  1.00141.17     0.195 A 
HETATM    3  C3  MIQ B 502       8.066  11.427  12.674  1.00141.71     0.035 A 
HETATM    4  C4  MIQ B 502       6.900  10.660  13.172  1.00142.86     0.046 A 
HETATM    5  C5  MIQ B 502       6.255   9.713  12.336  1.00139.53     0.031 A 
HETATM    6  C12 MIQ B 502       6.743   9.494  10.982  1.00139.38     0.030 A 
HETATM    7  C13 MIQ B 502       7.861  10.230  10.504  1.00141.18     0.019 A 
HETATM    8  C14 MIQ B 502       8.532  11.225  11.385  1.00138.77     0.033 A 
HETATM    9  C15 MIQ B 502       9.746  12.196  11.221  1.00142.10     0.195 A 
HETATM   10  N17 MIQ B 502       9.859  12.837  12.372  1.00139.42    -0.288 N 
HETATM   11  O16 MIQ B 502      10.546  12.349  10.087  1.00148.93    -0.171 OA
ENDROOT
BRANCH  10  12
HETATM   12  C18 MIQ B 502      10.903  13.821  12.592  1.00139.82     0.187 C 
HETATM   13  C19 MIQ B 502      10.788  14.880  11.488  1.00140.06     0.247 C 
HETATM   14  O25 MIQ B 502       9.743  15.386  11.283  1.00143.95    -0.271 OA
HETATM   15  N20 MIQ B 502      11.930  15.281  10.693  1.00140.02    -0.296 N 
HETATM   16  H13 MIQ B 502      11.841  15.969   9.971  1.00142.77     0.171 HD
HETATM   17  C21 MIQ B 502      13.194  14.642  10.956  1.00142.22     0.224 C 
HETATM   18  C22 MIQ B 502      13.144  13.190  11.393  1.00139.52     0.106 C 
HETATM   19  O24 MIQ B 502      14.216  15.223  10.841  1.00146.13    -0.273 OA
HETATM   20  C23 MIQ B 502      12.272  13.143  12.634  1.00139.15     0.045 C 
ENDBRANCH  10  12
BRANCH   5  21
HETATM   21  N6  MIQ B 502       5.123   8.959  12.841  1.00140.95    -0.377 N 
HETATM   22  C7  MIQ B 502       5.149   7.510  12.731  1.00142.12     0.149 C 
HETATM   23  C8  MIQ B 502       3.746   6.919  12.676  1.00144.10     0.187 C 
HETATM   24  O9  MIQ B 502       2.903   7.427  13.666  1.00148.65    -0.388 OA
HETATM   25  C10 MIQ B 502       3.296   8.525  14.436  1.00147.44     0.187 C 
HETATM   26  C11 MIQ B 502       4.222   9.562  13.808  1.00144.08     0.149 C 
ENDBRANCH   5  21
TORSDOF 2
ENDMDL
MODEL 3
REMARK VINA RESULT:      -6.8      2.227      7.841
REMARK  2 active torsions:
REMARK  status: ('A' for Active; 'I' for Inactive)
REMARK    1  A    between atoms: C5_5  and  N6_21 
REMARK    2  A    between atoms: C18_14  and  N17_19 
ROOT
HETATM    1  O1  MIQ B 502       7.277  10.988  14.580  1.00142.91    -0.171 OA
HETATM    2  C2  MIQ B 502       7.910  11.260  13.365  1.00141.17     0.195 A 
HETATM    3  C3  MIQ B 502       9.306  11.938  13.184  1.00141.71     0.035 A 
HETATM    4  C4  MIQ B 502      10.317  12.458  14.135  1.00142.86     0.046 A 
HETATM    5  C5  MIQ B 502      11.522  13.032  13.657  1.00139.53     0.031 A 
HETATM    6  C12 MIQ B 502      11.766  13.110  12.223  1.00139.38     0.030 A 
HETATM    7  C13 MIQ B 502      10.798  12.610  11.312  1.00141.18     0.019 A 
HETATM    8  C14 MIQ B 502       9.536  12.006  11.820  1.00138.77     0.033 A 
HETATM    9  C15 MIQ B 502       8.276  11.367  11.150  1.00142.10     0.195 A 
HETATM   10  N17 MIQ B 502       7.478  11.005  12.142  1.00139.42    -0.288 N 
HETATM   11  O16 MIQ B 502       8.043  11.213   9.782  1.00148.93    -0.171 OA
ENDROOT
BRANCH  10  12
HETATM   12  C18 MIQ B 502       6.192  10.383  11.892  1.00139.82     0.187 C 
HETATM   13  C19 MIQ B 502       5.139  11.141  12.709  1.00140.06     0.247 C 
HETATM   14  O25 MIQ B 502       5.083  12.317  12.628  1.00143.95    -0.271 OA
HETATM   15  N20 MIQ B 502       4.204  10.453  13.576  1.00140.02    -0.296 N 
HETATM   16  H13 MIQ B 502       3.526  10.960  14.110  1.00142.77     0.171 HD
HETATM   17  C21 MIQ B 502       4.299   9.019  13.667  1.00142.22     0.224 C 
HETATM   18  C22 MIQ B 502       5.687   8.419  13.548  1.00139.52     0.106 C 
HETATM   19  O24 MIQ B 502       3.341   8.345  13.821  1.00146.13    -0.273 OA
HETATM   20  C23 MIQ B 502       6.249   8.892  12.220  1.00139.15     0.045 C 
ENDBRANCH  10  12
BRANCH   5  21
HETATM   21  N6  MIQ B 502      12.496  13.552  14.599  1.00140.95    -0.377 N 
HETATM   22  C7  MIQ B 502      12.431  13.109  15.981  1.00142.12     0.149 C 
HETATM   23  C8  MIQ B 502      13.017  14.141  16.937  1.00144.10     0.187 C 
HETATM   24  O9  MIQ B 502      14.260  14.621  16.522  1.00148.65    -0.388 OA
HETATM   25  C10 MIQ B 502      14.744  14.324  15.245  1.00147.44     0.187 C 
HETATM   26  C11 MIQ B 502      13.741  14.122  14.114  1.00144.08     0.149 C 
ENDBRANCH   5  21
TORSDOF 2
ENDMDL
MODEL 4
REMARK VINA RESULT:      -6.7      3.498      8.022
REMARK  2 active torsions:
REMARK  status: ('A' for Active; 'I' for Inactive)
REMARK    1  A    between atoms: C5_5  and  N6_21 
REMARK    2  A    between atoms: C18_14  and  N17_19 
ROOT
HETATM    1  O1  MIQ B 502       6.902  11.267  10.285  1.00142.91    -0.171 OA
HETATM    2  C2  MIQ B 502       8.076  11.807  10.813  1.00141.17     0.195 A 
HETATM    3  C3  MIQ B 502       9.005  12.852  10.118  1.00141.71     0.035 A 
HETATM    4  C4  MIQ B 502       8.956  13.548   8.810  1.00142.86     0.046 A 
HETATM    5  C5  MIQ B 502       9.972  14.469   8.450  1.00139.53     0.031 A 
HETATM    6  C12 MIQ B 502      11.068  14.734   9.371  1.00139.38     0.030 A 
HETATM    7  C13 MIQ B 502      11.114  14.068  10.626  1.00141.18     0.019 A 
HETATM    8  C14 MIQ B 502      10.044  13.103  10.999  1.00138.77     0.033 A 
HETATM    9  C15 MIQ B 502       9.758  12.209  12.250  1.00142.10     0.195 A 
HETATM   10  N17 MIQ B 502       8.635  11.561  11.986  1.00139.42    -0.288 N 
HETATM   11  O16 MIQ B 502      10.534  12.116  13.406  1.00148.93    -0.171 OA
ENDROOT
BRANCH  10  12
HETATM   12  C18 MIQ B 502       8.067  10.616  12.929  1.00139.82     0.187 C 
HETATM   13  C19 MIQ B 502       7.704   9.343  12.154  1.00140.06     0.247 C 
HETATM   14  O25 MIQ B 502       8.514   8.840  11.460  1.00143.95    -0.271 OA
HETATM   15  N20 MIQ B 502       6.392   8.736  12.254  1.00140.02    -0.296 N 
HETATM   16  H13 MIQ B 502       6.165   7.909  11.738  1.00142.77     0.171 HD
HETATM   17  C21 MIQ B 502       5.416   9.375  13.099  1.00142.22     0.224 C 
HETATM   18  C22 MIQ B 502       5.475  10.888  13.184  1.00139.52     0.106 C 
HETATM   19  O24 MIQ B 502       4.613   8.748  13.698  1.00146.13    -0.273 OA
HETATM   20  C23 MIQ B 502       6.875  11.239  13.654  1.00139.15     0.045 C 
ENDBRANCH  10  12
BRANCH   5  21
HETATM   21  N6  MIQ B 502       9.919  15.132   7.159  1.00140.95    -0.377 N 
HETATM   22  C7  MIQ B 502      10.238  16.548   7.092  1.00142.12     0.149 C 
HETATM   23  C8  MIQ B 502       9.552  17.230   5.915  1.00144.10     0.187 C 
HETATM   24  O9  MIQ B 502       9.702  16.527   4.718  1.00148.65    -0.388 OA
HETATM   25  C10 MIQ B 502      10.228  15.233   4.718  1.00147.44     0.187 C 
HETATM   26  C11 MIQ B 502       9.992  14.349   5.938  1.00144.08     0.149 C 
ENDBRANCH   5  21
TORSDOF 2
ENDMDL
MODEL 5
REMARK VINA RESULT:      -6.6      2.653      8.016
REMARK  2 active torsions:
REMARK  status: ('A' for Active; 'I' for Inactive)
REMARK    1  A    between atoms: C5_5  and  N6_21 
REMARK    2  A    between atoms: C18_14  and  N17_19 
ROOT
HETATM    1  O1  MIQ B 502       8.177  11.169  14.747  1.00142.91    -0.171 OA
HETATM    2  C2  MIQ B 502       8.941  11.648  13.680  1.00141.17     0.195 A 
HETATM    3  C3  MIQ B 502      10.306  12.400  13.788  1.00141.71     0.035 A 
HETATM    4  C4  MIQ B 502      11.157  12.808  14.931  1.00142.86     0.046 A 
HETATM    5  C5  MIQ B 502      12.376  13.496  14.706  1.00139.53     0.031 A 
HETATM    6  C12 MIQ B 502      12.794  13.801  13.345  1.00139.38     0.030 A 
HETATM    7  C13 MIQ B 502      11.979  13.409  12.250  1.00141.18     0.019 A 
HETATM    8  C14 MIQ B 502      10.701  12.685  12.491  1.00138.77     0.033 A 
HETATM    9  C15 MIQ B 502       9.575  12.107  11.573  1.00142.10     0.195 A 
HETATM   10  N17 MIQ B 502       8.682  11.567  12.386  1.00139.42    -0.288 N 
HETATM   11  O16 MIQ B 502       9.526  12.156  10.179  1.00148.93    -0.171 OA
ENDROOT
BRANCH  10  12
HETATM   12  C18 MIQ B 502       7.476  10.941  11.878  1.00139.82     0.187 C 
HETATM   13  C19 MIQ B 502       6.283  11.544  12.629  1.00140.06     0.247 C 
HETATM   14  O25 MIQ B 502       6.176  12.718  12.693  1.00143.95    -0.271 OA
HETATM   15  N20 MIQ B 502       5.277  10.714  13.260  1.00140.02    -0.296 N 
HETATM   16  H13 MIQ B 502       4.507  11.120  13.753  1.00142.77     0.171 HD
HETATM   17  C21 MIQ B 502       5.435   9.284  13.177  1.00142.22     0.224 C 
HETATM   18  C22 MIQ B 502       6.856   8.754  13.179  1.00139.52     0.106 C 
HETATM   19  O24 MIQ B 502       4.501   8.563  13.106  1.00146.13    -0.273 OA
HETATM   20  C23 MIQ B 502       7.567   9.422  12.016  1.00139.15     0.045 C 
ENDBRANCH  10  12
BRANCH   5  21
HETATM   21  N6  MIQ B 502      13.192  13.903  15.835  1.00140.95    -0.377 N 
HETATM   22  C7  MIQ B 502      12.594  13.909  17.159  1.00142.12     0.149 C 
HETATM   23  C8  MIQ B 502      13.271  14.911  18.085  1.00144.10     0.187 C 
HETATM   24  O9  MIQ B 502      14.664  14.818  18.061  1.00148.65    -0.388 OA
HETATM   25  C10 MIQ B 502      15.304  14.035  17.096  1.00147.44     0.187 C 
HETATM   26  C11 MIQ B 502      14.641  13.871  15.733  1.00144.08     0.149 C 
ENDBRANCH   5  21
TORSDOF 2
ENDMDL
MODEL 6
REMARK VINA RESULT:      -6.6      2.919      7.906
REMARK  2 active torsions:
REMARK  status: ('A' for Active; 'I' for Inactive)
REMARK    1  A    between atoms: C5_5  and  N6_21 
REMARK    2  A    between atoms: C18_14  and  N17_19 
ROOT
HETATM    1  O1  MIQ B 502       7.576  10.939  14.567  1.00142.91    -0.171 OA
HETATM    2  C2  MIQ B 502       8.060  11.940  13.722  1.00141.17     0.195 A 
HETATM    3  C3  MIQ B 502       9.002  13.117  14.131  1.00141.71     0.035 A 
HETATM    4  C4  MIQ B 502       9.633  13.520  15.410  1.00142.86     0.046 A 
HETATM    5  C5  MIQ B 502      10.462  14.668  15.470  1.00139.53     0.031 A 
HETATM    6  C12 MIQ B 502      10.696  15.454  14.267  1.00139.38     0.030 A 
HETATM    7  C13 MIQ B 502      10.093  15.067  13.040  1.00141.18     0.019 A 
HETATM    8  C14 MIQ B 502       9.225  13.859  12.983  1.00138.77     0.033 A 
HETATM    9  C15 MIQ B 502       8.417  13.139  11.854  1.00142.10     0.195 A 
HETATM   10  N17 MIQ B 502       7.835  12.099  12.429  1.00139.42    -0.288 N 
HETATM   11  O16 MIQ B 502       8.329  13.522  10.515  1.00148.93    -0.171 OA
ENDROOT
BRANCH  10  12
HETATM   12  C18 MIQ B 502       6.980  11.199  11.677  1.00139.82     0.187 C 
HETATM   13  C19 MIQ B 502       5.637  11.108  12.411  1.00140.06     0.247 C 
HETATM   14  O25 MIQ B 502       5.076  12.101  12.710  1.00143.95    -0.271 OA
HETATM   15  N20 MIQ B 502       5.033   9.834  12.744  1.00140.02    -0.296 N 
HETATM   16  H13 MIQ B 502       4.159   9.788  13.229  1.00142.77     0.171 HD
HETATM   17  C21 MIQ B 502       5.743   8.635  12.378  1.00142.22     0.224 C 
HETATM   18  C22 MIQ B 502       7.258   8.702  12.415  1.00139.52     0.106 C 
HETATM   19  O24 MIQ B 502       5.171   7.651  12.059  1.00146.13    -0.273 OA
HETATM   20  C23 MIQ B 502       7.662   9.843  11.500  1.00139.15     0.045 C 
ENDBRANCH  10  12
BRANCH   5  21
HETATM   21  N6  MIQ B 502      11.061  15.059  16.733  1.00140.95    -0.377 N 
HETATM   22  C7  MIQ B 502      10.363  14.731  17.964  1.00142.12     0.149 C 
HETATM   23  C8  MIQ B 502      10.708  15.698  19.090  1.00144.10     0.187 C 
HETATM   24  O9  MIQ B 502      12.082  15.910  19.221  1.00148.65    -0.388 OA
HETATM   25  C10 MIQ B 502      12.967  15.443  18.246  1.00147.44     0.187 C 
HETATM   26  C11 MIQ B 502      12.482  15.354  16.803  1.00144.08     0.149 C 
ENDBRANCH   5  21
TORSDOF 2
ENDMDL
MODEL 7
REMARK VINA RESULT:      -6.5      2.388      8.064
REMARK  2 active torsions:
REMARK  status: ('A' for Active; 'I' for Inactive)
REMARK    1  A    between atoms: C5_5  and  N6_21 
REMARK    2  A    between atoms: C18_14  and  N17_19 
ROOT
HETATM    1  O1  MIQ B 502       7.700   9.963  13.876  1.00142.91    -0.171 OA
HETATM    2  C2  MIQ B 502       7.488  11.215  13.296  1.00141.17     0.195 A 
HETATM    3  C3  MIQ B 502       8.399  12.474  13.462  1.00141.71     0.035 A 
HETATM    4  C4  MIQ B 502       9.655  12.732  14.204  1.00142.86     0.046 A 
HETATM    5  C5  MIQ B 502      10.264  14.011  14.160  1.00139.53     0.031 A 
HETATM    6  C12 MIQ B 502       9.650  15.077  13.380  1.00139.38     0.030 A 
HETATM    7  C13 MIQ B 502       8.446  14.830  12.668  1.00141.18     0.019 A 
HETATM    8  C14 MIQ B 502       7.813  13.483  12.716  1.00138.77     0.033 A 
HETATM    9  C15 MIQ B 502       6.532  12.848  12.083  1.00142.10     0.195 A 
HETATM   10  N17 MIQ B 502       6.502  11.594  12.501  1.00139.42    -0.288 N 
HETATM   11  O16 MIQ B 502       5.609  13.482  11.249  1.00148.93    -0.171 OA
ENDROOT
BRANCH  10  12
HETATM   12  C18 MIQ B 502       5.429  10.694  12.120  1.00139.82     0.187 C 
HETATM   13  C19 MIQ B 502       4.799  10.146  13.406  1.00140.06     0.247 C 
HETATM   14  O25 MIQ B 502       4.462  10.900  14.249  1.00143.95    -0.271 OA
HETATM   15  N20 MIQ B 502       4.598   8.727  13.614  1.00140.02    -0.296 N 
HETATM   16  H13 MIQ B 502       4.191   8.382  14.461  1.00142.77     0.171 HD
HETATM   17  C21 MIQ B 502       5.027   7.826  12.576  1.00142.22     0.224 C 
HETATM   18  C22 MIQ B 502       6.256   8.231  11.786  1.00139.52     0.106 C 
HETATM   19  O24 MIQ B 502       4.444   6.823  12.349  1.00146.13    -0.273 OA
HETATM   20  C23 MIQ B 502       5.958   9.598  11.196  1.00139.15     0.045 C 
ENDBRANCH  10  12
BRANCH   5  21
HETATM   21  N6  MIQ B 502      11.487  14.254  14.904  1.00140.95    -0.377 N 
HETATM   22  C7  MIQ B 502      12.036  15.599  14.917  1.00142.12     0.149 C 
HETATM   23  C8  MIQ B 502      13.543  15.596  15.139  1.00144.10     0.187 C 
HETATM   24  O9  MIQ B 502      13.934  14.781  16.203  1.00148.65    -0.388 OA
HETATM   25  C10 MIQ B 502      13.019  13.911  16.801  1.00147.44     0.187 C 
HETATM   26  C11 MIQ B 502      11.898  13.330  15.946  1.00144.08     0.149 C 
ENDBRANCH   5  21
TORSDOF 2
ENDMDL
MODEL 8
REMARK VINA RESULT:      -6.3      2.997      7.979
REMARK  2 active torsions:
REMARK  status: ('A' for Active; 'I' for Inactive)
REMARK    1  A    between atoms: C5_5  and  N6_21 
REMARK    2  A    between atoms: C18_14  and  N17_19 
ROOT
HETATM    1  O1  MIQ B 502       8.619  11.610  14.077  1.00142.91    -0.171 OA
HETATM    2  C2  MIQ B 502       9.632  12.104  13.252  1.00141.17     0.195 A 
HETATM    3  C3  MIQ B 502      10.956  12.785  13.725  1.00141.71     0.035 A 
HETATM    4  C4  MIQ B 502      11.521  13.098  15.059  1.00142.86     0.046 A 
HETATM    5  C5  MIQ B 502      12.781  13.737  15.171  1.00139.53     0.031 A 
HETATM    6  C12 MIQ B 502      13.524  14.088  13.969  1.00139.38     0.030 A 
HETATM    7  C13 MIQ B 502      12.983  13.787  12.690  1.00141.18     0.019 A 
HETATM    8  C14 MIQ B 502      11.660  13.113  12.578  1.00138.77     0.033 A 
HETATM    9  C15 MIQ B 502      10.769  12.632  11.386  1.00142.10     0.195 A 
HETATM   10  N17 MIQ B 502       9.689  12.097  11.931  1.00139.42    -0.288 N 
HETATM   11  O16 MIQ B 502      11.058  12.750  10.026  1.00148.93    -0.171 OA
ENDROOT
BRANCH  10  12
HETATM   12  C18 MIQ B 502       8.620  11.552  11.115  1.00139.82     0.187 C 
HETATM   13  C19 MIQ B 502       7.295  12.119  11.641  1.00140.06     0.247 C 
HETATM   14  O25 MIQ B 502       7.186  13.284  11.790  1.00143.95    -0.271 OA
HETATM   15  N20 MIQ B 502       6.170  11.263  11.956  1.00140.02    -0.296 N 
HETATM   16  H13 MIQ B 502       5.313  11.645  12.305  1.00142.77     0.171 HD
HETATM   17  C21 MIQ B 502       6.331   9.843  11.776  1.00142.22     0.224 C 
HETATM   18  C22 MIQ B 502       7.712   9.276  12.038  1.00139.52     0.106 C 
HETATM   19  O24 MIQ B 502       5.431   9.158  11.435  1.00146.13    -0.273 OA
HETATM   20  C23 MIQ B 502       8.667  10.025  11.127  1.00139.15     0.045 C 
ENDBRANCH  10  12
BRANCH   5  21
HETATM   21  N6  MIQ B 502      13.316  14.051  16.484  1.00140.95    -0.377 N 
HETATM   22  C7  MIQ B 502      12.481  13.814  17.649  1.00142.12     0.149 C 
HETATM   23  C8  MIQ B 502      12.849  14.730  18.809  1.00144.10     0.187 C 
HETATM   24  O9  MIQ B 502      14.222  14.768  19.056  1.00148.65    -0.388 OA
HETATM   25  C10 MIQ B 502      15.121  14.193  18.154  1.00147.44     0.187 C 
HETATM   26  C11 MIQ B 502      14.751  14.166  16.674  1.00144.08     0.149 C 
ENDBRANCH   5  21
TORSDOF 2
ENDMDL
MODEL 9
REMARK VINA RESULT:      -6.3      5.307      7.591
REMARK  2 active torsions:
REMARK  status: ('A' for Active; 'I' for Inactive)
REMARK    1  A    between atoms: C5_5  and  N6_21 
REMARK    2  A    between atoms: C18_14  and  N17_19 
ROOT
HETATM    1  O1  MIQ B 502       9.502  15.765  18.779  1.00142.91    -0.171 OA
HETATM    2  C2  MIQ B 502      10.625  15.099  18.283  1.00141.17     0.195 A 
HETATM    3  C3  MIQ B 502      10.704  14.291  16.949  1.00141.71     0.035 A 
HETATM    4  C4  MIQ B 502       9.724  13.995  15.877  1.00142.86     0.046 A 
HETATM    5  C5  MIQ B 502      10.102  13.213  14.757  1.00139.53     0.031 A 
HETATM    6  C12 MIQ B 502      11.461  12.700  14.658  1.00139.38     0.030 A 
HETATM    7  C13 MIQ B 502      12.401  12.985  15.685  1.00141.18     0.019 A 
HETATM    8  C14 MIQ B 502      12.000  13.808  16.858  1.00138.77     0.033 A 
HETATM    9  C15 MIQ B 502      12.729  14.320  18.143  1.00142.10     0.195 A 
HETATM   10  N17 MIQ B 502      11.831  15.017  18.819  1.00139.42    -0.288 N 
HETATM   11  O16 MIQ B 502      14.057  14.083  18.500  1.00148.93    -0.171 OA
ENDROOT
BRANCH  10  12
HETATM   12  C18 MIQ B 502      12.154  15.637  20.091  1.00139.82     0.187 C 
HETATM   13  C19 MIQ B 502      13.421  16.479  19.892  1.00140.06     0.247 C 
HETATM   14  O25 MIQ B 502      13.465  17.252  19.001  1.00143.95    -0.271 OA
HETATM   15  N20 MIQ B 502      14.565  16.357  20.771  1.00140.02    -0.296 N 
HETATM   16  H13 MIQ B 502      15.388  16.908  20.627  1.00142.77     0.171 HD
HETATM   17  C21 MIQ B 502      14.492  15.400  21.845  1.00142.22     0.224 C 
HETATM   18  C22 MIQ B 502      13.701  14.134  21.576  1.00139.52     0.106 C 
HETATM   19  O24 MIQ B 502      15.018  15.596  22.885  1.00146.13    -0.273 OA
HETATM   20  C23 MIQ B 502      12.304  14.574  21.178  1.00139.15     0.045 C 
ENDBRANCH  10  12
BRANCH   5  21
HETATM   21  N6  MIQ B 502       9.127  12.918  13.722  1.00140.95    -0.377 N 
HETATM   22  C7  MIQ B 502       8.359  11.689  13.822  1.00142.12     0.149 C 
HETATM   23  C8  MIQ B 502       7.899  11.194  12.457  1.00144.10     0.187 C 
HETATM   24  O9  MIQ B 502       7.318  12.199  11.681  1.00148.65    -0.388 OA
HETATM   25  C10 MIQ B 502       7.398  13.536  12.080  1.00147.44     0.187 C 
HETATM   26  C11 MIQ B 502       8.615  13.986  12.881  1.00144.08     0.149 C 
ENDBRANCH   5  21
TORSDOF 2
ENDMDL
