MODEL 1
REMARK VINA RESULT:     -10.0      0.000      0.000
REMARK  2 active torsions:
REMARK  status: ('A' for Active; 'I' for Inactive)
REMARK    1  A    between atoms: C5_5  and  N6_21 
REMARK    2  A    between atoms: C18_14  and  N17_19 
ROOT
HETATM    1  O1  MIQ B 502       7.979 -13.434   3.877  1.00142.91    -0.171 OA
HETATM    2  C2  MIQ B 502       8.574 -13.184   5.115  1.00141.17     0.195 A 
HETATM    3  C3  MIQ B 502       7.830 -13.012   6.478  1.00141.71     0.035 A 
HETATM    4  C4  MIQ B 502       6.401 -13.055   6.871  1.00142.86     0.046 A 
HETATM    5  C5  MIQ B 502       6.024 -12.859   8.223  1.00139.53     0.031 A 
HETATM    6  C12 MIQ B 502       7.046 -12.614   9.231  1.00139.38     0.030 A 
HETATM    7  C13 MIQ B 502       8.416 -12.574   8.854  1.00141.18     0.019 A 
HETATM    8  C14 MIQ B 502       8.806 -12.783   7.433  1.00138.77     0.033 A 
HETATM    9  C15 MIQ B 502      10.165 -12.813   6.659  1.00142.10     0.195 A 
HETATM   10  N17 MIQ B 502       9.859 -13.048   5.394  1.00139.42    -0.288 N 
HETATM   11  O16 MIQ B 502      11.439 -12.627   7.199  1.00148.93    -0.171 OA
ENDROOT
BRANCH  10  12
HETATM   12  C18 MIQ B 502      10.884 -13.128   4.370  1.00139.82     0.187 C 
HETATM   13  C19 MIQ B 502      10.584 -12.049   3.322  1.00140.06     0.247 C 
HETATM   14  O25 MIQ B 502      10.402 -10.938   3.676  1.00143.95    -0.271 OA
HETATM   15  N20 MIQ B 502      10.525 -12.353   1.907  1.00140.02    -0.296 N 
HETATM   16  H13 MIQ B 502      10.322 -11.640   1.234  1.00142.77     0.171 HD
HETATM   17  C21 MIQ B 502      10.741 -13.718   1.501  1.00142.22     0.224 C 
HETATM   18  C22 MIQ B 502      10.256 -14.796   2.451  1.00139.52     0.106 C 
HETATM   19  O24 MIQ B 502      11.275 -13.981   0.480  1.00146.13    -0.273 OA
HETATM   20  C23 MIQ B 502      10.938 -14.538   3.782  1.00139.15     0.045 C 
ENDBRANCH  10  12
BRANCH   5  21
HETATM   21  N6  MIQ B 502       4.620 -12.889   8.592  1.00140.95    -0.377 N 
HETATM   22  C7  MIQ B 502       3.741 -13.818   7.903  1.00142.12     0.149 C 
HETATM   23  C8  MIQ B 502       2.298 -13.331   7.890  1.00144.10     0.187 C 
HETATM   24  O9  MIQ B 502       1.855 -12.910   9.145  1.00148.65    -0.388 OA
HETATM   25  C10 MIQ B 502       2.759 -12.756  10.200  1.00147.44     0.187 C 
HETATM   26  C11 MIQ B 502       4.196 -12.360   9.876  1.00144.08     0.149 C 
ENDBRANCH   5  21
TORSDOF 2
ENDMDL
MODEL 2
REMARK VINA RESULT:      -9.1      1.837      8.039
REMARK  2 active torsions:
REMARK  status: ('A' for Active; 'I' for Inactive)
REMARK    1  A    between atoms: C5_5  and  N6_21 
REMARK    2  A    between atoms: C18_14  and  N17_19 
ROOT
HETATM    1  O1  MIQ B 502       4.260 -13.466   6.771  1.00142.91    -0.171 OA
HETATM    2  C2  MIQ B 502       5.350 -13.210   7.606  1.00141.17     0.195 A 
HETATM    3  C3  MIQ B 502       6.841 -13.074   7.160  1.00141.71     0.035 A 
HETATM    4  C4  MIQ B 502       7.524 -13.158   5.848  1.00142.86     0.046 A 
HETATM    5  C5  MIQ B 502       8.928 -12.985   5.758  1.00139.53     0.031 A 
HETATM    6  C12 MIQ B 502       9.702 -12.722   6.963  1.00139.38     0.030 A 
HETATM    7  C13 MIQ B 502       9.048 -12.640   8.221  1.00141.18     0.019 A 
HETATM    8  C14 MIQ B 502       7.573 -12.821   8.309  1.00138.77     0.033 A 
HETATM    9  C15 MIQ B 502       6.530 -12.799   9.474  1.00142.10     0.195 A 
HETATM   10  N17 MIQ B 502       5.353 -13.027   8.915  1.00139.42    -0.288 N 
HETATM   11  O16 MIQ B 502       6.794 -12.583  10.828  1.00148.93    -0.171 OA
ENDROOT
BRANCH  10  12
HETATM   12  C18 MIQ B 502       4.139 -13.094   9.707  1.00139.82     0.187 C 
HETATM   13  C19 MIQ B 502       3.340 -14.316   9.236  1.00140.06     0.247 C 
HETATM   14  O25 MIQ B 502       3.878 -15.363   9.165  1.00143.95    -0.271 OA
HETATM   15  N20 MIQ B 502       1.939 -14.222   8.880  1.00140.02    -0.296 N 
HETATM   16  H13 MIQ B 502       1.431 -15.025   8.568  1.00142.77     0.171 HD
HETATM   17  C21 MIQ B 502       1.308 -12.930   8.964  1.00142.22     0.224 C 
HETATM   18  C22 MIQ B 502       2.173 -11.726   8.647  1.00139.52     0.106 C 
HETATM   19  O24 MIQ B 502       0.172 -12.817   9.270  1.00146.13    -0.273 OA
HETATM   20  C23 MIQ B 502       3.358 -11.786   9.594  1.00139.15     0.045 C 
ENDBRANCH  10  12
BRANCH   5  21
HETATM   21  N6  MIQ B 502       9.586 -13.084   4.468  1.00140.95    -0.377 N 
HETATM   22  C7  MIQ B 502       8.960 -13.884   3.429  1.00142.12     0.149 C 
HETATM   23  C8  MIQ B 502       9.980 -14.425   2.436  1.00144.10     0.187 C 
HETATM   24  O9  MIQ B 502      10.869 -13.448   1.983  1.00148.65    -0.388 OA
HETATM   25  C10 MIQ B 502      10.911 -12.192   2.593  1.00147.44     0.187 C 
HETATM   26  C11 MIQ B 502      10.569 -12.089   4.076  1.00144.08     0.149 C 
ENDBRANCH   5  21
TORSDOF 2
ENDMDL
MODEL 3
REMARK VINA RESULT:      -9.0      1.680      2.132
REMARK  2 active torsions:
REMARK  status: ('A' for Active; 'I' for Inactive)
REMARK    1  A    between atoms: C5_5  and  N6_21 
REMARK    2  A    between atoms: C18_14  and  N17_19 
ROOT
HETATM    1  O1  MIQ B 502       8.035 -13.606   3.327  1.00142.91    -0.171 OA
HETATM    2  C2  MIQ B 502       8.667 -13.280   4.529  1.00141.17     0.195 A 
HETATM    3  C3  MIQ B 502       7.973 -13.103   5.917  1.00141.71     0.035 A 
HETATM    4  C4  MIQ B 502       6.568 -13.213   6.376  1.00142.86     0.046 A 
HETATM    5  C5  MIQ B 502       6.239 -12.991   7.737  1.00139.53     0.031 A 
HETATM    6  C12 MIQ B 502       7.288 -12.654   8.688  1.00139.38     0.030 A 
HETATM    7  C13 MIQ B 502       8.635 -12.550   8.250  1.00141.18     0.019 A 
HETATM    8  C14 MIQ B 502       8.976 -12.787   6.820  1.00138.77     0.033 A 
HETATM    9  C15 MIQ B 502      10.299 -12.768   5.987  1.00142.10     0.195 A 
HETATM   10  N17 MIQ B 502       9.953 -13.063   4.745  1.00139.42    -0.288 N 
HETATM   11  O16 MIQ B 502      11.582 -12.492   6.463  1.00148.93    -0.171 OA
ENDROOT
BRANCH  10  12
HETATM   12  C18 MIQ B 502      10.936 -13.122   3.679  1.00139.82     0.187 C 
HETATM   13  C19 MIQ B 502      12.129 -13.939   4.188  1.00140.06     0.247 C 
HETATM   14  O25 MIQ B 502      11.938 -14.999   4.669  1.00143.95    -0.271 OA
HETATM   15  N20 MIQ B 502      13.489 -13.449   4.088  1.00140.02    -0.296 N 
HETATM   16  H13 MIQ B 502      14.259 -13.990   4.430  1.00142.77     0.171 HD
HETATM   17  C21 MIQ B 502      13.696 -12.148   3.506  1.00142.22     0.224 C 
HETATM   18  C22 MIQ B 502      12.614 -11.113   3.750  1.00139.52     0.106 C 
HETATM   19  O24 MIQ B 502      14.659 -11.903   2.867  1.00146.13    -0.273 OA
HETATM   20  C23 MIQ B 502      11.319 -11.712   3.232  1.00139.15     0.045 C 
ENDBRANCH  10  12
BRANCH   5  21
HETATM   21  N6  MIQ B 502       4.856 -13.087   8.169  1.00140.95    -0.377 N 
HETATM   22  C7  MIQ B 502       3.989 -14.050   7.513  1.00142.12     0.149 C 
HETATM   23  C8  MIQ B 502       2.526 -13.630   7.570  1.00144.10     0.187 C 
HETATM   24  O9  MIQ B 502       2.123 -13.236   8.848  1.00148.65    -0.388 OA
HETATM   25  C10 MIQ B 502       3.067 -13.047   9.861  1.00147.44     0.187 C 
HETATM   26  C11 MIQ B 502       4.468 -12.585   9.475  1.00144.08     0.149 C 
ENDBRANCH   5  21
TORSDOF 2
ENDMDL
MODEL 4
REMARK VINA RESULT:      -8.7      2.041      3.699
REMARK  2 active torsions:
REMARK  status: ('A' for Active; 'I' for Inactive)
REMARK    1  A    between atoms: C5_5  and  N6_21 
REMARK    2  A    between atoms: C18_14  and  N17_19 
ROOT
HETATM    1  O1  MIQ B 502      10.159 -12.792   7.102  1.00142.91    -0.171 OA
HETATM    2  C2  MIQ B 502       9.502 -12.937   5.878  1.00141.17     0.195 A 
HETATM    3  C3  MIQ B 502       7.983 -13.241   5.676  1.00141.71     0.035 A 
HETATM    4  C4  MIQ B 502       6.853 -13.451   6.611  1.00142.86     0.046 A 
HETATM    5  C5  MIQ B 502       5.551 -13.715   6.115  1.00139.53     0.031 A 
HETATM    6  C12 MIQ B 502       5.325 -13.778   4.678  1.00139.38     0.030 A 
HETATM    7  C13 MIQ B 502       6.408 -13.575   3.781  1.00141.18     0.019 A 
HETATM    8  C14 MIQ B 502       7.772 -13.296   4.308  1.00138.77     0.033 A 
HETATM    9  C15 MIQ B 502       9.167 -13.024   3.657  1.00142.10     0.195 A 
HETATM   10  N17 MIQ B 502      10.010 -12.844   4.660  1.00139.42    -0.288 N 
HETATM   11  O16 MIQ B 502       9.459 -12.984   2.292  1.00148.93    -0.171 OA
ENDROOT
BRANCH  10  12
HETATM   12  C18 MIQ B 502      11.418 -12.582   4.429  1.00139.82     0.187 C 
HETATM   13  C19 MIQ B 502      12.223 -13.650   5.181  1.00140.06     0.247 C 
HETATM   14  O25 MIQ B 502      11.956 -14.788   5.024  1.00143.95    -0.271 OA
HETATM   15  N20 MIQ B 502      13.307 -13.300   6.075  1.00140.02    -0.296 N 
HETATM   16  H13 MIQ B 502      13.821 -14.007   6.564  1.00142.77     0.171 HD
HETATM   17  C21 MIQ B 502      13.608 -11.904   6.258  1.00142.22     0.224 C 
HETATM   18  C22 MIQ B 502      12.437 -10.942   6.199  1.00139.52     0.106 C 
HETATM   19  O24 MIQ B 502      14.713 -11.528   6.439  1.00146.13    -0.273 OA
HETATM   20  C23 MIQ B 502      11.769 -11.156   4.853  1.00139.15     0.045 C 
ENDBRANCH  10  12
BRANCH   5  21
HETATM   21  N6  MIQ B 502       4.457 -13.934   7.043  1.00140.95    -0.377 N 
HETATM   22  C7  MIQ B 502       3.098 -13.711   6.579  1.00142.12     0.149 C 
HETATM   23  C8  MIQ B 502       2.160 -13.344   7.722  1.00144.10     0.187 C 
HETATM   24  O9  MIQ B 502       2.283 -14.196   8.821  1.00148.65    -0.388 OA
HETATM   25  C10 MIQ B 502       3.335 -15.114   8.890  1.00147.44     0.187 C 
HETATM   26  C11 MIQ B 502       4.658 -14.760   8.220  1.00144.08     0.149 C 
ENDBRANCH   5  21
TORSDOF 2
ENDMDL
MODEL 5
REMARK VINA RESULT:      -8.7      1.839      2.860
REMARK  2 active torsions:
REMARK  status: ('A' for Active; 'I' for Inactive)
REMARK    1  A    between atoms: C5_5  and  N6_21 
REMARK    2  A    between atoms: C18_14  and  N17_19 
ROOT
HETATM    1  O1  MIQ B 502       9.860 -12.614   8.237  1.00142.91    -0.171 OA
HETATM    2  C2  MIQ B 502       9.426 -12.866   6.933  1.00141.17     0.195 A 
HETATM    3  C3  MIQ B 502       7.952 -13.127   6.487  1.00141.71     0.035 A 
HETATM    4  C4  MIQ B 502       6.662 -13.185   7.214  1.00142.86     0.046 A 
HETATM    5  C5  MIQ B 502       5.457 -13.448   6.515  1.00139.53     0.031 A 
HETATM    6  C12 MIQ B 502       5.488 -13.661   5.075  1.00139.38     0.030 A 
HETATM    7  C13 MIQ B 502       6.724 -13.603   4.377  1.00141.18     0.019 A 
HETATM    8  C14 MIQ B 502       7.986 -13.325   5.116  1.00138.77     0.033 A 
HETATM    9  C15 MIQ B 502       9.490 -13.185   4.709  1.00142.10     0.195 A 
HETATM   10  N17 MIQ B 502      10.148 -12.930   5.828  1.00139.42    -0.288 N 
HETATM   11  O16 MIQ B 502      10.023 -13.308   3.426  1.00148.93    -0.171 OA
ENDROOT
BRANCH  10  12
HETATM   12  C18 MIQ B 502      11.588 -12.753   5.836  1.00139.82     0.187 C 
HETATM   13  C19 MIQ B 502      11.938 -11.722   4.756  1.00140.06     0.247 C 
HETATM   14  O25 MIQ B 502      11.368 -10.689   4.739  1.00143.95    -0.271 OA
HETATM   15  N20 MIQ B 502      12.956 -11.977   3.757  1.00140.02    -0.296 N 
HETATM   16  H13 MIQ B 502      13.171 -11.298   3.053  1.00142.77     0.171 HD
HETATM   17  C21 MIQ B 502      13.631 -13.249   3.792  1.00142.22     0.224 C 
HETATM   18  C22 MIQ B 502      12.815 -14.441   4.254  1.00139.52     0.106 C 
HETATM   19  O24 MIQ B 502      14.767 -13.355   3.481  1.00146.13    -0.273 OA
HETATM   20  C23 MIQ B 502      12.290 -14.095   5.635  1.00139.15     0.045 C 
ENDBRANCH  10  12
BRANCH   5  21
HETATM   21  N6  MIQ B 502       4.202 -13.518   7.242  1.00140.95    -0.377 N 
HETATM   22  C7  MIQ B 502       4.139 -12.942   8.575  1.00142.12     0.149 C 
HETATM   23  C8  MIQ B 502       3.074 -13.612   9.434  1.00144.10     0.187 C 
HETATM   24  O9  MIQ B 502       1.848 -13.737   8.779  1.00148.65    -0.388 OA
HETATM   25  C10 MIQ B 502       1.745 -13.473   7.411  1.00147.44     0.187 C 
HETATM   26  C11 MIQ B 502       2.959 -13.735   6.524  1.00144.08     0.149 C 
ENDBRANCH   5  21
TORSDOF 2
ENDMDL
MODEL 6
REMARK VINA RESULT:      -8.6      1.205      2.348
REMARK  2 active torsions:
REMARK  status: ('A' for Active; 'I' for Inactive)
REMARK    1  A    between atoms: C5_5  and  N6_21 
REMARK    2  A    between atoms: C18_14  and  N17_19 
ROOT
HETATM    1  O1  MIQ B 502       9.516 -12.927   7.264  1.00142.91    -0.171 OA
HETATM    2  C2  MIQ B 502       8.551 -13.091   6.267  1.00141.17     0.195 A 
HETATM    3  C3  MIQ B 502       7.006 -13.170   6.483  1.00141.71     0.035 A 
HETATM    4  C4  MIQ B 502       6.141 -13.101   7.684  1.00142.86     0.046 A 
HETATM    5  C5  MIQ B 502       4.732 -13.205   7.559  1.00139.53     0.031 A 
HETATM    6  C12 MIQ B 502       4.134 -13.379   6.243  1.00139.38     0.030 A 
HETATM    7  C13 MIQ B 502       4.964 -13.444   5.091  1.00141.18     0.019 A 
HETATM    8  C14 MIQ B 502       6.442 -13.332   5.228  1.00138.77     0.033 A 
HETATM    9  C15 MIQ B 502       7.644 -13.353   4.228  1.00142.10     0.195 A 
HETATM   10  N17 MIQ B 502       8.734 -13.206   4.963  1.00139.42    -0.288 N 
HETATM   11  O16 MIQ B 502       7.574 -13.501   2.841  1.00148.93    -0.171 OA
ENDROOT
BRANCH  10  12
HETATM   12  C18 MIQ B 502      10.055 -13.195   4.364  1.00139.82     0.187 C 
HETATM   13  C19 MIQ B 502      10.096 -12.052   3.342  1.00140.06     0.247 C 
HETATM   14  O25 MIQ B 502       9.753 -10.973   3.672  1.00143.95    -0.271 OA
HETATM   15  N20 MIQ B 502      10.550 -12.259   1.982  1.00140.02    -0.296 N 
HETATM   16  H13 MIQ B 502      10.566 -11.506   1.323  1.00142.77     0.171 HD
HETATM   17  C21 MIQ B 502      10.954 -13.588   1.601  1.00142.22     0.224 C 
HETATM   18  C22 MIQ B 502      10.214 -14.739   2.254  1.00139.52     0.106 C 
HETATM   19  O24 MIQ B 502      11.824 -13.769   0.821  1.00146.13    -0.273 OA
HETATM   20  C23 MIQ B 502      10.374 -14.559   3.753  1.00139.15     0.045 C 
ENDBRANCH  10  12
BRANCH   5  21
HETATM   21  N6  MIQ B 502       3.897 -13.151   8.745  1.00140.95    -0.377 N 
HETATM   22  C7  MIQ B 502       3.170 -14.346   9.137  1.00142.12     0.149 C 
HETATM   23  C8  MIQ B 502       1.911 -14.012   9.928  1.00144.10     0.187 C 
HETATM   24  O9  MIQ B 502       2.141 -13.090  10.951  1.00148.65    -0.388 OA
HETATM   25  C10 MIQ B 502       3.361 -12.412  11.033  1.00147.44     0.187 C 
HETATM   26  C11 MIQ B 502       4.120 -12.119   9.743  1.00144.08     0.149 C 
ENDBRANCH   5  21
TORSDOF 2
ENDMDL
MODEL 7
REMARK VINA RESULT:      -8.5      2.485      3.724
REMARK  2 active torsions:
REMARK  status: ('A' for Active; 'I' for Inactive)
REMARK    1  A    between atoms: C5_5  and  N6_21 
REMARK    2  A    between atoms: C18_14  and  N17_19 
ROOT
HETATM    1  O1  MIQ B 502      11.955 -12.598   5.981  1.00142.91    -0.171 OA
HETATM    2  C2  MIQ B 502      10.911 -12.828   5.082  1.00141.17     0.195 A 
HETATM    3  C3  MIQ B 502       9.396 -12.954   5.441  1.00141.71     0.035 A 
HETATM    4  C4  MIQ B 502       8.640 -12.877   6.714  1.00142.86     0.046 A 
HETATM    5  C5  MIQ B 502       7.231 -13.034   6.722  1.00139.53     0.031 A 
HETATM    6  C12 MIQ B 502       6.524 -13.271   5.471  1.00139.38     0.030 A 
HETATM    7  C13 MIQ B 502       7.248 -13.344   4.251  1.00141.18     0.019 A 
HETATM    8  C14 MIQ B 502       8.727 -13.176   4.249  1.00138.77     0.033 A 
HETATM    9  C15 MIQ B 502       9.832 -13.187   3.143  1.00142.10     0.195 A 
HETATM   10  N17 MIQ B 502      10.978 -12.978   3.771  1.00139.42    -0.288 N 
HETATM   11  O16 MIQ B 502       9.643 -13.381   1.774  1.00148.93    -0.171 OA
ENDROOT
BRANCH  10  12
HETATM   12  C18 MIQ B 502      12.239 -12.939   3.053  1.00139.82     0.187 C 
HETATM   13  C19 MIQ B 502      13.187 -13.944   3.719  1.00140.06     0.247 C 
HETATM   14  O25 MIQ B 502      12.819 -15.049   3.903  1.00143.95    -0.271 OA
HETATM   15  N20 MIQ B 502      14.528 -13.575   4.125  1.00140.02    -0.296 N 
HETATM   16  H13 MIQ B 502      15.135 -14.238   4.565  1.00142.77     0.171 HD
HETATM   17  C21 MIQ B 502      14.951 -12.216   3.900  1.00142.22     0.224 C 
HETATM   18  C22 MIQ B 502      13.885 -11.143   4.012  1.00139.52     0.106 C 
HETATM   19  O24 MIQ B 502      16.073 -11.954   3.635  1.00146.13    -0.273 OA
HETATM   20  C23 MIQ B 502      12.792 -11.516   3.027  1.00139.15     0.045 C 
ENDBRANCH  10  12
BRANCH   5  21
HETATM   21  N6  MIQ B 502       6.506 -12.972   7.977  1.00140.95    -0.377 N 
HETATM   22  C7  MIQ B 502       5.305 -13.775   8.126  1.00142.12     0.149 C 
HETATM   23  C8  MIQ B 502       4.337 -13.170   9.135  1.00144.10     0.187 C 
HETATM   24  O9  MIQ B 502       4.958 -12.799  10.329  1.00148.65    -0.388 OA
HETATM   25  C10 MIQ B 502       6.352 -12.792  10.429  1.00147.44     0.187 C 
HETATM   26  C11 MIQ B 502       7.172 -12.496   9.177  1.00144.08     0.149 C 
ENDBRANCH   5  21
TORSDOF 2
ENDMDL
MODEL 8
REMARK VINA RESULT:      -8.3      2.446      3.210
REMARK  2 active torsions:
REMARK  status: ('A' for Active; 'I' for Inactive)
REMARK    1  A    between atoms: C5_5  and  N6_21 
REMARK    2  A    between atoms: C18_14  and  N17_19 
ROOT
HETATM    1  O1  MIQ B 502       9.113 -13.397   2.039  1.00142.91    -0.171 OA
HETATM    2  C2  MIQ B 502       9.430 -13.188   3.383  1.00141.17     0.195 A 
HETATM    3  C3  MIQ B 502       8.427 -13.204   4.580  1.00141.71     0.035 A 
HETATM    4  C4  MIQ B 502       6.965 -13.425   4.682  1.00142.86     0.046 A 
HETATM    5  C5  MIQ B 502       6.319 -13.378   5.943  1.00139.53     0.031 A 
HETATM    6  C12 MIQ B 502       7.098 -13.111   7.144  1.00139.38     0.030 A 
HETATM    7  C13 MIQ B 502       8.499 -12.901   7.047  1.00141.18     0.019 A 
HETATM    8  C14 MIQ B 502       9.173 -12.954   5.721  1.00138.77     0.033 A 
HETATM    9  C15 MIQ B 502      10.647 -12.783   5.229  1.00142.10     0.195 A 
HETATM   10  N17 MIQ B 502      10.615 -12.945   3.916  1.00139.42    -0.288 N 
HETATM   11  O16 MIQ B 502      11.765 -12.511   6.018  1.00148.93    -0.171 OA
ENDROOT
BRANCH  10  12
HETATM   12  C18 MIQ B 502      11.817 -12.837   3.110  1.00139.82     0.187 C 
HETATM   13  C19 MIQ B 502      12.869 -13.777   3.712  1.00140.06     0.247 C 
HETATM   14  O25 MIQ B 502      12.581 -14.901   3.926  1.00143.95    -0.271 OA
HETATM   15  N20 MIQ B 502      14.210 -13.325   4.019  1.00140.02    -0.296 N 
HETATM   16  H13 MIQ B 502      14.886 -13.947   4.418  1.00142.77     0.171 HD
HETATM   17  C21 MIQ B 502      14.533 -11.946   3.758  1.00142.22     0.224 C 
HETATM   18  C22 MIQ B 502      13.416 -10.938   3.942  1.00139.52     0.106 C 
HETATM   19  O24 MIQ B 502      15.616 -11.620   3.413  1.00146.13    -0.273 OA
HETATM   20  C23 MIQ B 502      12.280 -11.383   3.038  1.00139.15     0.045 C 
ENDBRANCH  10  12
BRANCH   5  21
HETATM   21  N6  MIQ B 502       4.884 -13.581   6.027  1.00140.95    -0.377 N 
HETATM   22  C7  MIQ B 502       4.241 -13.471   7.325  1.00142.12     0.149 C 
HETATM   23  C8  MIQ B 502       2.964 -14.298   7.399  1.00144.10     0.187 C 
HETATM   24  O9  MIQ B 502       2.126 -14.103   6.299  1.00148.65    -0.388 OA
HETATM   25  C10 MIQ B 502       2.578 -13.398   5.181  1.00147.44     0.187 C 
HETATM   26  C11 MIQ B 502       4.063 -13.451   4.836  1.00144.08     0.149 C 
ENDBRANCH   5  21
TORSDOF 2
ENDMDL
MODEL 9
REMARK VINA RESULT:      -8.3      2.662      3.365
REMARK  2 active torsions:
REMARK  status: ('A' for Active; 'I' for Inactive)
REMARK    1  A    between atoms: C5_5  and  N6_21 
REMARK    2  A    between atoms: C18_14  and  N17_19 
ROOT
HETATM    1  O1  MIQ B 502       9.421 -13.166   1.828  1.00142.91    -0.171 OA
HETATM    2  C2  MIQ B 502       9.698 -13.061   3.193  1.00141.17     0.195 A 
HETATM    3  C3  MIQ B 502       8.652 -13.095   4.352  1.00141.71     0.035 A 
HETATM    4  C4  MIQ B 502       7.177 -13.239   4.390  1.00142.86     0.046 A 
HETATM    5  C5  MIQ B 502       6.488 -13.235   5.629  1.00139.53     0.031 A 
HETATM    6  C12 MIQ B 502       7.234 -13.090   6.870  1.00139.38     0.030 A 
HETATM    7  C13 MIQ B 502       8.648 -12.953   6.835  1.00141.18     0.019 A 
HETATM    8  C14 MIQ B 502       9.367 -12.960   5.531  1.00138.77     0.033 A 
HETATM    9  C15 MIQ B 502      10.865 -12.842   5.101  1.00142.10     0.195 A 
HETATM   10  N17 MIQ B 502      10.874 -12.919   3.781  1.00139.42    -0.288 N 
HETATM   11  O16 MIQ B 502      11.967 -12.685   5.945  1.00148.93    -0.171 OA
ENDROOT
BRANCH  10  12
HETATM   12  C18 MIQ B 502      12.109 -12.829   3.025  1.00139.82     0.187 C 
HETATM   13  C19 MIQ B 502      13.084 -13.864   3.598  1.00140.06     0.247 C 
HETATM   14  O25 MIQ B 502      12.728 -14.981   3.727  1.00143.95    -0.271 OA
HETATM   15  N20 MIQ B 502      14.436 -13.510   3.980  1.00140.02    -0.296 N 
HETATM   16  H13 MIQ B 502      15.061 -14.194   4.358  1.00142.77     0.171 HD
HETATM   17  C21 MIQ B 502      14.845 -12.138   3.822  1.00142.22     0.224 C 
HETATM   18  C22 MIQ B 502      13.778 -11.081   4.034  1.00139.52     0.106 C 
HETATM   19  O24 MIQ B 502      15.955 -11.853   3.535  1.00146.13    -0.273 OA
HETATM   20  C23 MIQ B 502      12.654 -11.402   3.065  1.00139.15     0.045 C 
ENDBRANCH  10  12
BRANCH   5  21
HETATM   21  N6  MIQ B 502       5.042 -13.362   5.650  1.00140.95    -0.377 N 
HETATM   22  C7  MIQ B 502       4.351 -13.646   4.404  1.00142.12     0.149 C 
HETATM   23  C8  MIQ B 502       2.918 -13.129   4.417  1.00144.10     0.187 C 
HETATM   24  O9  MIQ B 502       2.225 -13.480   5.577  1.00148.65    -0.388 OA
HETATM   25  C10 MIQ B 502       2.902 -14.037   6.665  1.00147.44     0.187 C 
HETATM   26  C11 MIQ B 502       4.356 -13.642   6.899  1.00144.08     0.149 C 
ENDBRANCH   5  21
TORSDOF 2
ENDMDL
