MODEL 1
REMARK VINA RESULT:      -6.8      0.000      0.000
REMARK  2 active torsions:
REMARK  status: ('A' for Active; 'I' for Inactive)
REMARK    1  A    between atoms: C5_5  and  N6_21 
REMARK    2  A    between atoms: C18_14  and  N17_19 
ROOT
HETATM    1  O1  MIQ B 502       4.943  11.112 -10.322  1.00142.91    -0.171 OA
HETATM    2  C2  MIQ B 502       5.294  11.940  -9.254  1.00141.17     0.195 A 
HETATM    3  C3  MIQ B 502       5.102  13.489  -9.186  1.00141.71     0.035 A 
HETATM    4  C4  MIQ B 502       4.542  14.488 -10.126  1.00142.86     0.046 A 
HETATM    5  C5  MIQ B 502       4.500  15.861  -9.772  1.00139.53     0.031 A 
HETATM    6  C12 MIQ B 502       5.010  16.289  -8.478  1.00139.38     0.030 A 
HETATM    7  C13 MIQ B 502       5.546  15.331  -7.576  1.00141.18     0.019 A 
HETATM    8  C14 MIQ B 502       5.585  13.891  -7.952  1.00138.77     0.033 A 
HETATM    9  C15 MIQ B 502       6.079  12.584  -7.249  1.00142.10     0.195 A 
HETATM   10  N17 MIQ B 502       5.844  11.600  -8.101  1.00139.42    -0.288 N 
HETATM   11  O16 MIQ B 502       6.654  12.484  -5.981  1.00148.93    -0.171 OA
ENDROOT
BRANCH  10  12
HETATM   12  C18 MIQ B 502       6.194  10.227  -7.788  1.00139.82     0.187 C 
HETATM   13  C19 MIQ B 502       7.038   9.683  -8.947  1.00140.06     0.247 C 
HETATM   14  O25 MIQ B 502       7.971  10.302  -9.319  1.00143.95    -0.271 OA
HETATM   15  N20 MIQ B 502       6.725   8.427  -9.595  1.00140.02    -0.296 N 
HETATM   16  H13 MIQ B 502       7.280   8.086 -10.355  1.00142.77     0.171 HD
HETATM   17  C21 MIQ B 502       5.575   7.695  -9.130  1.00142.22     0.224 C 
HETATM   18  C22 MIQ B 502       4.401   8.517  -8.634  1.00139.52     0.106 C 
HETATM   19  O24 MIQ B 502       5.552   6.514  -9.131  1.00146.13    -0.273 OA
HETATM   20  C23 MIQ B 502       4.934   9.405  -7.524  1.00139.15     0.045 C 
ENDBRANCH  10  12
BRANCH   5  21
HETATM   21  N6  MIQ B 502       3.962  16.831 -10.709  1.00140.95    -0.377 N 
HETATM   22  C7  MIQ B 502       4.144  16.598 -12.131  1.00142.12     0.149 C 
HETATM   23  C8  MIQ B 502       4.141  17.898 -12.925  1.00144.10     0.187 C 
HETATM   24  O9  MIQ B 502       3.076  18.737 -12.589  1.00148.65    -0.388 OA
HETATM   25  C10 MIQ B 502       2.280  18.459 -11.475  1.00147.44     0.187 C 
HETATM   26  C11 MIQ B 502       2.913  17.742 -10.287  1.00144.08     0.149 C 
ENDBRANCH   5  21
TORSDOF 2
ENDMDL
MODEL 2
REMARK VINA RESULT:      -6.7      1.766      2.949
REMARK  2 active torsions:
REMARK  status: ('A' for Active; 'I' for Inactive)
REMARK    1  A    between atoms: C5_5  and  N6_21 
REMARK    2  A    between atoms: C18_14  and  N17_19 
ROOT
HETATM    1  O1  MIQ B 502       6.580  12.545  -5.993  1.00142.91    -0.171 OA
HETATM    2  C2  MIQ B 502       6.094  12.598  -7.301  1.00141.17     0.195 A 
HETATM    3  C3  MIQ B 502       5.647  13.884  -8.067  1.00141.71     0.035 A 
HETATM    4  C4  MIQ B 502       5.597  15.320  -7.705  1.00142.86     0.046 A 
HETATM    5  C5  MIQ B 502       5.131  16.279  -8.640  1.00139.53     0.031 A 
HETATM    6  C12 MIQ B 502       4.700  15.849  -9.962  1.00139.38     0.030 A 
HETATM    7  C13 MIQ B 502       4.749  14.472 -10.310  1.00141.18     0.019 A 
HETATM    8  C14 MIQ B 502       5.241  13.470  -9.325  1.00138.77     0.033 A 
HETATM    9  C15 MIQ B 502       5.439  11.919  -9.341  1.00142.10     0.195 A 
HETATM   10  N17 MIQ B 502       5.918  11.600  -8.150  1.00139.42    -0.288 N 
HETATM   11  O16 MIQ B 502       5.161  11.052 -10.399  1.00148.93    -0.171 OA
ENDROOT
BRANCH  10  12
HETATM   12  C18 MIQ B 502       6.211  10.224  -7.795  1.00139.82     0.187 C 
HETATM   13  C19 MIQ B 502       7.093   9.634  -8.902  1.00140.06     0.247 C 
HETATM   14  O25 MIQ B 502       8.061  10.217  -9.240  1.00143.95    -0.271 OA
HETATM   15  N20 MIQ B 502       6.774   8.374  -9.542  1.00140.02    -0.296 N 
HETATM   16  H13 MIQ B 502       7.354   8.002 -10.268  1.00142.77     0.171 HD
HETATM   17  C21 MIQ B 502       5.581   7.686  -9.119  1.00142.22     0.224 C 
HETATM   18  C22 MIQ B 502       4.410   8.550  -8.695  1.00139.52     0.106 C 
HETATM   19  O24 MIQ B 502       5.523   6.505  -9.100  1.00146.13    -0.273 OA
HETATM   20  C23 MIQ B 502       4.916   9.444  -7.577  1.00139.15     0.045 C 
ENDBRANCH  10  12
BRANCH   5  21
HETATM   21  N6  MIQ B 502       5.073  17.681  -8.267  1.00140.95    -0.377 N 
HETATM   22  C7  MIQ B 502       3.775  18.275  -7.997  1.00142.12     0.149 C 
HETATM   23  C8  MIQ B 502       3.771  19.776  -8.257  1.00144.10     0.187 C 
HETATM   24  O9  MIQ B 502       4.860  20.431  -7.677  1.00148.65    -0.388 OA
HETATM   25  C10 MIQ B 502       5.920  19.699  -7.136  1.00147.44     0.187 C 
HETATM   26  C11 MIQ B 502       6.257  18.343  -7.747  1.00144.08     0.149 C 
ENDBRANCH   5  21
TORSDOF 2
ENDMDL
MODEL 3
REMARK VINA RESULT:      -6.6     14.134     16.280
REMARK  2 active torsions:
REMARK  status: ('A' for Active; 'I' for Inactive)
REMARK    1  A    between atoms: C5_5  and  N6_21 
REMARK    2  A    between atoms: C18_14  and  N17_19 
ROOT
HETATM    1  O1  MIQ B 502      19.580   4.559  -7.854  1.00142.91    -0.171 OA
HETATM    2  C2  MIQ B 502      18.587   4.392  -8.821  1.00141.17     0.195 A 
HETATM    3  C3  MIQ B 502      18.695   4.776 -10.331  1.00141.71     0.035 A 
HETATM    4  C4  MIQ B 502      19.771   5.376 -11.155  1.00142.86     0.046 A 
HETATM    5  C5  MIQ B 502      19.568   5.610 -12.539  1.00139.53     0.031 A 
HETATM    6  C12 MIQ B 502      18.296   5.257 -13.153  1.00139.38     0.030 A 
HETATM    7  C13 MIQ B 502      17.265   4.680 -12.363  1.00141.18     0.019 A 
HETATM    8  C14 MIQ B 502      17.484   4.435 -10.912  1.00138.77     0.033 A 
HETATM    9  C15 MIQ B 502      16.619   3.835  -9.755  1.00142.10     0.195 A 
HETATM   10  N17 MIQ B 502      17.376   3.882  -8.671  1.00139.42    -0.288 N 
HETATM   11  O16 MIQ B 502      15.313   3.352  -9.853  1.00148.93    -0.171 OA
ENDROOT
BRANCH  10  12
HETATM   12  C18 MIQ B 502      16.888   3.417  -7.386  1.00139.82     0.187 C 
HETATM   13  C19 MIQ B 502      16.389   1.978  -7.568  1.00140.06     0.247 C 
HETATM   14  O25 MIQ B 502      17.094   1.185  -8.085  1.00143.95    -0.271 OA
HETATM   15  N20 MIQ B 502      15.077   1.562  -7.118  1.00140.02    -0.296 N 
HETATM   16  H13 MIQ B 502      14.761   0.621  -7.248  1.00142.77     0.171 HD
HETATM   17  C21 MIQ B 502      14.231   2.550  -6.500  1.00142.22     0.224 C 
HETATM   18  C22 MIQ B 502      14.356   3.971  -7.014  1.00139.52     0.106 C 
HETATM   19  O24 MIQ B 502      13.482   2.266  -5.631  1.00146.13    -0.273 OA
HETATM   20  C23 MIQ B 502      15.813   4.362  -6.852  1.00139.15     0.045 C 
ENDBRANCH  10  12
BRANCH   5  21
HETATM   21  N6  MIQ B 502      20.625   6.213 -13.331  1.00140.95    -0.377 N 
HETATM   22  C7  MIQ B 502      20.363   7.482 -13.987  1.00142.12     0.149 C 
HETATM   23  C8  MIQ B 502      21.226   7.668 -15.229  1.00144.10     0.187 C 
HETATM   24  O9  MIQ B 502      22.573   7.380 -15.004  1.00148.65    -0.388 OA
HETATM   25  C10 MIQ B 502      22.976   6.766 -13.815  1.00147.44     0.187 C 
HETATM   26  C11 MIQ B 502      22.006   5.817 -13.118  1.00144.08     0.149 C 
ENDBRANCH   5  21
TORSDOF 2
ENDMDL
MODEL 4
REMARK VINA RESULT:      -6.6     14.033     15.518
REMARK  2 active torsions:
REMARK  status: ('A' for Active; 'I' for Inactive)
REMARK    1  A    between atoms: C5_5  and  N6_21 
REMARK    2  A    between atoms: C18_14  and  N17_19 
ROOT
HETATM    1  O1  MIQ B 502      15.261   3.434  -9.907  1.00142.91    -0.171 OA
HETATM    2  C2  MIQ B 502      16.589   3.860  -9.824  1.00141.17     0.195 A 
HETATM    3  C3  MIQ B 502      17.450   4.430 -10.996  1.00141.71     0.035 A 
HETATM    4  C4  MIQ B 502      17.177   4.684 -12.430  1.00142.86     0.046 A 
HETATM    5  C5  MIQ B 502      18.186   5.224 -13.267  1.00139.53     0.031 A 
HETATM    6  C12 MIQ B 502      19.497   5.531 -12.712  1.00139.38     0.030 A 
HETATM    7  C13 MIQ B 502      19.758   5.288 -11.336  1.00141.18     0.019 A 
HETATM    8  C14 MIQ B 502      18.694   4.723 -10.463  1.00138.77     0.033 A 
HETATM    9  C15 MIQ B 502      18.605   4.334  -8.951  1.00142.10     0.195 A 
HETATM   10  N17 MIQ B 502      17.378   3.878  -8.763  1.00139.42    -0.288 N 
HETATM   11  O16 MIQ B 502      19.619   4.445  -7.998  1.00148.93    -0.171 OA
ENDROOT
BRANCH  10  12
HETATM   12  C18 MIQ B 502      16.936   3.404  -7.464  1.00139.82     0.187 C 
HETATM   13  C19 MIQ B 502      16.349   2.000  -7.654  1.00140.06     0.247 C 
HETATM   14  O25 MIQ B 502      16.979   1.185  -8.229  1.00143.95    -0.271 OA
HETATM   15  N20 MIQ B 502      15.043   1.643  -7.140  1.00140.02    -0.296 N 
HETATM   16  H13 MIQ B 502      14.668   0.724  -7.276  1.00142.77     0.171 HD
HETATM   17  C21 MIQ B 502      14.288   2.658  -6.451  1.00142.22     0.224 C 
HETATM   18  C22 MIQ B 502      14.463   4.084  -6.936  1.00139.52     0.106 C 
HETATM   19  O24 MIQ B 502      13.574   2.390  -5.548  1.00146.13    -0.273 OA
HETATM   20  C23 MIQ B 502      15.947   4.391  -6.847  1.00139.15     0.045 C 
ENDBRANCH  10  12
BRANCH   5  21
HETATM   21  N6  MIQ B 502      17.910   5.454 -14.673  1.00140.95    -0.377 N 
HETATM   22  C7  MIQ B 502      16.664   6.106 -15.039  1.00142.12     0.149 C 
HETATM   23  C8  MIQ B 502      16.210   5.718 -16.440  1.00144.10     0.187 C 
HETATM   24  O9  MIQ B 502      17.231   5.809 -17.387  1.00148.65    -0.388 OA
HETATM   25  C10 MIQ B 502      18.554   6.009 -16.985  1.00147.44     0.187 C 
HETATM   26  C11 MIQ B 502      18.998   5.454 -15.636  1.00144.08     0.149 C 
ENDBRANCH   5  21
TORSDOF 2
ENDMDL
MODEL 5
REMARK VINA RESULT:      -6.5     15.030     17.154
REMARK  2 active torsions:
REMARK  status: ('A' for Active; 'I' for Inactive)
REMARK    1  A    between atoms: C5_5  and  N6_21 
REMARK    2  A    between atoms: C18_14  and  N17_19 
ROOT
HETATM    1  O1  MIQ B 502       5.666  22.871   7.341  1.00142.91    -0.171 OA
HETATM    2  C2  MIQ B 502       5.381  21.655   6.717  1.00141.17     0.195 A 
HETATM    3  C3  MIQ B 502       4.728  21.471   5.309  1.00141.71     0.035 A 
HETATM    4  C4  MIQ B 502       4.248  22.421   4.277  1.00142.86     0.046 A 
HETATM    5  C5  MIQ B 502       3.689  21.940   3.066  1.00139.53     0.031 A 
HETATM    6  C12 MIQ B 502       3.586  20.506   2.837  1.00139.38     0.030 A 
HETATM    7  C13 MIQ B 502       4.048  19.596   3.826  1.00141.18     0.019 A 
HETATM    8  C14 MIQ B 502       4.636  20.106   5.094  1.00138.77     0.033 A 
HETATM    9  C15 MIQ B 502       5.236  19.438   6.374  1.00142.10     0.195 A 
HETATM   10  N17 MIQ B 502       5.601  20.432   7.167  1.00139.42    -0.288 N 
HETATM   11  O16 MIQ B 502       5.356  18.070   6.625  1.00148.93    -0.171 OA
ENDROOT
BRANCH  10  12
HETATM   12  C18 MIQ B 502       6.192  20.184   8.469  1.00139.82     0.187 C 
HETATM   13  C19 MIQ B 502       7.445  19.326   8.259  1.00140.06     0.247 C 
HETATM   14  O25 MIQ B 502       8.251  19.668   7.468  1.00143.95    -0.271 OA
HETATM   15  N20 MIQ B 502       7.672  18.108   9.009  1.00140.02    -0.296 N 
HETATM   16  H13 MIQ B 502       8.492  17.553   8.857  1.00142.77     0.171 HD
HETATM   17  C21 MIQ B 502       6.669  17.705   9.961  1.00142.22     0.224 C 
HETATM   18  C22 MIQ B 502       5.230  18.034   9.614  1.00139.52     0.106 C 
HETATM   19  O24 MIQ B 502       6.957  17.151  10.964  1.00146.13    -0.273 OA
HETATM   20  C23 MIQ B 502       5.170  19.536   9.402  1.00139.15     0.045 C 
ENDBRANCH  10  12
BRANCH   5  21
HETATM   21  N6  MIQ B 502       3.209  22.881   2.071  1.00140.95    -0.377 N 
HETATM   22  C7  MIQ B 502       2.490  22.366   0.918  1.00142.12     0.149 C 
HETATM   23  C8  MIQ B 502       2.618  23.286  -0.290  1.00144.10     0.187 C 
HETATM   24  O9  MIQ B 502       2.370  24.625   0.019  1.00148.65    -0.388 OA
HETATM   25  C10 MIQ B 502       2.257  25.035   1.350  1.00147.44     0.187 C 
HETATM   26  C11 MIQ B 502       3.048  24.283   2.415  1.00144.08     0.149 C 
ENDBRANCH   5  21
TORSDOF 2
ENDMDL
MODEL 6
REMARK VINA RESULT:      -6.3      3.450      4.487
REMARK  2 active torsions:
REMARK  status: ('A' for Active; 'I' for Inactive)
REMARK    1  A    between atoms: C5_5  and  N6_21 
REMARK    2  A    between atoms: C18_14  and  N17_19 
ROOT
HETATM    1  O1  MIQ B 502       5.359  14.201  -7.639  1.00142.91    -0.171 OA
HETATM    2  C2  MIQ B 502       6.317  14.741  -8.500  1.00141.17     0.195 A 
HETATM    3  C3  MIQ B 502       6.649  16.257  -8.675  1.00141.71     0.035 A 
HETATM    4  C4  MIQ B 502       6.121  17.494  -8.053  1.00142.86     0.046 A 
HETATM    5  C5  MIQ B 502       6.637  18.761  -8.425  1.00139.53     0.031 A 
HETATM    6  C12 MIQ B 502       7.693  18.845  -9.424  1.00139.38     0.030 A 
HETATM    7  C13 MIQ B 502       8.200  17.659 -10.020  1.00141.18     0.019 A 
HETATM    8  C14 MIQ B 502       7.656  16.332  -9.624  1.00138.77     0.033 A 
HETATM    9  C15 MIQ B 502       7.951  14.854 -10.039  1.00142.10     0.195 A 
HETATM   10  N17 MIQ B 502       7.129  14.103  -9.325  1.00139.42    -0.288 N 
HETATM   11  O16 MIQ B 502       8.890  14.421 -10.977  1.00148.93    -0.171 OA
ENDROOT
BRANCH  10  12
HETATM   12  C18 MIQ B 502       7.111  12.658  -9.463  1.00139.82     0.187 C 
HETATM   13  C19 MIQ B 502       5.663  12.232  -9.733  1.00140.06     0.247 C 
HETATM   14  O25 MIQ B 502       5.058  12.763 -10.595  1.00143.95    -0.271 OA
HETATM   15  N20 MIQ B 502       5.017  11.189  -8.963  1.00140.02    -0.296 N 
HETATM   16  H13 MIQ B 502       4.069  10.924  -9.146  1.00142.77     0.171 HD
HETATM   17  C21 MIQ B 502       5.773  10.562  -7.910  1.00142.22     0.224 C 
HETATM   18  C22 MIQ B 502       6.768  11.437  -7.172  1.00139.52     0.106 C 
HETATM   19  O24 MIQ B 502       5.627   9.421  -7.639  1.00146.13    -0.273 OA
HETATM   20  C23 MIQ B 502       7.710  11.999  -8.221  1.00139.15     0.045 C 
ENDBRANCH  10  12
BRANCH   5  21
HETATM   21  N6  MIQ B 502       6.101  19.965  -7.819  1.00140.95    -0.377 N 
HETATM   22  C7  MIQ B 502       4.702  20.290  -8.039  1.00142.12     0.149 C 
HETATM   23  C8  MIQ B 502       4.442  21.787  -7.934  1.00144.10     0.187 C 
HETATM   24  O9  MIQ B 502       5.015  22.360  -6.797  1.00148.65    -0.388 OA
HETATM   25  C10 MIQ B 502       5.913  21.630  -6.013  1.00147.44     0.187 C 
HETATM   26  C11 MIQ B 502       6.781  20.575  -6.689  1.00144.08     0.149 C 
ENDBRANCH   5  21
TORSDOF 2
ENDMDL
MODEL 7
REMARK VINA RESULT:      -6.2     17.478     19.390
REMARK  2 active torsions:
REMARK  status: ('A' for Active; 'I' for Inactive)
REMARK    1  A    between atoms: C5_5  and  N6_21 
REMARK    2  A    between atoms: C18_14  and  N17_19 
ROOT
HETATM    1  O1  MIQ B 502       6.220  19.501   5.902  1.00142.91    -0.171 OA
HETATM    2  C2  MIQ B 502       6.882  20.120   6.965  1.00141.17     0.195 A 
HETATM    3  C3  MIQ B 502       7.998  21.207   6.849  1.00141.71     0.035 A 
HETATM    4  C4  MIQ B 502       8.653  21.876   5.700  1.00142.86     0.046 A 
HETATM    5  C5  MIQ B 502       9.660  22.851   5.916  1.00139.53     0.031 A 
HETATM    6  C12 MIQ B 502      10.050  23.196   7.276  1.00139.38     0.030 A 
HETATM    7  C13 MIQ B 502       9.421  22.556   8.378  1.00141.18     0.019 A 
HETATM    8  C14 MIQ B 502       8.363  21.536   8.144  1.00138.77     0.033 A 
HETATM    9  C15 MIQ B 502       7.469  20.647   9.070  1.00142.10     0.195 A 
HETATM   10  N17 MIQ B 502       6.708  19.928   8.261  1.00139.42    -0.288 N 
HETATM   11  O16 MIQ B 502       7.478  20.621  10.465  1.00148.93    -0.171 OA
ENDROOT
BRANCH  10  12
HETATM   12  C18 MIQ B 502       5.752  18.967   8.778  1.00139.82     0.187 C 
HETATM   13  C19 MIQ B 502       4.907  19.674   9.844  1.00140.06     0.247 C 
HETATM   14  O25 MIQ B 502       4.397  20.706   9.583  1.00143.95    -0.271 OA
HETATM   15  N20 MIQ B 502       4.710  19.108  11.163  1.00140.02    -0.296 N 
HETATM   16  H13 MIQ B 502       4.162  19.583  11.852  1.00142.77     0.171 HD
HETATM   17  C21 MIQ B 502       5.351  17.853  11.460  1.00142.22     0.224 C 
HETATM   18  C22 MIQ B 502       6.695  17.602  10.804  1.00139.52     0.106 C 
HETATM   19  O24 MIQ B 502       4.850  17.058  12.176  1.00146.13    -0.273 OA
HETATM   20  C23 MIQ B 502       6.475  17.729   9.307  1.00139.15     0.045 C 
ENDBRANCH  10  12
BRANCH   5  21
HETATM   21  N6  MIQ B 502      10.304  23.486   4.782  1.00140.95    -0.377 N 
HETATM   22  C7  MIQ B 502      11.378  24.432   5.033  1.00142.12     0.149 C 
HETATM   23  C8  MIQ B 502      11.509  25.455   3.912  1.00144.10     0.187 C 
HETATM   24  O9  MIQ B 502      11.510  24.874   2.643  1.00148.65    -0.388 OA
HETATM   25  C10 MIQ B 502      11.185  23.524   2.482  1.00147.44     0.187 C 
HETATM   26  C11 MIQ B 502      10.205  22.888   3.462  1.00144.08     0.149 C 
ENDBRANCH   5  21
TORSDOF 2
ENDMDL
MODEL 8
REMARK VINA RESULT:      -6.2      2.708      8.301
REMARK  2 active torsions:
REMARK  status: ('A' for Active; 'I' for Inactive)
REMARK    1  A    between atoms: C5_5  and  N6_21 
REMARK    2  A    between atoms: C18_14  and  N17_19 
ROOT
HETATM    1  O1  MIQ B 502       2.683  15.354  -9.171  1.00142.91    -0.171 OA
HETATM    2  C2  MIQ B 502       4.043  15.670  -9.159  1.00141.17     0.195 A 
HETATM    3  C3  MIQ B 502       5.227  14.653  -9.236  1.00141.71     0.035 A 
HETATM    4  C4  MIQ B 502       5.296  13.177  -9.339  1.00142.86     0.046 A 
HETATM    5  C5  MIQ B 502       6.552  12.520  -9.393  1.00139.53     0.031 A 
HETATM    6  C12 MIQ B 502       7.779  13.303  -9.346  1.00139.38     0.030 A 
HETATM    7  C13 MIQ B 502       7.712  14.719  -9.248  1.00141.18     0.019 A 
HETATM    8  C14 MIQ B 502       6.391  15.403  -9.195  1.00138.77     0.033 A 
HETATM    9  C15 MIQ B 502       5.928  16.892  -9.093  1.00142.10     0.195 A 
HETATM   10  N17 MIQ B 502       4.605  16.864  -9.087  1.00139.42    -0.288 N 
HETATM   11  O16 MIQ B 502       6.748  18.020  -9.019  1.00148.93    -0.171 OA
ENDROOT
BRANCH  10  12
HETATM   12  C18 MIQ B 502       3.822  18.081  -8.986  1.00139.82     0.187 C 
HETATM   13  C19 MIQ B 502       4.287  19.031 -10.097  1.00140.06     0.247 C 
HETATM   14  O25 MIQ B 502       4.343  18.634 -11.207  1.00143.95    -0.271 OA
HETATM   15  N20 MIQ B 502       4.654  20.405  -9.823  1.00140.02    -0.296 N 
HETATM   16  H13 MIQ B 502       4.962  21.013 -10.557  1.00142.77     0.171 HD
HETATM   17  C21 MIQ B 502       4.588  20.862  -8.459  1.00142.22     0.224 C 
HETATM   18  C22 MIQ B 502       4.910  19.844  -7.383  1.00139.52     0.106 C 
HETATM   19  O24 MIQ B 502       4.291  21.975  -8.195  1.00146.13    -0.273 OA
HETATM   20  C23 MIQ B 502       3.954  18.683  -7.587  1.00139.15     0.045 C 
ENDBRANCH  10  12
BRANCH   5  21
HETATM   21  N6  MIQ B 502       6.606  11.072  -9.479  1.00140.95    -0.377 N 
HETATM   22  C7  MIQ B 502       7.802  10.393  -9.013  1.00142.12     0.149 C 
HETATM   23  C8  MIQ B 502       8.007   9.056  -9.715  1.00144.10     0.187 C 
HETATM   24  O9  MIQ B 502       6.850   8.275  -9.745  1.00148.65    -0.388 OA
HETATM   25  C10 MIQ B 502       5.619   8.818  -9.366  1.00147.44     0.187 C 
HETATM   26  C11 MIQ B 502       5.377  10.306  -9.595  1.00144.08     0.149 C 
ENDBRANCH   5  21
TORSDOF 2
ENDMDL
MODEL 9
REMARK VINA RESULT:      -6.1      2.712      3.638
REMARK  2 active torsions:
REMARK  status: ('A' for Active; 'I' for Inactive)
REMARK    1  A    between atoms: C5_5  and  N6_21 
REMARK    2  A    between atoms: C18_14  and  N17_19 
ROOT
HETATM    1  O1  MIQ B 502       5.162  11.946  -8.358  1.00142.91    -0.171 OA
HETATM    2  C2  MIQ B 502       6.053  12.458  -9.304  1.00141.17     0.195 A 
HETATM    3  C3  MIQ B 502       6.494  13.950  -9.443  1.00141.71     0.035 A 
HETATM    4  C4  MIQ B 502       6.156  15.186  -8.698  1.00142.86     0.046 A 
HETATM    5  C5  MIQ B 502       6.734  16.426  -9.068  1.00139.53     0.031 A 
HETATM    6  C12 MIQ B 502       7.665  16.485 -10.186  1.00139.38     0.030 A 
HETATM    7  C13 MIQ B 502       7.989  15.300 -10.900  1.00141.18     0.019 A 
HETATM    8  C14 MIQ B 502       7.382  14.000 -10.505  1.00138.77     0.033 A 
HETATM    9  C15 MIQ B 502       7.493  12.531 -11.029  1.00142.10     0.195 A 
HETATM   10  N17 MIQ B 502       6.700  11.807 -10.256  1.00139.42    -0.288 N 
HETATM   11  O16 MIQ B 502       8.270  12.081 -12.098  1.00148.93    -0.171 OA
ENDROOT
BRANCH  10  12
HETATM   12  C18 MIQ B 502       6.538  10.380 -10.462  1.00139.82     0.187 C 
HETATM   13  C19 MIQ B 502       5.042  10.101 -10.651  1.00140.06     0.247 C 
HETATM   14  O25 MIQ B 502       4.433  10.732 -11.440  1.00143.95    -0.271 OA
HETATM   15  N20 MIQ B 502       4.354   9.079  -9.889  1.00140.02    -0.296 N 
HETATM   16  H13 MIQ B 502       3.375   8.911 -10.016  1.00142.77     0.171 HD
HETATM   17  C21 MIQ B 502       5.116   8.329  -8.924  1.00142.22     0.224 C 
HETATM   18  C22 MIQ B 502       6.235   9.069  -8.216  1.00139.52     0.106 C 
HETATM   19  O24 MIQ B 502       4.882   7.193  -8.700  1.00146.13    -0.273 OA
HETATM   20  C23 MIQ B 502       7.153   9.602  -9.300  1.00139.15     0.045 C 
ENDBRANCH  10  12
BRANCH   5  21
HETATM   21  N6  MIQ B 502       6.383  17.631  -8.339  1.00140.95    -0.377 N 
HETATM   22  C7  MIQ B 502       7.336  18.728  -8.309  1.00142.12     0.149 C 
HETATM   23  C8  MIQ B 502       7.169  19.592  -7.066  1.00144.10     0.187 C 
HETATM   24  O9  MIQ B 502       5.840  19.949  -6.827  1.00148.65    -0.388 OA
HETATM   25  C10 MIQ B 502       4.805  19.350  -7.549  1.00147.44     0.187 C 
HETATM   26  C11 MIQ B 502       4.991  17.918  -8.038  1.00144.08     0.149 C 
ENDBRANCH   5  21
TORSDOF 2
ENDMDL
