MODEL 1
REMARK VINA RESULT:      -8.1      0.000      0.000
REMARK  2 active torsions:
REMARK  status: ('A' for Active; 'I' for Inactive)
REMARK    1  A    between atoms: C5_5  and  N6_21 
REMARK    2  A    between atoms: C18_14  and  N17_19 
ROOT
HETATM    1  O1  MIQ B 502       7.643 -15.376 -11.768  1.00142.91    -0.171 OA
HETATM    2  C2  MIQ B 502       7.691 -14.329 -10.845  1.00141.17     0.195 A 
HETATM    3  C3  MIQ B 502       7.958 -14.463  -9.312  1.00141.71     0.035 A 
HETATM    4  C4  MIQ B 502       8.224 -15.617  -8.421  1.00142.86     0.046 A 
HETATM    5  C5  MIQ B 502       8.434 -15.417  -7.033  1.00139.53     0.031 A 
HETATM    6  C12 MIQ B 502       8.390 -14.070  -6.482  1.00139.38     0.030 A 
HETATM    7  C13 MIQ B 502       8.136 -12.964  -7.336  1.00141.18     0.019 A 
HETATM    8  C14 MIQ B 502       7.918 -13.179  -8.793  1.00138.77     0.033 A 
HETATM    9  C15 MIQ B 502       7.625 -12.243 -10.010  1.00142.10     0.195 A 
HETATM   10  N17 MIQ B 502       7.531 -13.036 -11.065  1.00139.42    -0.288 N 
HETATM   11  O16 MIQ B 502       7.489 -10.854  -9.983  1.00148.93    -0.171 OA
ENDROOT
BRANCH  10  12
HETATM   12  C18 MIQ B 502       7.246 -12.507 -12.386  1.00139.82     0.187 C 
HETATM   13  C19 MIQ B 502       8.300 -11.440 -12.701  1.00140.06     0.247 C 
HETATM   14  O25 MIQ B 502       9.443 -11.702 -12.569  1.00143.95    -0.271 OA
HETATM   15  N20 MIQ B 502       7.934 -10.116 -13.162  1.00140.02    -0.296 N 
HETATM   16  H13 MIQ B 502       8.632  -9.426 -13.358  1.00142.77     0.171 HD
HETATM   17  C21 MIQ B 502       6.533  -9.816 -13.305  1.00142.22     0.224 C 
HETATM   18  C22 MIQ B 502       5.590 -10.480 -12.320  1.00139.52     0.106 C 
HETATM   19  O24 MIQ B 502       6.139  -9.092 -14.152  1.00146.13    -0.273 OA
HETATM   20  C23 MIQ B 502       5.815 -11.975 -12.448  1.00139.15     0.045 C 
ENDBRANCH  10  12
BRANCH   5  21
HETATM   21  N6  MIQ B 502       8.679 -16.558  -6.169  1.00140.95    -0.377 N 
HETATM   22  C7  MIQ B 502       9.848 -16.539  -5.308  1.00142.12     0.149 C 
HETATM   23  C8  MIQ B 502      10.335 -17.944  -4.978  1.00144.10     0.187 C 
HETATM   24  O9  MIQ B 502       9.306 -18.794  -4.568  1.00148.65    -0.388 OA
HETATM   25  C10 MIQ B 502       7.971 -18.401  -4.697  1.00147.44     0.187 C 
HETATM   26  C11 MIQ B 502       7.593 -17.464  -5.839  1.00144.08     0.149 C 
ENDBRANCH   5  21
TORSDOF 2
ENDMDL
MODEL 2
REMARK VINA RESULT:      -8.0      5.570      9.138
REMARK  2 active torsions:
REMARK  status: ('A' for Active; 'I' for Inactive)
REMARK    1  A    between atoms: C5_5  and  N6_21 
REMARK    2  A    between atoms: C18_14  and  N17_19 
ROOT
HETATM    1  O1  MIQ B 502       3.822  -9.053 -17.725  1.00142.91    -0.171 OA
HETATM    2  C2  MIQ B 502       3.144  -8.938 -16.509  1.00141.17     0.195 A 
HETATM    3  C3  MIQ B 502       3.525  -9.646 -15.170  1.00141.71     0.035 A 
HETATM    4  C4  MIQ B 502       4.615 -10.572 -14.781  1.00142.86     0.046 A 
HETATM    5  C5  MIQ B 502       4.702 -11.059 -13.452  1.00139.53     0.031 A 
HETATM    6  C12 MIQ B 502       3.716 -10.645 -12.465  1.00139.38     0.030 A 
HETATM    7  C13 MIQ B 502       2.671  -9.756 -12.837  1.00141.18     0.019 A 
HETATM    8  C14 MIQ B 502       2.586  -9.247 -14.233  1.00138.77     0.033 A 
HETATM    9  C15 MIQ B 502       1.617  -8.285 -14.995  1.00142.10     0.195 A 
HETATM   10  N17 MIQ B 502       2.067  -8.221 -16.237  1.00139.42    -0.288 N 
HETATM   11  O16 MIQ B 502       0.503  -7.631 -14.467  1.00148.93    -0.171 OA
ENDROOT
BRANCH  10  12
HETATM   12  C18 MIQ B 502       1.397  -7.422 -17.246  1.00139.82     0.187 C 
HETATM   13  C19 MIQ B 502       1.227  -6.005 -16.683  1.00140.06     0.247 C 
HETATM   14  O25 MIQ B 502       2.164  -5.449 -16.231  1.00143.95    -0.271 OA
HETATM   15  N20 MIQ B 502      -0.053  -5.327 -16.696  1.00140.02    -0.296 N 
HETATM   16  H13 MIQ B 502      -0.152  -4.405 -16.320  1.00142.77     0.171 HD
HETATM   17  C21 MIQ B 502      -1.184  -6.031 -17.243  1.00142.22     0.224 C 
HETATM   18  C22 MIQ B 502      -1.211  -7.534 -17.045  1.00139.52     0.106 C 
HETATM   19  O24 MIQ B 502      -2.044  -5.464 -17.822  1.00146.13    -0.273 OA
HETATM   20  C23 MIQ B 502       0.074  -8.072 -17.647  1.00139.15     0.045 C 
ENDBRANCH  10  12
BRANCH   5  21
HETATM   21  N6  MIQ B 502       5.766 -11.977 -13.089  1.00140.95    -0.377 N 
HETATM   22  C7  MIQ B 502       6.804 -12.258 -14.066  1.00142.12     0.149 C 
HETATM   23  C8  MIQ B 502       7.434 -13.628 -13.848  1.00144.10     0.187 C 
HETATM   24  O9  MIQ B 502       7.788 -13.858 -12.517  1.00148.65    -0.388 OA
HETATM   25  C10 MIQ B 502       7.367 -12.984 -11.512  1.00147.44     0.187 C 
HETATM   26  C11 MIQ B 502       6.042 -12.251 -11.690  1.00144.08     0.149 C 
ENDBRANCH   5  21
TORSDOF 2
ENDMDL
MODEL 3
REMARK VINA RESULT:      -8.0      1.986      8.281
REMARK  2 active torsions:
REMARK  status: ('A' for Active; 'I' for Inactive)
REMARK    1  A    between atoms: C5_5  and  N6_21 
REMARK    2  A    between atoms: C18_14  and  N17_19 
ROOT
HETATM    1  O1  MIQ B 502       7.880 -16.466 -10.291  1.00142.91    -0.171 OA
HETATM    2  C2  MIQ B 502       8.057 -15.375  -9.438  1.00141.17     0.195 A 
HETATM    3  C3  MIQ B 502       7.693 -13.889  -9.754  1.00141.71     0.035 A 
HETATM    4  C4  MIQ B 502       7.102 -13.213 -10.933  1.00142.86     0.046 A 
HETATM    5  C5  MIQ B 502       6.885 -11.812 -10.922  1.00139.53     0.031 A 
HETATM    6  C12 MIQ B 502       7.245 -11.034  -9.745  1.00139.38     0.030 A 
HETATM    7  C13 MIQ B 502       7.811 -11.682  -8.614  1.00141.18     0.019 A 
HETATM    8  C14 MIQ B 502       8.034 -13.154  -8.630  1.00138.77     0.033 A 
HETATM    9  C15 MIQ B 502       8.612 -14.189  -7.611  1.00142.10     0.195 A 
HETATM   10  N17 MIQ B 502       8.551 -15.366  -8.211  1.00139.42    -0.288 N 
HETATM   11  O16 MIQ B 502       9.096 -13.920  -6.329  1.00148.93    -0.171 OA
ENDROOT
BRANCH  10  12
HETATM   12  C18 MIQ B 502       9.022 -16.574  -7.560  1.00139.82     0.187 C 
HETATM   13  C19 MIQ B 502       8.301 -16.691  -6.212  1.00140.06     0.247 C 
HETATM   14  O25 MIQ B 502       7.125 -16.603  -6.179  1.00143.95    -0.271 OA
HETATM   15  N20 MIQ B 502       9.023 -16.912  -4.976  1.00140.02    -0.296 N 
HETATM   16  H13 MIQ B 502       8.541 -16.980  -4.102  1.00142.77     0.171 HD
HETATM   17  C21 MIQ B 502      10.459 -17.005  -5.041  1.00142.22     0.224 C 
HETATM   18  C22 MIQ B 502      11.150 -16.157  -6.091  1.00139.52     0.106 C 
HETATM   19  O24 MIQ B 502      11.066 -17.713  -4.315  1.00146.13    -0.273 OA
HETATM   20  C23 MIQ B 502      10.544 -16.547  -7.427  1.00139.15     0.045 C 
ENDBRANCH  10  12
BRANCH   5  21
HETATM   21  N6  MIQ B 502       6.318 -11.161 -12.089  1.00140.95    -0.377 N 
HETATM   22  C7  MIQ B 502       4.875 -11.019 -12.173  1.00142.12     0.149 C 
HETATM   23  C8  MIQ B 502       4.393 -10.943 -13.616  1.00144.10     0.187 C 
HETATM   24  O9  MIQ B 502       5.128 -10.040 -14.387  1.00148.65    -0.388 OA
HETATM   25  C10 MIQ B 502       6.308  -9.481 -13.890  1.00147.44     0.187 C 
HETATM   26  C11 MIQ B 502       7.146 -10.297 -12.911  1.00144.08     0.149 C 
ENDBRANCH   5  21
TORSDOF 2
ENDMDL
MODEL 4
REMARK VINA RESULT:      -7.6      5.274      9.001
REMARK  2 active torsions:
REMARK  status: ('A' for Active; 'I' for Inactive)
REMARK    1  A    between atoms: C5_5  and  N6_21 
REMARK    2  A    between atoms: C18_14  and  N17_19 
ROOT
HETATM    1  O1  MIQ B 502       3.765  -8.644 -17.415  1.00142.91    -0.171 OA
HETATM    2  C2  MIQ B 502       3.083  -8.712 -16.199  1.00141.17     0.195 A 
HETATM    3  C3  MIQ B 502       3.477  -9.589 -14.968  1.00141.71     0.035 A 
HETATM    4  C4  MIQ B 502       4.586 -10.537 -14.705  1.00142.86     0.046 A 
HETATM    5  C5  MIQ B 502       4.682 -11.199 -13.456  1.00139.53     0.031 A 
HETATM    6  C12 MIQ B 502       3.686 -10.946 -12.425  1.00139.38     0.030 A 
HETATM    7  C13 MIQ B 502       2.623 -10.037 -12.676  1.00141.18     0.019 A 
HETATM    8  C14 MIQ B 502       2.528  -9.342 -13.989  1.00138.77     0.033 A 
HETATM    9  C15 MIQ B 502       1.540  -8.305 -14.616  1.00142.10     0.195 A 
HETATM   10  N17 MIQ B 502       1.990  -8.062 -15.835  1.00139.42    -0.288 N 
HETATM   11  O16 MIQ B 502       0.411  -7.754 -14.007  1.00148.93    -0.171 OA
ENDROOT
BRANCH  10  12
HETATM   12  C18 MIQ B 502       1.304  -7.146 -16.727  1.00139.82     0.187 C 
HETATM   13  C19 MIQ B 502       1.013  -7.895 -18.034  1.00140.06     0.247 C 
HETATM   14  O25 MIQ B 502       0.481  -8.947 -17.988  1.00143.95    -0.271 OA
HETATM   15  N20 MIQ B 502       1.369  -7.344 -19.325  1.00140.02    -0.296 N 
HETATM   16  H13 MIQ B 502       1.180  -7.846 -20.170  1.00142.77     0.171 HD
HETATM   17  C21 MIQ B 502       2.027  -6.064 -19.354  1.00142.22     0.224 C 
HETATM   18  C22 MIQ B 502       2.960  -5.751 -18.200  1.00139.52     0.106 C 
HETATM   19  O24 MIQ B 502       1.843  -5.294 -20.233  1.00146.13    -0.273 OA
HETATM   20  C23 MIQ B 502       2.136  -5.881 -16.932  1.00139.15     0.045 C 
ENDBRANCH  10  12
BRANCH   5  21
HETATM   21  N6  MIQ B 502       5.765 -12.136 -13.218  1.00140.95    -0.377 N 
HETATM   22  C7  MIQ B 502       6.670 -12.445 -14.312  1.00142.12     0.149 C 
HETATM   23  C8  MIQ B 502       7.295 -13.825 -14.161  1.00144.10     0.187 C 
HETATM   24  O9  MIQ B 502       7.807 -14.053 -12.881  1.00148.65    -0.388 OA
HETATM   25  C10 MIQ B 502       7.530 -13.164 -11.840  1.00147.44     0.187 C 
HETATM   26  C11 MIQ B 502       6.206 -12.406 -11.860  1.00144.08     0.149 C 
ENDBRANCH   5  21
TORSDOF 2
ENDMDL
MODEL 5
REMARK VINA RESULT:      -7.4      1.576      2.121
REMARK  2 active torsions:
REMARK  status: ('A' for Active; 'I' for Inactive)
REMARK    1  A    between atoms: C5_5  and  N6_21 
REMARK    2  A    between atoms: C18_14  and  N17_19 
ROOT
HETATM    1  O1  MIQ B 502       7.187 -13.800 -12.026  1.00142.91    -0.171 OA
HETATM    2  C2  MIQ B 502       7.409 -12.996 -10.906  1.00141.17     0.195 A 
HETATM    3  C3  MIQ B 502       7.786 -13.493  -9.474  1.00141.71     0.035 A 
HETATM    4  C4  MIQ B 502       8.014 -14.836  -8.889  1.00142.86     0.046 A 
HETATM    5  C5  MIQ B 502       8.355 -14.972  -7.519  1.00139.53     0.031 A 
HETATM    6  C12 MIQ B 502       8.482 -13.786  -6.685  1.00139.38     0.030 A 
HETATM    7  C13 MIQ B 502       8.265 -12.498  -7.246  1.00141.18     0.019 A 
HETATM    8  C14 MIQ B 502       7.910 -12.361  -8.685  1.00138.77     0.033 A 
HETATM    9  C15 MIQ B 502       7.608 -11.155  -9.632  1.00142.10     0.195 A 
HETATM   10  N17 MIQ B 502       7.354 -11.678 -10.820  1.00139.42    -0.288 N 
HETATM   11  O16 MIQ B 502       7.606  -9.802  -9.288  1.00148.93    -0.171 OA
ENDROOT
BRANCH  10  12
HETATM   12  C18 MIQ B 502       7.012 -10.844 -11.958  1.00139.82     0.187 C 
HETATM   13  C19 MIQ B 502       5.717 -11.393 -12.568  1.00140.06     0.247 C 
HETATM   14  O25 MIQ B 502       4.787 -11.585 -11.868  1.00143.95    -0.271 OA
HETATM   15  N20 MIQ B 502       5.600 -11.677 -13.983  1.00140.02    -0.296 N 
HETATM   16  H13 MIQ B 502       4.751 -12.041 -14.368  1.00142.77     0.171 HD
HETATM   17  C21 MIQ B 502       6.752 -11.444 -14.816  1.00142.22     0.224 C 
HETATM   18  C22 MIQ B 502       8.109 -11.683 -14.182  1.00139.52     0.106 C 
HETATM   19  O24 MIQ B 502       6.643 -11.080 -15.934  1.00146.13    -0.273 OA
HETATM   20  C23 MIQ B 502       8.173 -10.799 -12.951  1.00139.15     0.045 C 
ENDBRANCH  10  12
BRANCH   5  21
HETATM   21  N6  MIQ B 502       8.561 -16.294  -6.956  1.00140.95    -0.377 N 
HETATM   22  C7  MIQ B 502       7.488 -16.893  -6.180  1.00142.12     0.149 C 
HETATM   23  C8  MIQ B 502       8.015 -17.894  -5.160  1.00144.10     0.187 C 
HETATM   24  O9  MIQ B 502       8.932 -18.795  -5.706  1.00148.65    -0.388 OA
HETATM   25  C10 MIQ B 502       9.442 -18.594  -6.991  1.00147.44     0.187 C 
HETATM   26  C11 MIQ B 502       9.587 -17.164  -7.503  1.00144.08     0.149 C 
ENDBRANCH   5  21
TORSDOF 2
ENDMDL
MODEL 6
REMARK VINA RESULT:      -7.4      1.644      2.904
REMARK  2 active torsions:
REMARK  status: ('A' for Active; 'I' for Inactive)
REMARK    1  A    between atoms: C5_5  and  N6_21 
REMARK    2  A    between atoms: C18_14  and  N17_19 
ROOT
HETATM    1  O1  MIQ B 502       7.201 -10.487  -9.365  1.00142.91    -0.171 OA
HETATM    2  C2  MIQ B 502       7.173 -11.595 -10.214  1.00141.17     0.195 A 
HETATM    3  C3  MIQ B 502       7.577 -13.057  -9.837  1.00141.71     0.035 A 
HETATM    4  C4  MIQ B 502       8.067 -13.688  -8.589  1.00142.86     0.046 A 
HETATM    5  C5  MIQ B 502       8.355 -15.076  -8.554  1.00139.53     0.031 A 
HETATM    6  C12 MIQ B 502       8.166 -15.884  -9.750  1.00139.38     0.030 A 
HETATM    7  C13 MIQ B 502       7.695 -15.279 -10.946  1.00141.18     0.019 A 
HETATM    8  C14 MIQ B 502       7.392 -13.822 -10.977  1.00138.77     0.033 A 
HETATM    9  C15 MIQ B 502       6.871 -12.830 -12.068  1.00142.10     0.195 A 
HETATM   10  N17 MIQ B 502       6.804 -11.646 -11.483  1.00139.42    -0.288 N 
HETATM   11  O16 MIQ B 502       6.546 -13.138 -13.390  1.00148.93    -0.171 OA
ENDROOT
BRANCH  10  12
HETATM   12  C18 MIQ B 502       6.370 -10.466 -12.207  1.00139.82     0.187 C 
HETATM   13  C19 MIQ B 502       4.988 -10.766 -12.803  1.00140.06     0.247 C 
HETATM   14  O25 MIQ B 502       4.139 -11.190 -12.103  1.00143.95    -0.271 OA
HETATM   15  N20 MIQ B 502       4.694 -10.537 -14.203  1.00140.02    -0.296 N 
HETATM   16  H13 MIQ B 502       3.790 -10.742 -14.580  1.00142.77     0.171 HD
HETATM   17  C21 MIQ B 502       5.750 -10.028 -15.039  1.00142.22     0.224 C 
HETATM   18  C22 MIQ B 502       7.160 -10.475 -14.704  1.00139.52     0.106 C 
HETATM   19  O24 MIQ B 502       5.527  -9.295 -15.939  1.00146.13    -0.273 OA
HETATM   20  C23 MIQ B 502       7.406 -10.077 -13.260  1.00139.15     0.045 C 
ENDBRANCH  10  12
BRANCH   5  21
HETATM   21  N6  MIQ B 502       8.848 -15.679  -7.329  1.00140.95    -0.377 N 
HETATM   22  C7  MIQ B 502       9.376 -14.811  -6.291  1.00142.12     0.149 C 
HETATM   23  C8  MIQ B 502      10.398 -15.525  -5.416  1.00144.10     0.187 C 
HETATM   24  O9  MIQ B 502       9.960 -16.777  -4.981  1.00148.65    -0.388 OA
HETATM   25  C10 MIQ B 502       8.804 -17.349  -5.519  1.00147.44     0.187 C 
HETATM   26  C11 MIQ B 502       8.431 -17.021  -6.961  1.00144.08     0.149 C 
ENDBRANCH   5  21
TORSDOF 2
ENDMDL
MODEL 7
REMARK VINA RESULT:      -7.2      1.861      2.465
REMARK  2 active torsions:
REMARK  status: ('A' for Active; 'I' for Inactive)
REMARK    1  A    between atoms: C5_5  and  N6_21 
REMARK    2  A    between atoms: C18_14  and  N17_19 
ROOT
HETATM    1  O1  MIQ B 502       7.588 -14.422 -13.295  1.00142.91    -0.171 OA
HETATM    2  C2  MIQ B 502       7.377 -13.271 -12.533  1.00141.17     0.195 A 
HETATM    3  C3  MIQ B 502       7.609 -13.129 -10.995  1.00141.71     0.035 A 
HETATM    4  C4  MIQ B 502       8.081 -14.063  -9.944  1.00142.86     0.046 A 
HETATM    5  C5  MIQ B 502       8.191 -13.631  -8.599  1.00139.53     0.031 A 
HETATM    6  C12 MIQ B 502       7.840 -12.262  -8.248  1.00139.38     0.030 A 
HETATM    7  C13 MIQ B 502       7.388 -11.367  -9.254  1.00141.18     0.019 A 
HETATM    8  C14 MIQ B 502       7.276 -11.825 -10.666  1.00138.77     0.033 A 
HETATM    9  C15 MIQ B 502       6.837 -11.154 -12.008  1.00142.10     0.195 A 
HETATM   10  N17 MIQ B 502       6.954 -12.087 -12.939  1.00139.42    -0.288 N 
HETATM   11  O16 MIQ B 502       6.407  -9.837 -12.182  1.00148.93    -0.171 OA
ENDROOT
BRANCH  10  12
HETATM   12  C18 MIQ B 502       6.612 -11.822 -14.324  1.00139.82     0.187 C 
HETATM   13  C19 MIQ B 502       7.337 -10.538 -14.747  1.00140.06     0.247 C 
HETATM   14  O25 MIQ B 502       8.496 -10.441 -14.553  1.00143.95    -0.271 OA
HETATM   15  N20 MIQ B 502       6.638  -9.441 -15.385  1.00140.02    -0.296 N 
HETATM   16  H13 MIQ B 502       7.121  -8.606 -15.650  1.00142.77     0.171 HD
HETATM   17  C21 MIQ B 502       5.220  -9.580 -15.602  1.00142.22     0.224 C 
HETATM   18  C22 MIQ B 502       4.446 -10.369 -14.563  1.00139.52     0.106 C 
HETATM   19  O24 MIQ B 502       4.691  -9.105 -16.545  1.00146.13    -0.273 OA
HETATM   20  C23 MIQ B 502       5.096 -11.739 -14.491  1.00139.15     0.045 C 
ENDBRANCH  10  12
BRANCH   5  21
HETATM   21  N6  MIQ B 502       8.640 -14.560  -7.578  1.00140.95    -0.377 N 
HETATM   22  C7  MIQ B 502       9.114 -14.026  -6.313  1.00142.12     0.149 C 
HETATM   23  C8  MIQ B 502      10.107 -14.962  -5.636  1.00144.10     0.187 C 
HETATM   24  O9  MIQ B 502       9.665 -16.286  -5.597  1.00148.65    -0.388 OA
HETATM   25  C10 MIQ B 502       8.540 -16.679  -6.326  1.00147.44     0.187 C 
HETATM   26  C11 MIQ B 502       8.223 -15.950  -7.628  1.00144.08     0.149 C 
ENDBRANCH   5  21
TORSDOF 2
ENDMDL
MODEL 8
REMARK VINA RESULT:      -7.1      1.998      8.401
REMARK  2 active torsions:
REMARK  status: ('A' for Active; 'I' for Inactive)
REMARK    1  A    between atoms: C5_5  and  N6_21 
REMARK    2  A    between atoms: C18_14  and  N17_19 
ROOT
HETATM    1  O1  MIQ B 502       7.413 -10.987  -7.958  1.00142.91    -0.171 OA
HETATM    2  C2  MIQ B 502       7.684 -12.069  -8.798  1.00141.17     0.195 A 
HETATM    3  C3  MIQ B 502       7.299 -12.184 -10.308  1.00141.71     0.035 A 
HETATM    4  C4  MIQ B 502       6.599 -11.281 -11.252  1.00142.86     0.046 A 
HETATM    5  C5  MIQ B 502       6.394 -11.673 -12.600  1.00139.53     0.031 A 
HETATM    6  C12 MIQ B 502       6.876 -12.969 -13.057  1.00139.38     0.030 A 
HETATM    7  C13 MIQ B 502       7.548 -13.834 -12.152  1.00141.18     0.019 A 
HETATM    8  C14 MIQ B 502       7.762 -13.416 -10.739  1.00138.77     0.033 A 
HETATM    9  C15 MIQ B 502       8.438 -14.070  -9.490  1.00142.10     0.195 A 
HETATM   10  N17 MIQ B 502       8.310 -13.196  -8.506  1.00139.42    -0.288 N 
HETATM   11  O16 MIQ B 502       9.049 -15.324  -9.431  1.00148.93    -0.171 OA
ENDROOT
BRANCH  10  12
HETATM   12  C18 MIQ B 502       8.814 -13.475  -7.174  1.00139.82     0.187 C 
HETATM   13  C19 MIQ B 502      10.288 -13.880  -7.307  1.00140.06     0.247 C 
HETATM   14  O25 MIQ B 502      11.022 -13.189  -7.920  1.00143.95    -0.271 OA
HETATM   15  N20 MIQ B 502      10.807 -15.086  -6.696  1.00140.02    -0.296 N 
HETATM   16  H13 MIQ B 502      11.769 -15.343  -6.796  1.00142.77     0.171 HD
HETATM   17  C21 MIQ B 502       9.889 -15.919  -5.962  1.00142.22     0.224 C 
HETATM   18  C22 MIQ B 502       8.462 -15.973  -6.472  1.00139.52     0.106 C 
HETATM   19  O24 MIQ B 502      10.233 -16.525  -5.008  1.00146.13    -0.273 OA
HETATM   20  C23 MIQ B 502       7.957 -14.542  -6.494  1.00139.15     0.045 C 
ENDBRANCH  10  12
BRANCH   5  21
HETATM   21  N6  MIQ B 502       5.694 -10.785 -13.510  1.00140.95    -0.377 N 
HETATM   22  C7  MIQ B 502       6.476  -9.914 -14.370  1.00142.12     0.149 C 
HETATM   23  C8  MIQ B 502       5.707  -8.658 -14.758  1.00144.10     0.187 C 
HETATM   24  O9  MIQ B 502       4.411  -8.929 -15.202  1.00148.65    -0.388 OA
HETATM   25  C10 MIQ B 502       3.866 -10.207 -15.057  1.00147.44     0.187 C 
HETATM   26  C11 MIQ B 502       4.316 -11.062 -13.877  1.00144.08     0.149 C 
ENDBRANCH   5  21
TORSDOF 2
ENDMDL
MODEL 9
REMARK VINA RESULT:      -7.0      6.249     10.158
REMARK  2 active torsions:
REMARK  status: ('A' for Active; 'I' for Inactive)
REMARK    1  A    between atoms: C5_5  and  N6_21 
REMARK    2  A    between atoms: C18_14  and  N17_19 
ROOT
HETATM    1  O1  MIQ B 502       0.541  -8.067 -14.018  1.00142.91    -0.171 OA
HETATM    2  C2  MIQ B 502       1.403  -8.163 -15.113  1.00141.17     0.195 A 
HETATM    3  C3  MIQ B 502       2.798  -8.866 -15.130  1.00141.71     0.035 A 
HETATM    4  C4  MIQ B 502       3.586  -9.591 -14.105  1.00142.86     0.046 A 
HETATM    5  C5  MIQ B 502       4.854 -10.136 -14.429  1.00139.53     0.031 A 
HETATM    6  C12 MIQ B 502       5.384  -9.982 -15.776  1.00139.38     0.030 A 
HETATM    7  C13 MIQ B 502       4.628  -9.288 -16.759  1.00141.18     0.019 A 
HETATM    8  C14 MIQ B 502       3.296  -8.720 -16.414  1.00138.77     0.033 A 
HETATM    9  C15 MIQ B 502       2.205  -7.922 -17.199  1.00142.10     0.195 A 
HETATM   10  N17 MIQ B 502       1.227  -7.696 -16.337  1.00139.42    -0.288 N 
HETATM   11  O16 MIQ B 502       2.258  -7.527 -18.537  1.00148.93    -0.171 OA
ENDROOT
BRANCH  10  12
HETATM   12  C18 MIQ B 502       0.038  -6.956 -16.717  1.00139.82     0.187 C 
HETATM   13  C19 MIQ B 502      -0.528  -7.602 -17.988  1.00140.06     0.247 C 
HETATM   14  O25 MIQ B 502      -0.709  -8.767 -18.010  1.00143.95    -0.271 OA
HETATM   15  N20 MIQ B 502      -0.854  -6.819 -19.162  1.00140.02    -0.296 N 
HETATM   16  H13 MIQ B 502      -1.217  -7.253 -19.988  1.00142.77     0.171 HD
HETATM   17  C21 MIQ B 502      -0.614  -5.400 -19.115  1.00142.22     0.224 C 
HETATM   18  C22 MIQ B 502       0.575  -4.936 -18.296  1.00139.52     0.106 C 
HETATM   19  O24 MIQ B 502      -1.315  -4.635 -19.682  1.00146.13    -0.273 OA
HETATM   20  C23 MIQ B 502       0.367  -5.474 -16.891  1.00139.15     0.045 C 
ENDBRANCH  10  12
BRANCH   5  21
HETATM   21  N6  MIQ B 502       5.622 -10.831 -13.411  1.00140.95    -0.377 N 
HETATM   22  C7  MIQ B 502       5.307 -10.584 -12.015  1.00142.12     0.149 C 
HETATM   23  C8  MIQ B 502       6.510 -10.819 -11.111  1.00144.10     0.187 C 
HETATM   24  O9  MIQ B 502       7.158 -12.028 -11.372  1.00148.65    -0.388 OA
HETATM   25  C10 MIQ B 502       6.831 -12.776 -12.505  1.00147.44     0.187 C 
HETATM   26  C11 MIQ B 502       6.351 -12.040 -13.752  1.00144.08     0.149 C 
ENDBRANCH   5  21
TORSDOF 2
ENDMDL
