MODEL 1
REMARK VINA RESULT:      -8.0      0.000      0.000
REMARK  2 active torsions:
REMARK  status: ('A' for Active; 'I' for Inactive)
REMARK    1  A    between atoms: C5_5  and  N6_21 
REMARK    2  A    between atoms: C18_14  and  N17_19 
ROOT
HETATM    1  O1  MIQ B 502       7.498   1.042 -17.716  1.00142.91    -0.171 OA
HETATM    2  C2  MIQ B 502       6.782   0.370 -18.708  1.00141.17     0.195 A 
HETATM    3  C3  MIQ B 502       7.338  -0.743 -19.653  1.00141.71     0.035 A 
HETATM    4  C4  MIQ B 502       8.663  -1.390 -19.796  1.00142.86     0.046 A 
HETATM    5  C5  MIQ B 502       8.867  -2.399 -20.772  1.00139.53     0.031 A 
HETATM    6  C12 MIQ B 502       7.767  -2.800 -21.636  1.00139.38     0.030 A 
HETATM    7  C13 MIQ B 502       6.496  -2.181 -21.499  1.00141.18     0.019 A 
HETATM    8  C14 MIQ B 502       6.287  -1.124 -20.472  1.00138.77     0.033 A 
HETATM    9  C15 MIQ B 502       5.072  -0.244 -20.032  1.00142.10     0.195 A 
HETATM   10  N17 MIQ B 502       5.514   0.523 -19.049  1.00139.42    -0.288 N 
HETATM   11  O16 MIQ B 502       3.785  -0.265 -20.573  1.00148.93    -0.171 OA
ENDROOT
BRANCH  10  12
HETATM   12  C18 MIQ B 502       4.651   1.492 -18.398  1.00139.82     0.187 C 
HETATM   13  C19 MIQ B 502       3.412   0.747 -17.888  1.00140.06     0.247 C 
HETATM   14  O25 MIQ B 502       3.552  -0.225 -17.235  1.00143.95    -0.271 OA
HETATM   15  N20 MIQ B 502       2.070   1.207 -18.181  1.00140.02    -0.296 N 
HETATM   16  H13 MIQ B 502       1.269   0.708 -17.847  1.00142.77     0.171 HD
HETATM   17  C21 MIQ B 502       1.924   2.391 -18.988  1.00142.22     0.224 C 
HETATM   18  C22 MIQ B 502       2.971   2.616 -20.062  1.00139.52     0.106 C 
HETATM   19  O24 MIQ B 502       1.035   3.150 -18.817  1.00146.13    -0.273 OA
HETATM   20  C23 MIQ B 502       4.315   2.632 -19.358  1.00139.15     0.045 C 
ENDBRANCH  10  12
BRANCH   5  21
HETATM   21  N6  MIQ B 502      10.175  -3.013 -20.910  1.00140.95    -0.377 N 
HETATM   22  C7  MIQ B 502      10.749  -3.133 -22.240  1.00142.12     0.149 C 
HETATM   23  C8  MIQ B 502      11.726  -4.298 -22.335  1.00144.10     0.187 C 
HETATM   24  O9  MIQ B 502      12.644  -4.324 -21.284  1.00148.65    -0.388 OA
HETATM   25  C10 MIQ B 502      12.479  -3.485 -20.178  1.00147.44     0.187 C 
HETATM   26  C11 MIQ B 502      11.064  -3.094 -19.765  1.00144.08     0.149 C 
ENDBRANCH   5  21
TORSDOF 2
ENDMDL
MODEL 2
REMARK VINA RESULT:      -7.9      2.096      2.686
REMARK  2 active torsions:
REMARK  status: ('A' for Active; 'I' for Inactive)
REMARK    1  A    between atoms: C5_5  and  N6_21 
REMARK    2  A    between atoms: C18_14  and  N17_19 
ROOT
HETATM    1  O1  MIQ B 502       5.124   1.449 -18.729  1.00142.91    -0.171 OA
HETATM    2  C2  MIQ B 502       5.235   0.469 -19.719  1.00141.17     0.195 A 
HETATM    3  C3  MIQ B 502       6.419  -0.534 -19.895  1.00141.71     0.035 A 
HETATM    4  C4  MIQ B 502       7.682  -0.760 -19.152  1.00142.86     0.046 A 
HETATM    5  C5  MIQ B 502       8.582  -1.776 -19.562  1.00139.53     0.031 A 
HETATM    6  C12 MIQ B 502       8.264  -2.600 -20.719  1.00139.38     0.030 A 
HETATM    7  C13 MIQ B 502       7.053  -2.384 -21.430  1.00141.18     0.019 A 
HETATM    8  C14 MIQ B 502       6.110  -1.318 -20.994  1.00138.77     0.033 A 
HETATM    9  C15 MIQ B 502       4.726  -0.800 -21.503  1.00142.10     0.195 A 
HETATM   10  N17 MIQ B 502       4.382   0.185 -20.688  1.00139.42    -0.288 N 
HETATM   11  O16 MIQ B 502       4.004  -1.280 -22.597  1.00148.93    -0.171 OA
ENDROOT
BRANCH  10  12
HETATM   12  C18 MIQ B 502       3.145   0.921 -20.869  1.00139.82     0.187 C 
HETATM   13  C19 MIQ B 502       3.490   2.415 -20.896  1.00140.06     0.247 C 
HETATM   14  O25 MIQ B 502       4.340   2.797 -21.620  1.00143.95    -0.271 OA
HETATM   15  N20 MIQ B 502       2.797   3.374 -20.061  1.00140.02    -0.296 N 
HETATM   16  H13 MIQ B 502       3.036   4.346 -20.083  1.00142.77     0.171 HD
HETATM   17  C21 MIQ B 502       1.770   2.882 -19.179  1.00142.22     0.224 C 
HETATM   18  C22 MIQ B 502       1.978   1.497 -18.597  1.00139.52     0.106 C 
HETATM   19  O24 MIQ B 502       0.812   3.526 -18.926  1.00146.13    -0.273 OA
HETATM   20  C23 MIQ B 502       2.144   0.555 -19.775  1.00139.15     0.045 C 
ENDBRANCH  10  12
BRANCH   5  21
HETATM   21  N6  MIQ B 502       9.822  -1.976 -18.834  1.00140.95    -0.377 N 
HETATM   22  C7  MIQ B 502      10.243  -3.336 -18.540  1.00142.12     0.149 C 
HETATM   23  C8  MIQ B 502      11.121  -3.403 -17.297  1.00144.10     0.187 C 
HETATM   24  O9  MIQ B 502      12.141  -2.450 -17.300  1.00148.65    -0.388 OA
HETATM   25  C10 MIQ B 502      12.152  -1.428 -18.252  1.00147.44     0.187 C 
HETATM   26  C11 MIQ B 502      10.819  -0.921 -18.794  1.00144.08     0.149 C 
ENDBRANCH   5  21
TORSDOF 2
ENDMDL
MODEL 3
REMARK VINA RESULT:      -7.4      2.489      7.991
REMARK  2 active torsions:
REMARK  status: ('A' for Active; 'I' for Inactive)
REMARK    1  A    between atoms: C5_5  and  N6_21 
REMARK    2  A    between atoms: C18_14  and  N17_19 
ROOT
HETATM    1  O1  MIQ B 502       9.843  -0.532 -17.755  1.00142.91    -0.171 OA
HETATM    2  C2  MIQ B 502       9.462  -1.336 -18.832  1.00141.17     0.195 A 
HETATM    3  C3  MIQ B 502       8.100  -1.273 -19.593  1.00141.71     0.035 A 
HETATM    4  C4  MIQ B 502       6.889  -0.431 -19.446  1.00142.86     0.046 A 
HETATM    5  C5  MIQ B 502       5.780  -0.613 -20.311  1.00139.53     0.031 A 
HETATM    6  C12 MIQ B 502       5.833  -1.633 -21.349  1.00139.38     0.030 A 
HETATM    7  C13 MIQ B 502       6.995  -2.440 -21.491  1.00141.18     0.019 A 
HETATM    8  C14 MIQ B 502       8.156  -2.242 -20.581  1.00138.77     0.033 A 
HETATM    9  C15 MIQ B 502       9.562  -2.910 -20.433  1.00142.10     0.195 A 
HETATM   10  N17 MIQ B 502      10.156  -2.292 -19.425  1.00139.42    -0.288 N 
HETATM   11  O16 MIQ B 502      10.080  -3.949 -21.209  1.00148.93    -0.171 OA
ENDROOT
BRANCH  10  12
HETATM   12  C18 MIQ B 502      11.488  -2.665 -18.987  1.00139.82     0.187 C 
HETATM   13  C19 MIQ B 502      11.428  -2.929 -17.478  1.00140.06     0.247 C 
HETATM   14  O25 MIQ B 502      10.604  -3.659 -17.053  1.00143.95    -0.271 OA
HETATM   15  N20 MIQ B 502      12.358  -2.310 -16.556  1.00140.02    -0.296 N 
HETATM   16  H13 MIQ B 502      12.304  -2.485 -15.572  1.00142.77     0.171 HD
HETATM   17  C21 MIQ B 502      13.348  -1.414 -17.097  1.00142.22     0.224 C 
HETATM   18  C22 MIQ B 502      12.936  -0.593 -18.304  1.00139.52     0.106 C 
HETATM   19  O24 MIQ B 502      14.428  -1.329 -16.625  1.00146.13    -0.273 OA
HETATM   20  C23 MIQ B 502      12.496  -1.581 -19.368  1.00139.15     0.045 C 
ENDBRANCH  10  12
BRANCH   5  21
HETATM   21  N6  MIQ B 502       4.595   0.208 -20.147  1.00140.95    -0.377 N 
HETATM   22  C7  MIQ B 502       4.012   0.330 -18.822  1.00142.12     0.149 C 
HETATM   23  C8  MIQ B 502       2.520   0.632 -18.882  1.00144.10     0.187 C 
HETATM   24  O9  MIQ B 502       2.211   1.667 -19.767  1.00148.65    -0.388 OA
HETATM   25  C10 MIQ B 502       3.180   2.163 -20.643  1.00147.44     0.187 C 
HETATM   26  C11 MIQ B 502       4.267   1.215 -21.141  1.00144.08     0.149 C 
ENDBRANCH   5  21
TORSDOF 2
ENDMDL
MODEL 4
REMARK VINA RESULT:      -7.3      2.535      3.220
REMARK  2 active torsions:
REMARK  status: ('A' for Active; 'I' for Inactive)
REMARK    1  A    between atoms: C5_5  and  N6_21 
REMARK    2  A    between atoms: C18_14  and  N17_19 
ROOT
HETATM    1  O1  MIQ B 502       5.010   1.458 -17.713  1.00142.91    -0.171 OA
HETATM    2  C2  MIQ B 502       5.602   1.001 -18.893  1.00141.17     0.195 A 
HETATM    3  C3  MIQ B 502       6.913   0.159 -19.000  1.00141.71     0.035 A 
HETATM    4  C4  MIQ B 502       7.861  -0.382 -17.998  1.00142.86     0.046 A 
HETATM    5  C5  MIQ B 502       8.991  -1.131 -18.413  1.00139.53     0.031 A 
HETATM    6  C12 MIQ B 502       9.220  -1.371 -19.831  1.00139.38     0.030 A 
HETATM    7  C13 MIQ B 502       8.309  -0.853 -20.791  1.00141.18     0.019 A 
HETATM    8  C14 MIQ B 502       7.123  -0.069 -20.350  1.00138.77     0.033 A 
HETATM    9  C15 MIQ B 502       5.937   0.635 -21.085  1.00142.10     0.195 A 
HETATM   10  N17 MIQ B 502       5.189   1.175 -20.136  1.00139.42    -0.288 N 
HETATM   11  O16 MIQ B 502       5.717   0.685 -22.463  1.00148.93    -0.171 OA
ENDROOT
BRANCH  10  12
HETATM   12  C18 MIQ B 502       3.993   1.932 -20.454  1.00139.82     0.187 C 
HETATM   13  C19 MIQ B 502       4.104   3.295 -19.760  1.00140.06     0.247 C 
HETATM   14  O25 MIQ B 502       5.083   3.937 -19.905  1.00143.95    -0.271 OA
HETATM   15  N20 MIQ B 502       3.037   3.821 -18.934  1.00140.02    -0.296 N 
HETATM   16  H13 MIQ B 502       3.124   4.710 -18.481  1.00142.77     0.171 HD
HETATM   17  C21 MIQ B 502       1.856   3.015 -18.764  1.00142.22     0.224 C 
HETATM   18  C22 MIQ B 502       2.054   1.511 -18.744  1.00139.52     0.106 C 
HETATM   19  O24 MIQ B 502       0.785   3.503 -18.650  1.00146.13    -0.273 OA
HETATM   20  C23 MIQ B 502       2.744   1.151 -20.047  1.00139.15     0.045 C 
ENDBRANCH  10  12
BRANCH   5  21
HETATM   21  N6  MIQ B 502       9.921  -1.643 -17.421  1.00140.95    -0.377 N 
HETATM   22  C7  MIQ B 502      10.627  -2.880 -17.705  1.00142.12     0.149 C 
HETATM   23  C8  MIQ B 502      11.023  -3.613 -16.429  1.00144.10     0.187 C 
HETATM   24  O9  MIQ B 502      11.633  -2.779 -15.490  1.00148.65    -0.388 OA
HETATM   25  C10 MIQ B 502      11.633  -1.394 -15.668  1.00147.44     0.187 C 
HETATM   26  C11 MIQ B 502      10.463  -0.754 -16.409  1.00144.08     0.149 C 
ENDBRANCH   5  21
TORSDOF 2
ENDMDL
MODEL 5
REMARK VINA RESULT:      -7.1      1.905      8.661
REMARK  2 active torsions:
REMARK  status: ('A' for Active; 'I' for Inactive)
REMARK    1  A    between atoms: C5_5  and  N6_21 
REMARK    2  A    between atoms: C18_14  and  N17_19 
ROOT
HETATM    1  O1  MIQ B 502      10.791  -0.509 -18.684  1.00142.91    -0.171 OA
HETATM    2  C2  MIQ B 502      10.192  -1.209 -19.733  1.00141.17     0.195 A 
HETATM    3  C3  MIQ B 502       8.665  -1.248 -20.063  1.00141.71     0.035 A 
HETATM    4  C4  MIQ B 502       7.473  -0.623 -19.444  1.00142.86     0.046 A 
HETATM    5  C5  MIQ B 502       6.182  -0.851 -19.985  1.00139.53     0.031 A 
HETATM    6  C12 MIQ B 502       6.029  -1.703 -21.155  1.00139.38     0.030 A 
HETATM    7  C13 MIQ B 502       7.172  -2.301 -21.750  1.00141.18     0.019 A 
HETATM    8  C14 MIQ B 502       8.525  -2.057 -21.179  1.00138.77     0.033 A 
HETATM    9  C15 MIQ B 502       9.973  -2.521 -21.545  1.00142.10     0.195 A 
HETATM   10  N17 MIQ B 502      10.772  -1.963 -20.651  1.00139.42    -0.288 N 
HETATM   11  O16 MIQ B 502      10.340  -3.358 -22.600  1.00148.93    -0.171 OA
ENDROOT
BRANCH  10  12
HETATM   12  C18 MIQ B 502      12.205  -2.188 -20.671  1.00139.82     0.187 C 
HETATM   13  C19 MIQ B 502      12.725  -1.770 -22.052  1.00140.06     0.247 C 
HETATM   14  O25 MIQ B 502      12.441  -0.707 -22.477  1.00143.95    -0.271 OA
HETATM   15  N20 MIQ B 502      13.563  -2.643 -22.849  1.00140.02    -0.296 N 
HETATM   16  H13 MIQ B 502      13.890  -2.361 -23.752  1.00142.77     0.171 HD
HETATM   17  C21 MIQ B 502      13.887  -3.940 -22.314  1.00142.22     0.224 C 
HETATM   18  C22 MIQ B 502      12.830  -4.607 -21.456  1.00139.52     0.106 C 
HETATM   19  O24 MIQ B 502      14.930  -4.454 -22.529  1.00146.13    -0.273 OA
HETATM   20  C23 MIQ B 502      12.520  -3.643 -20.326  1.00139.15     0.045 C 
ENDBRANCH  10  12
BRANCH   5  21
HETATM   21  N6  MIQ B 502       5.021  -0.244 -19.359  1.00140.95    -0.377 N 
HETATM   22  C7  MIQ B 502       5.180   0.378 -18.056  1.00142.12     0.149 C 
HETATM   23  C8  MIQ B 502       3.879   0.379 -17.264  1.00144.10     0.187 C 
HETATM   24  O9  MIQ B 502       2.788   0.828 -18.011  1.00148.65    -0.388 OA
HETATM   25  C10 MIQ B 502       2.904   1.014 -19.391  1.00147.44     0.187 C 
HETATM   26  C11 MIQ B 502       3.873   0.129 -20.167  1.00144.08     0.149 C 
ENDBRANCH   5  21
TORSDOF 2
ENDMDL
MODEL 6
REMARK VINA RESULT:      -7.0      1.493      2.479
REMARK  2 active torsions:
REMARK  status: ('A' for Active; 'I' for Inactive)
REMARK    1  A    between atoms: C5_5  and  N6_21 
REMARK    2  A    between atoms: C18_14  and  N17_19 
ROOT
HETATM    1  O1  MIQ B 502       5.232  -0.523 -22.470  1.00142.91    -0.171 OA
HETATM    2  C2  MIQ B 502       5.655  -0.175 -21.185  1.00141.17     0.195 A 
HETATM    3  C3  MIQ B 502       6.976  -0.638 -20.492  1.00141.71     0.035 A 
HETATM    4  C4  MIQ B 502       8.101  -1.504 -20.919  1.00142.86     0.046 A 
HETATM    5  C5  MIQ B 502       9.192  -1.744 -20.045  1.00139.53     0.031 A 
HETATM    6  C12 MIQ B 502       9.206  -1.137 -18.722  1.00139.38     0.030 A 
HETATM    7  C13 MIQ B 502       8.128  -0.306 -18.313  1.00141.18     0.019 A 
HETATM    8  C14 MIQ B 502       6.987  -0.055 -19.236  1.00138.77     0.033 A 
HETATM    9  C15 MIQ B 502       5.665   0.776 -19.148  1.00142.10     0.195 A 
HETATM   10  N17 MIQ B 502       5.048   0.604 -20.306  1.00139.42    -0.288 N 
HETATM   11  O16 MIQ B 502       5.228   1.539 -18.064  1.00148.93    -0.171 OA
ENDROOT
BRANCH  10  12
HETATM   12  C18 MIQ B 502       3.765   1.223 -20.580  1.00139.82     0.187 C 
HETATM   13  C19 MIQ B 502       3.908   2.728 -20.324  1.00140.06     0.247 C 
HETATM   14  O25 MIQ B 502       4.797   3.316 -20.829  1.00143.95    -0.271 OA
HETATM   15  N20 MIQ B 502       2.977   3.452 -19.483  1.00140.02    -0.296 N 
HETATM   16  H13 MIQ B 502       3.085   4.434 -19.319  1.00142.77     0.171 HD
HETATM   17  C21 MIQ B 502       1.906   2.710 -18.869  1.00142.22     0.224 C 
HETATM   18  C22 MIQ B 502       2.208   1.278 -18.475  1.00139.52     0.106 C 
HETATM   19  O24 MIQ B 502       0.843   3.195 -18.687  1.00146.13    -0.273 OA
HETATM   20  C23 MIQ B 502       2.670   0.572 -19.737  1.00139.15     0.045 C 
ENDBRANCH  10  12
BRANCH   5  21
HETATM   21  N6  MIQ B 502      10.280  -2.606 -20.471  1.00140.95    -0.377 N 
HETATM   22  C7  MIQ B 502      10.549  -2.735 -21.892  1.00142.12     0.149 C 
HETATM   23  C8  MIQ B 502      11.207  -4.067 -22.229  1.00144.10     0.187 C 
HETATM   24  O9  MIQ B 502      12.280  -4.370 -21.388  1.00148.65    -0.388 OA
HETATM   25  C10 MIQ B 502      12.518  -3.609 -20.241  1.00147.44     0.187 C 
HETATM   26  C11 MIQ B 502      11.330  -2.965 -19.534  1.00144.08     0.149 C 
ENDBRANCH   5  21
TORSDOF 2
ENDMDL
MODEL 7
REMARK VINA RESULT:      -6.9     11.847     16.210
REMARK  2 active torsions:
REMARK  status: ('A' for Active; 'I' for Inactive)
REMARK    1  A    between atoms: C5_5  and  N6_21 
REMARK    2  A    between atoms: C18_14  and  N17_19 
ROOT
HETATM    1  O1  MIQ B 502      15.331  -8.984  -8.601  1.00142.91    -0.171 OA
HETATM    2  C2  MIQ B 502      14.675  -9.406  -9.760  1.00141.17     0.195 A 
HETATM    3  C3  MIQ B 502      13.741  -8.536 -10.660  1.00141.71     0.035 A 
HETATM    4  C4  MIQ B 502      13.291  -7.125 -10.597  1.00142.86     0.046 A 
HETATM    5  C5  MIQ B 502      12.420  -6.606 -11.588  1.00139.53     0.031 A 
HETATM    6  C12 MIQ B 502      11.966  -7.464 -12.673  1.00139.38     0.030 A 
HETATM    7  C13 MIQ B 502      12.399  -8.817 -12.734  1.00141.18     0.019 A 
HETATM    8  C14 MIQ B 502      13.315  -9.355 -11.693  1.00138.77     0.033 A 
HETATM    9  C15 MIQ B 502      13.989 -10.742 -11.432  1.00142.10     0.195 A 
HETATM   10  N17 MIQ B 502      14.706 -10.599 -10.330  1.00139.42    -0.288 N 
HETATM   11  O16 MIQ B 502      13.854 -11.895 -12.207  1.00148.93    -0.171 OA
ENDROOT
BRANCH  10  12
HETATM   12  C18 MIQ B 502      15.466 -11.702  -9.772  1.00139.82     0.187 C 
HETATM   13  C19 MIQ B 502      16.426 -12.205 -10.857  1.00140.06     0.247 C 
HETATM   14  O25 MIQ B 502      17.119 -11.431 -11.416  1.00143.95    -0.271 OA
HETATM   15  N20 MIQ B 502      16.511 -13.607 -11.212  1.00140.02    -0.296 N 
HETATM   16  H13 MIQ B 502      17.137 -13.921 -11.926  1.00142.77     0.171 HD
HETATM   17  C21 MIQ B 502      15.647 -14.530 -10.522  1.00142.22     0.224 C 
HETATM   18  C22 MIQ B 502      14.282 -14.012 -10.115  1.00139.52     0.106 C 
HETATM   19  O24 MIQ B 502      15.991 -15.635 -10.281  1.00146.13    -0.273 OA
HETATM   20  C23 MIQ B 502      14.525 -12.787  -9.252  1.00139.15     0.045 C 
ENDBRANCH  10  12
BRANCH   5  21
HETATM   21  N6  MIQ B 502      11.975  -5.227 -11.505  1.00140.95    -0.377 N 
HETATM   22  C7  MIQ B 502      12.675  -4.323 -10.609  1.00142.12     0.149 C 
HETATM   23  C8  MIQ B 502      11.780  -3.186 -10.134  1.00144.10     0.187 C 
HETATM   24  O9  MIQ B 502      11.084  -2.571 -11.177  1.00148.65    -0.388 OA
HETATM   25  C10 MIQ B 502      11.074  -3.140 -12.453  1.00147.44     0.187 C 
HETATM   26  C11 MIQ B 502      11.178  -4.656 -12.577  1.00144.08     0.149 C 
ENDBRANCH   5  21
TORSDOF 2
ENDMDL
MODEL 8
REMARK VINA RESULT:      -6.9      1.552      2.707
REMARK  2 active torsions:
REMARK  status: ('A' for Active; 'I' for Inactive)
REMARK    1  A    between atoms: C5_5  and  N6_21 
REMARK    2  A    between atoms: C18_14  and  N17_19 
ROOT
HETATM    1  O1  MIQ B 502       5.400   0.339 -22.412  1.00142.91    -0.171 OA
HETATM    2  C2  MIQ B 502       5.705   0.481 -21.056  1.00141.17     0.195 A 
HETATM    3  C3  MIQ B 502       6.926  -0.149 -20.315  1.00141.71     0.035 A 
HETATM    4  C4  MIQ B 502       8.050  -1.011 -20.752  1.00142.86     0.046 A 
HETATM    5  C5  MIQ B 502       9.034  -1.433 -19.823  1.00139.53     0.031 A 
HETATM    6  C12 MIQ B 502       8.939  -1.016 -18.431  1.00139.38     0.030 A 
HETATM    7  C13 MIQ B 502       7.863  -0.189 -18.011  1.00141.18     0.019 A 
HETATM    8  C14 MIQ B 502       6.834   0.253 -18.992  1.00138.77     0.033 A 
HETATM    9  C15 MIQ B 502       5.548   1.139 -18.913  1.00142.10     0.195 A 
HETATM   10  N17 MIQ B 502       5.046   1.165 -20.136  1.00139.42    -0.288 N 
HETATM   11  O16 MIQ B 502       5.036   1.769 -17.777  1.00148.93    -0.171 OA
ENDROOT
BRANCH  10  12
HETATM   12  C18 MIQ B 502       3.826   1.889 -20.439  1.00139.82     0.187 C 
HETATM   13  C19 MIQ B 502       3.961   3.300 -19.853  1.00140.06     0.247 C 
HETATM   14  O25 MIQ B 502       4.924   3.936 -20.100  1.00143.95    -0.271 OA
HETATM   15  N20 MIQ B 502       2.937   3.877 -19.008  1.00140.02    -0.296 N 
HETATM   16  H13 MIQ B 502       3.040   4.797 -18.626  1.00142.77     0.171 HD
HETATM   17  C21 MIQ B 502       1.776   3.077 -18.712  1.00142.22     0.224 C 
HETATM   18  C22 MIQ B 502       1.992   1.581 -18.595  1.00139.52     0.106 C 
HETATM   19  O24 MIQ B 502       0.708   3.565 -18.573  1.00146.13    -0.273 OA
HETATM   20  C23 MIQ B 502       2.611   1.131 -19.906  1.00139.15     0.045 C 
ENDBRANCH  10  12
BRANCH   5  21
HETATM   21  N6  MIQ B 502      10.121  -2.289 -20.262  1.00140.95    -0.377 N 
HETATM   22  C7  MIQ B 502      10.809  -3.101 -19.273  1.00142.12     0.149 C 
HETATM   23  C8  MIQ B 502      12.240  -3.414 -19.690  1.00144.10     0.187 C 
HETATM   24  O9  MIQ B 502      12.335  -3.870 -21.006  1.00148.65    -0.388 OA
HETATM   25  C10 MIQ B 502      11.233  -3.796 -21.862  1.00147.44     0.187 C 
HETATM   26  C11 MIQ B 502      10.227  -2.668 -21.660  1.00144.08     0.149 C 
ENDBRANCH   5  21
TORSDOF 2
ENDMDL
MODEL 9
REMARK VINA RESULT:      -6.9      2.559      7.973
REMARK  2 active torsions:
REMARK  status: ('A' for Active; 'I' for Inactive)
REMARK    1  A    between atoms: C5_5  and  N6_21 
REMARK    2  A    between atoms: C18_14  and  N17_19 
ROOT
HETATM    1  O1  MIQ B 502       8.611  -0.749 -17.083  1.00142.91    -0.171 OA
HETATM    2  C2  MIQ B 502       8.529  -0.667 -18.475  1.00141.17     0.195 A 
HETATM    3  C3  MIQ B 502       7.307  -0.147 -19.298  1.00141.71     0.035 A 
HETATM    4  C4  MIQ B 502       5.974   0.379 -18.920  1.00142.86     0.046 A 
HETATM    5  C5  MIQ B 502       5.054   0.785 -19.920  1.00139.53     0.031 A 
HETATM    6  C12 MIQ B 502       5.423   0.685 -21.325  1.00139.38     0.030 A 
HETATM    7  C13 MIQ B 502       6.701   0.181 -21.687  1.00141.18     0.019 A 
HETATM    8  C14 MIQ B 502       7.664  -0.241 -20.633  1.00138.77     0.033 A 
HETATM    9  C15 MIQ B 502       9.115  -0.823 -20.639  1.00142.10     0.195 A 
HETATM   10  N17 MIQ B 502       9.444  -0.998 -19.370  1.00139.42    -0.288 N 
HETATM   11  O16 MIQ B 502       9.899  -1.101 -21.760  1.00148.93    -0.171 OA
ENDROOT
BRANCH  10  12
HETATM   12  C18 MIQ B 502      10.733  -1.545 -18.990  1.00139.82     0.187 C 
HETATM   13  C19 MIQ B 502      10.479  -2.838 -18.205  1.00140.06     0.247 C 
HETATM   14  O25 MIQ B 502       9.770  -3.661 -18.665  1.00143.95    -0.271 OA
HETATM   15  N20 MIQ B 502      11.092  -3.081 -16.915  1.00140.02    -0.296 N 
HETATM   16  H13 MIQ B 502      10.913  -3.927 -16.410  1.00142.77     0.171 HD
HETATM   17  C21 MIQ B 502      11.946  -2.057 -16.370  1.00142.22     0.224 C 
HETATM   18  C22 MIQ B 502      11.576  -0.621 -16.690  1.00139.52     0.106 C 
HETATM   19  O24 MIQ B 502      12.890  -2.326 -15.712  1.00146.13    -0.273 OA
HETATM   20  C23 MIQ B 502      11.538  -0.512 -18.203  1.00139.15     0.045 C 
ENDBRANCH  10  12
BRANCH   5  21
HETATM   21  N6  MIQ B 502       3.747   1.285 -19.536  1.00140.95    -0.377 N 
HETATM   22  C7  MIQ B 502       3.081   2.235 -20.412  1.00142.12     0.149 C 
HETATM   23  C8  MIQ B 502       2.112   3.129 -19.649  1.00144.10     0.187 C 
HETATM   24  O9  MIQ B 502       1.271   2.414 -18.795  1.00148.65    -0.388 OA
HETATM   25  C10 MIQ B 502       1.505   1.061 -18.539  1.00147.44     0.187 C 
HETATM   26  C11 MIQ B 502       2.942   0.550 -18.576  1.00144.08     0.149 C 
ENDBRANCH   5  21
TORSDOF 2
ENDMDL
