MODEL 1
REMARK VINA RESULT:      -6.6      0.000      0.000
REMARK  2 active torsions:
REMARK  status: ('A' for Active; 'I' for Inactive)
REMARK    1  A    between atoms: C5_5  and  N6_21 
REMARK    2  A    between atoms: C18_14  and  N17_19 
ROOT
HETATM    1  O1  MIQ B 502       8.117 -14.466  19.373  1.00142.91    -0.171 OA
HETATM    2  C2  MIQ B 502       8.314 -13.096  19.182  1.00141.17     0.195 A 
HETATM    3  C3  MIQ B 502       9.317 -12.439  18.181  1.00141.71     0.035 A 
HETATM    4  C4  MIQ B 502      10.286 -12.987  17.203  1.00142.86     0.046 A 
HETATM    5  C5  MIQ B 502      11.078 -12.116  16.413  1.00139.53     0.031 A 
HETATM    6  C12 MIQ B 502      10.936 -10.675  16.564  1.00139.38     0.030 A 
HETATM    7  C13 MIQ B 502      10.006 -10.149  17.501  1.00141.18     0.019 A 
HETATM    8  C14 MIQ B 502       9.176 -11.069  18.326  1.00138.77     0.033 A 
HETATM    9  C15 MIQ B 502       8.079 -10.874  19.423  1.00142.10     0.195 A 
HETATM   10  N17 MIQ B 502       7.707 -12.090  19.788  1.00139.42    -0.288 N 
HETATM   11  O16 MIQ B 502       7.596  -9.661  19.916  1.00148.93    -0.171 OA
ENDROOT
BRANCH  10  12
HETATM   12  C18 MIQ B 502       6.702 -12.299  20.813  1.00139.82     0.187 C 
HETATM   13  C19 MIQ B 502       5.439 -11.539  20.392  1.00140.06     0.247 C 
HETATM   14  O25 MIQ B 502       5.002 -11.702  19.308  1.00143.95    -0.271 OA
HETATM   15  N20 MIQ B 502       4.760 -10.627  21.290  1.00140.02    -0.296 N 
HETATM   16  H13 MIQ B 502       3.940 -10.132  21.001  1.00142.77     0.171 HD
HETATM   17  C21 MIQ B 502       5.318 -10.436  22.605  1.00142.22     0.224 C 
HETATM   18  C22 MIQ B 502       6.828 -10.510  22.721  1.00139.52     0.106 C 
HETATM   19  O24 MIQ B 502       4.630 -10.237  23.545  1.00146.13    -0.273 OA
HETATM   20  C23 MIQ B 502       7.237 -11.867  22.178  1.00139.15     0.045 C 
ENDBRANCH  10  12
BRANCH   5  21
HETATM   21  N6  MIQ B 502      12.034 -12.666  15.469  1.00140.95    -0.377 N 
HETATM   22  C7  MIQ B 502      13.450 -12.460  15.717  1.00142.12     0.149 C 
HETATM   23  C8  MIQ B 502      14.262 -12.487  14.428  1.00144.10     0.187 C 
HETATM   24  O9  MIQ B 502      13.951 -13.576  13.612  1.00148.65    -0.388 OA
HETATM   25  C10 MIQ B 502      12.843 -14.379  13.895  1.00147.44     0.187 C 
HETATM   26  C11 MIQ B 502      11.637 -13.743  14.579  1.00144.08     0.149 C 
ENDBRANCH   5  21
TORSDOF 2
ENDMDL
MODEL 2
REMARK VINA RESULT:      -6.6     25.442     27.028
REMARK  2 active torsions:
REMARK  status: ('A' for Active; 'I' for Inactive)
REMARK    1  A    between atoms: C5_5  and  N6_21 
REMARK    2  A    between atoms: C18_14  and  N17_19 
ROOT
HETATM    1  O1  MIQ B 502      -9.450 -18.774   0.560  1.00142.91    -0.171 OA
HETATM    2  C2  MIQ B 502     -10.254 -17.651   0.765  1.00141.17     0.195 A 
HETATM    3  C3  MIQ B 502      -9.976 -16.490   1.773  1.00141.71     0.035 A 
HETATM    4  C4  MIQ B 502      -8.887 -16.220   2.741  1.00142.86     0.046 A 
HETATM    5  C5  MIQ B 502      -8.911 -15.048   3.539  1.00139.53     0.031 A 
HETATM    6  C12 MIQ B 502     -10.012 -14.106   3.405  1.00139.38     0.030 A 
HETATM    7  C13 MIQ B 502     -11.057 -14.364   2.476  1.00141.18     0.019 A 
HETATM    8  C14 MIQ B 502     -11.025 -15.595   1.640  1.00138.77     0.033 A 
HETATM    9  C15 MIQ B 502     -11.958 -16.202   0.542  1.00142.10     0.195 A 
HETATM   10  N17 MIQ B 502     -11.387 -17.334   0.163  1.00139.42    -0.288 N 
HETATM   11  O16 MIQ B 502     -13.152 -15.658   0.066  1.00148.93    -0.171 OA
ENDROOT
BRANCH  10  12
HETATM   12  C18 MIQ B 502     -11.990 -18.185  -0.845  1.00139.82     0.187 C 
HETATM   13  C19 MIQ B 502     -12.273 -17.321  -2.080  1.00140.06     0.247 C 
HETATM   14  O25 MIQ B 502     -11.407 -16.655  -2.527  1.00143.95    -0.271 OA
HETATM   15  N20 MIQ B 502     -13.573 -17.303  -2.719  1.00140.02    -0.296 N 
HETATM   16  H13 MIQ B 502     -13.746 -16.729  -3.521  1.00142.77     0.171 HD
HETATM   17  C21 MIQ B 502     -14.616 -18.116  -2.149  1.00142.22     0.224 C 
HETATM   18  C22 MIQ B 502     -14.599 -18.287  -0.642  1.00139.52     0.106 C 
HETATM   19  O24 MIQ B 502     -15.439 -18.628  -2.825  1.00146.13    -0.273 OA
HETATM   20  C23 MIQ B 502     -13.241 -18.864  -0.288  1.00139.15     0.045 C 
ENDBRANCH  10  12
BRANCH   5  21
HETATM   21  N6  MIQ B 502      -7.845 -14.804   4.493  1.00140.95    -0.377 N 
HETATM   22  C7  MIQ B 502      -8.170 -14.786   5.909  1.00142.12     0.149 C 
HETATM   23  C8  MIQ B 502      -7.199 -13.925   6.705  1.00144.10     0.187 C 
HETATM   24  O9  MIQ B 502      -5.862 -14.193   6.403  1.00148.65    -0.388 OA
HETATM   25  C10 MIQ B 502      -5.531 -15.003   5.314  1.00147.44     0.187 C 
HETATM   26  C11 MIQ B 502      -6.461 -15.015   4.105  1.00144.08     0.149 C 
ENDBRANCH   5  21
TORSDOF 2
ENDMDL
MODEL 3
REMARK VINA RESULT:      -6.6     21.212     22.758
REMARK  2 active torsions:
REMARK  status: ('A' for Active; 'I' for Inactive)
REMARK    1  A    between atoms: C5_5  and  N6_21 
REMARK    2  A    between atoms: C18_14  and  N17_19 
ROOT
HETATM    1  O1  MIQ B 502      -8.300 -16.879   6.250  1.00142.91    -0.171 OA
HETATM    2  C2  MIQ B 502      -7.570 -17.682   5.371  1.00141.17     0.195 A 
HETATM    3  C3  MIQ B 502      -7.212 -19.188   5.580  1.00141.71     0.035 A 
HETATM    4  C4  MIQ B 502      -7.497 -20.163   6.660  1.00142.86     0.046 A 
HETATM    5  C5  MIQ B 502      -7.028 -21.497   6.563  1.00139.53     0.031 A 
HETATM    6  C12 MIQ B 502      -6.262 -21.911   5.395  1.00139.38     0.030 A 
HETATM    7  C13 MIQ B 502      -5.990 -20.977   4.359  1.00141.18     0.019 A 
HETATM    8  C14 MIQ B 502      -6.488 -19.578   4.466  1.00138.77     0.033 A 
HETATM    9  C15 MIQ B 502      -6.396 -18.308   3.559  1.00142.10     0.195 A 
HETATM   10  N17 MIQ B 502      -7.046 -17.352   4.203  1.00139.42    -0.288 N 
HETATM   11  O16 MIQ B 502      -5.754 -18.207   2.324  1.00148.93    -0.171 OA
ENDROOT
BRANCH  10  12
HETATM   12  C18 MIQ B 502      -7.155 -16.011   3.660  1.00139.82     0.187 C 
HETATM   13  C19 MIQ B 502      -6.713 -15.027   4.750  1.00140.06     0.247 C 
HETATM   14  O25 MIQ B 502      -5.682 -15.199   5.297  1.00143.95    -0.271 OA
HETATM   15  N20 MIQ B 502      -7.525 -13.888   5.125  1.00140.02    -0.296 N 
HETATM   16  H13 MIQ B 502      -7.228 -13.257   5.843  1.00142.77     0.171 HD
HETATM   17  C21 MIQ B 502      -8.784 -13.706   4.450  1.00142.22     0.224 C 
HETATM   18  C22 MIQ B 502      -9.524 -14.964   4.038  1.00139.52     0.106 C 
HETATM   19  O24 MIQ B 502      -9.214 -12.628   4.225  1.00146.13    -0.273 OA
HETATM   20  C23 MIQ B 502      -8.574 -15.754   3.157  1.00139.15     0.045 C 
ENDBRANCH  10  12
BRANCH   5  21
HETATM   21  N6  MIQ B 502      -7.301 -22.437   7.634  1.00140.95    -0.377 N 
HETATM   22  C7  MIQ B 502      -6.602 -22.273   8.897  1.00142.12     0.149 C 
HETATM   23  C8  MIQ B 502      -6.466 -23.592   9.648  1.00144.10     0.187 C 
HETATM   24  O9  MIQ B 502      -7.666 -24.304   9.717  1.00148.65    -0.388 OA
HETATM   25  C10 MIQ B 502      -8.769 -23.906   8.959  1.00147.44     0.187 C 
HETATM   26  C11 MIQ B 502      -8.525 -23.220   7.619  1.00144.08     0.149 C 
ENDBRANCH   5  21
TORSDOF 2
ENDMDL
MODEL 4
REMARK VINA RESULT:      -6.5     23.841     25.821
REMARK  2 active torsions:
REMARK  status: ('A' for Active; 'I' for Inactive)
REMARK    1  A    between atoms: C5_5  and  N6_21 
REMARK    2  A    between atoms: C18_14  and  N17_19 
ROOT
HETATM    1  O1  MIQ B 502      -8.825 -18.979   1.749  1.00142.91    -0.171 OA
HETATM    2  C2  MIQ B 502      -8.424 -17.794   2.371  1.00141.17     0.195 A 
HETATM    3  C3  MIQ B 502      -9.319 -16.541   2.631  1.00141.71     0.035 A 
HETATM    4  C4  MIQ B 502     -10.738 -16.224   2.341  1.00142.86     0.046 A 
HETATM    5  C5  MIQ B 502     -11.281 -14.967   2.709  1.00139.53     0.031 A 
HETATM    6  C12 MIQ B 502     -10.440 -13.984   3.377  1.00139.38     0.030 A 
HETATM    7  C13 MIQ B 502      -9.081 -14.288   3.657  1.00141.18     0.019 A 
HETATM    8  C14 MIQ B 502      -8.516 -15.610   3.270  1.00138.77     0.033 A 
HETATM    9  C15 MIQ B 502      -7.115 -16.289   3.407  1.00142.10     0.195 A 
HETATM   10  N17 MIQ B 502      -7.236 -17.490   2.864  1.00139.42    -0.288 N 
HETATM   11  O16 MIQ B 502      -5.971 -15.736   3.984  1.00148.93    -0.171 OA
ENDROOT
BRANCH  10  12
HETATM   12  C18 MIQ B 502      -6.114 -18.408   2.798  1.00139.82     0.187 C 
HETATM   13  C19 MIQ B 502      -5.988 -18.888   1.348  1.00140.06     0.247 C 
HETATM   14  O25 MIQ B 502      -5.957 -18.092   0.478  1.00143.95    -0.271 OA
HETATM   15  N20 MIQ B 502      -5.900 -20.295   1.014  1.00140.02    -0.296 N 
HETATM   16  H13 MIQ B 502      -5.824 -20.596   0.062  1.00142.77     0.171 HD
HETATM   17  C21 MIQ B 502      -5.950 -21.249   2.092  1.00142.22     0.224 C 
HETATM   18  C22 MIQ B 502      -6.815 -20.884   3.284  1.00139.52     0.106 C 
HETATM   19  O24 MIQ B 502      -5.343 -22.262   2.050  1.00146.13    -0.273 OA
HETATM   20  C23 MIQ B 502      -6.303 -19.550   3.796  1.00139.15     0.045 C 
ENDBRANCH  10  12
BRANCH   5  21
HETATM   21  N6  MIQ B 502     -12.668 -14.664   2.406  1.00140.95    -0.377 N 
HETATM   22  C7  MIQ B 502     -13.296 -13.539   3.076  1.00142.12     0.149 C 
HETATM   23  C8  MIQ B 502     -14.805 -13.713   3.186  1.00144.10     0.187 C 
HETATM   24  O9  MIQ B 502     -15.398 -14.097   1.982  1.00148.65    -0.388 OA
HETATM   25  C10 MIQ B 502     -14.608 -14.490   0.898  1.00147.44     0.187 C 
HETATM   26  C11 MIQ B 502     -13.267 -15.159   1.178  1.00144.08     0.149 C 
ENDBRANCH   5  21
TORSDOF 2
ENDMDL
MODEL 5
REMARK VINA RESULT:      -6.5      2.432      3.478
REMARK  2 active torsions:
REMARK  status: ('A' for Active; 'I' for Inactive)
REMARK    1  A    between atoms: C5_5  and  N6_21 
REMARK    2  A    between atoms: C18_14  and  N17_19 
ROOT
HETATM    1  O1  MIQ B 502       7.675  -9.667  20.643  1.00142.91    -0.171 OA
HETATM    2  C2  MIQ B 502       8.110 -10.745  19.869  1.00141.17     0.195 A 
HETATM    3  C3  MIQ B 502       9.394 -10.784  18.981  1.00141.71     0.035 A 
HETATM    4  C4  MIQ B 502      10.466  -9.801  18.695  1.00142.86     0.046 A 
HETATM    5  C5  MIQ B 502      11.533 -10.137  17.824  1.00139.53     0.031 A 
HETATM    6  C12 MIQ B 502      11.575 -11.455  17.208  1.00139.38     0.030 A 
HETATM    7  C13 MIQ B 502      10.549 -12.399  17.483  1.00141.18     0.019 A 
HETATM    8  C14 MIQ B 502       9.432 -12.041  18.400  1.00138.77     0.033 A 
HETATM    9  C15 MIQ B 502       8.165 -12.787  18.931  1.00142.10     0.195 A 
HETATM   10  N17 MIQ B 502       7.547 -11.933  19.731  1.00139.42    -0.288 N 
HETATM   11  O16 MIQ B 502       7.769 -14.089  18.619  1.00148.93    -0.171 OA
ENDROOT
BRANCH  10  12
HETATM   12  C18 MIQ B 502       6.307 -12.282  20.398  1.00139.82     0.187 C 
HETATM   13  C19 MIQ B 502       5.253 -11.241  20.003  1.00140.06     0.247 C 
HETATM   14  O25 MIQ B 502       5.085 -10.997  18.861  1.00143.95    -0.271 OA
HETATM   15  N20 MIQ B 502       4.452 -10.550  20.993  1.00140.02    -0.296 N 
HETATM   16  H13 MIQ B 502       3.772  -9.867  20.722  1.00142.77     0.171 HD
HETATM   17  C21 MIQ B 502       4.683 -10.857  22.381  1.00142.22     0.224 C 
HETATM   18  C22 MIQ B 502       6.107 -11.200  22.775  1.00139.52     0.106 C 
HETATM   19  O24 MIQ B 502       3.804 -10.847  23.170  1.00146.13    -0.273 OA
HETATM   20  C23 MIQ B 502       6.523 -12.374  21.908  1.00139.15     0.045 C 
ENDBRANCH  10  12
BRANCH   5  21
HETATM   21  N6  MIQ B 502      12.567  -9.159  17.541  1.00140.95    -0.377 N 
HETATM   22  C7  MIQ B 502      13.128  -8.401  18.646  1.00142.12     0.149 C 
HETATM   23  C8  MIQ B 502      13.667  -7.050  18.195  1.00144.10     0.187 C 
HETATM   24  O9  MIQ B 502      14.477  -7.139  17.061  1.00148.65    -0.388 OA
HETATM   25  C10 MIQ B 502      14.549  -8.331  16.335  1.00147.44     0.187 C 
HETATM   26  C11 MIQ B 502      13.327  -9.243  16.306  1.00144.08     0.149 C 
ENDBRANCH   5  21
TORSDOF 2
ENDMDL
MODEL 6
REMARK VINA RESULT:      -6.4      4.758      8.580
REMARK  2 active torsions:
REMARK  status: ('A' for Active; 'I' for Inactive)
REMARK    1  A    between atoms: C5_5  and  N6_21 
REMARK    2  A    between atoms: C18_14  and  N17_19 
ROOT
HETATM    1  O1  MIQ B 502       2.897 -11.491  26.179  1.00142.91    -0.171 OA
HETATM    2  C2  MIQ B 502       4.136 -10.865  26.335  1.00141.17     0.195 A 
HETATM    3  C3  MIQ B 502       5.209 -10.654  25.221  1.00141.71     0.035 A 
HETATM    4  C4  MIQ B 502       5.267 -11.006  23.782  1.00142.86     0.046 A 
HETATM    5  C5  MIQ B 502       6.407 -10.672  23.008  1.00139.53     0.031 A 
HETATM    6  C12 MIQ B 502       7.526  -9.980  23.631  1.00139.38     0.030 A 
HETATM    7  C13 MIQ B 502       7.471  -9.641  25.010  1.00141.18     0.019 A 
HETATM    8  C14 MIQ B 502       6.270  -9.992  25.817  1.00138.77     0.033 A 
HETATM    9  C15 MIQ B 502       5.852  -9.790  27.310  1.00142.10     0.195 A 
HETATM   10  N17 MIQ B 502       4.649 -10.326  27.428  1.00139.42    -0.288 N 
HETATM   11  O16 MIQ B 502       6.603  -9.171  28.312  1.00148.93    -0.171 OA
ENDROOT
BRANCH  10  12
HETATM   12  C18 MIQ B 502       3.945 -10.336  28.697  1.00139.82     0.187 C 
HETATM   13  C19 MIQ B 502       3.493 -11.776  28.969  1.00140.06     0.247 C 
HETATM   14  O25 MIQ B 502       4.280 -12.651  28.895  1.00143.95    -0.271 OA
HETATM   15  N20 MIQ B 502       2.124 -12.092  29.322  1.00140.02    -0.296 N 
HETATM   16  H13 MIQ B 502       1.839 -13.037  29.490  1.00142.77     0.171 HD
HETATM   17  C21 MIQ B 502       1.178 -11.008  29.395  1.00142.22     0.224 C 
HETATM   18  C22 MIQ B 502       1.385  -9.857  28.430  1.00139.52     0.106 C 
HETATM   19  O24 MIQ B 502       0.290 -11.015  30.175  1.00146.13    -0.273 OA
HETATM   20  C23 MIQ B 502       2.790  -9.337  28.673  1.00139.15     0.045 C 
ENDBRANCH  10  12
BRANCH   5  21
HETATM   21  N6  MIQ B 502       6.457 -11.036  21.604  1.00140.95    -0.377 N 
HETATM   22  C7  MIQ B 502       5.230 -11.461  20.953  1.00142.12     0.149 C 
HETATM   23  C8  MIQ B 502       5.502 -12.385  19.773  1.00144.10     0.187 C 
HETATM   24  O9  MIQ B 502       6.493 -11.898  18.918  1.00148.65    -0.388 OA
HETATM   25  C10 MIQ B 502       7.272 -10.799  19.291  1.00147.44     0.187 C 
HETATM   26  C11 MIQ B 502       7.556 -10.576  20.773  1.00144.08     0.149 C 
ENDBRANCH   5  21
TORSDOF 2
ENDMDL
MODEL 7
REMARK VINA RESULT:      -6.4     13.413     16.345
REMARK  2 active torsions:
REMARK  status: ('A' for Active; 'I' for Inactive)
REMARK    1  A    between atoms: C5_5  and  N6_21 
REMARK    2  A    between atoms: C18_14  and  N17_19 
ROOT
HETATM    1  O1  MIQ B 502      11.937 -21.371   6.263  1.00142.91    -0.171 OA
HETATM    2  C2  MIQ B 502      11.721 -20.015   6.006  1.00141.17     0.195 A 
HETATM    3  C3  MIQ B 502      11.483 -19.369   4.604  1.00141.71     0.035 A 
HETATM    4  C4  MIQ B 502      11.411 -19.916   3.229  1.00142.86     0.046 A 
HETATM    5  C5  MIQ B 502      11.173 -19.056   2.127  1.00139.53     0.031 A 
HETATM    6  C12 MIQ B 502      10.999 -17.628   2.349  1.00139.38     0.030 A 
HETATM    7  C13 MIQ B 502      11.067 -17.103   3.668  1.00141.18     0.019 A 
HETATM    8  C14 MIQ B 502      11.314 -18.011   4.822  1.00138.77     0.033 A 
HETATM    9  C15 MIQ B 502      11.448 -17.814   6.367  1.00142.10     0.195 A 
HETATM   10  N17 MIQ B 502      11.667 -19.017   6.871  1.00139.42    -0.288 N 
HETATM   11  O16 MIQ B 502      11.356 -16.609   7.067  1.00148.93    -0.171 OA
ENDROOT
BRANCH  10  12
HETATM   12  C18 MIQ B 502      11.860 -19.218   8.295  1.00139.82     0.187 C 
HETATM   13  C19 MIQ B 502      13.174 -19.984   8.486  1.00140.06     0.247 C 
HETATM   14  O25 MIQ B 502      14.153 -19.588   7.961  1.00143.95    -0.271 OA
HETATM   15  N20 MIQ B 502      13.249 -21.181   9.299  1.00140.02    -0.296 N 
HETATM   16  H13 MIQ B 502      14.112 -21.676   9.410  1.00142.77     0.171 HD
HETATM   17  C21 MIQ B 502      12.038 -21.650   9.921  1.00142.22     0.224 C 
HETATM   18  C22 MIQ B 502      10.748 -21.427   9.156  1.00139.52     0.106 C 
HETATM   19  O24 MIQ B 502      12.051 -22.179  10.978  1.00146.13    -0.273 OA
HETATM   20  C23 MIQ B 502      10.653 -19.934   8.899  1.00139.15     0.045 C 
ENDBRANCH  10  12
BRANCH   5  21
HETATM   21  N6  MIQ B 502      11.120 -19.603   0.784  1.00140.95    -0.377 N 
HETATM   22  C7  MIQ B 502      11.225 -18.691  -0.343  1.00142.12     0.149 C 
HETATM   23  C8  MIQ B 502      10.537 -19.241  -1.585  1.00144.10     0.187 C 
HETATM   24  O9  MIQ B 502      10.881 -20.567  -1.856  1.00148.65    -0.388 OA
HETATM   25  C10 MIQ B 502      11.596 -21.318  -0.920  1.00147.44     0.187 C 
HETATM   26  C11 MIQ B 502      11.403 -21.010   0.562  1.00144.08     0.149 C 
ENDBRANCH   5  21
TORSDOF 2
ENDMDL
MODEL 8
REMARK VINA RESULT:      -6.4     21.733     22.956
REMARK  2 active torsions:
REMARK  status: ('A' for Active; 'I' for Inactive)
REMARK    1  A    between atoms: C5_5  and  N6_21 
REMARK    2  A    between atoms: C18_14  and  N17_19 
ROOT
HETATM    1  O1  MIQ B 502      -6.176 -17.591   5.723  1.00142.91    -0.171 OA
HETATM    2  C2  MIQ B 502      -6.650 -17.541   4.410  1.00141.17     0.195 A 
HETATM    3  C3  MIQ B 502      -6.777 -18.749   3.429  1.00141.71     0.035 A 
HETATM    4  C4  MIQ B 502      -6.474 -20.195   3.548  1.00142.86     0.046 A 
HETATM    5  C5  MIQ B 502      -6.702 -21.068   2.455  1.00139.53     0.031 A 
HETATM    6  C12 MIQ B 502      -7.239 -20.541   1.209  1.00139.38     0.030 A 
HETATM    7  C13 MIQ B 502      -7.531 -19.155   1.094  1.00141.18     0.019 A 
HETATM    8  C14 MIQ B 502      -7.291 -18.243   2.246  1.00138.77     0.033 A 
HETATM    9  C15 MIQ B 502      -7.485 -16.712   2.495  1.00142.10     0.195 A 
HETATM   10  N17 MIQ B 502      -7.087 -16.490   3.737  1.00139.42    -0.288 N 
HETATM   11  O16 MIQ B 502      -7.976 -15.773   1.586  1.00148.93    -0.171 OA
ENDROOT
BRANCH  10  12
HETATM   12  C18 MIQ B 502      -7.111 -15.159   4.313  1.00139.82     0.187 C 
HETATM   13  C19 MIQ B 502      -5.725 -14.882   4.908  1.00140.06     0.247 C 
HETATM   14  O25 MIQ B 502      -4.767 -15.055   4.241  1.00143.95    -0.271 OA
HETATM   15  N20 MIQ B 502      -5.557 -14.406   6.266  1.00140.02    -0.296 N 
HETATM   16  H13 MIQ B 502      -4.646 -14.235   6.644  1.00142.77     0.171 HD
HETATM   17  C21 MIQ B 502      -6.741 -14.211   7.063  1.00142.22     0.224 C 
HETATM   18  C22 MIQ B 502      -7.895 -15.162   6.812  1.00139.52     0.106 C 
HETATM   19  O24 MIQ B 502      -6.808 -13.349   7.869  1.00146.13    -0.273 OA
HETATM   20  C23 MIQ B 502      -8.238 -15.044   5.338  1.00139.15     0.045 C 
ENDBRANCH  10  12
BRANCH   5  21
HETATM   21  N6  MIQ B 502      -6.387 -22.480   2.581  1.00140.95    -0.377 N 
HETATM   22  C7  MIQ B 502      -7.327 -23.342   3.275  1.00142.12     0.149 C 
HETATM   23  C8  MIQ B 502      -6.640 -24.556   3.888  1.00144.10     0.187 C 
HETATM   24  O9  MIQ B 502      -5.783 -25.203   2.996  1.00148.65    -0.388 OA
HETATM   25  C10 MIQ B 502      -5.457 -24.613   1.773  1.00147.44     0.187 C 
HETATM   26  C11 MIQ B 502      -5.421 -23.090   1.684  1.00144.08     0.149 C 
ENDBRANCH   5  21
TORSDOF 2
ENDMDL
MODEL 9
REMARK VINA RESULT:      -6.3     23.195     25.061
REMARK  2 active torsions:
REMARK  status: ('A' for Active; 'I' for Inactive)
REMARK    1  A    between atoms: C5_5  and  N6_21 
REMARK    2  A    between atoms: C18_14  and  N17_19 
ROOT
HETATM    1  O1  MIQ B 502      -9.219 -19.330   3.764  1.00142.91    -0.171 OA
HETATM    2  C2  MIQ B 502      -8.747 -18.053   4.074  1.00141.17     0.195 A 
HETATM    3  C3  MIQ B 502      -9.466 -16.702   3.758  1.00141.71     0.035 A 
HETATM    4  C4  MIQ B 502     -10.749 -16.361   3.099  1.00142.86     0.046 A 
HETATM    5  C5  MIQ B 502     -11.142 -15.006   2.956  1.00139.53     0.031 A 
HETATM    6  C12 MIQ B 502     -10.281 -13.946   3.459  1.00139.38     0.030 A 
HETATM    7  C13 MIQ B 502      -9.051 -14.273   4.091  1.00141.18     0.019 A 
HETATM    8  C14 MIQ B 502      -8.644 -15.697   4.241  1.00138.77     0.033 A 
HETATM    9  C15 MIQ B 502      -7.409 -16.428   4.862  1.00142.10     0.195 A 
HETATM   10  N17 MIQ B 502      -7.624 -17.721   4.689  1.00139.42    -0.288 N 
HETATM   11  O16 MIQ B 502      -6.304 -15.831   5.471  1.00148.93    -0.171 OA
ENDROOT
BRANCH  10  12
HETATM   12  C18 MIQ B 502      -6.665 -18.715   5.133  1.00139.82     0.187 C 
HETATM   13  C19 MIQ B 502      -6.302 -19.588   3.925  1.00140.06     0.247 C 
HETATM   14  O25 MIQ B 502      -5.966 -19.070   2.921  1.00143.95    -0.271 OA
HETATM   15  N20 MIQ B 502      -6.356 -21.034   3.985  1.00140.02    -0.296 N 
HETATM   16  H13 MIQ B 502      -6.123 -21.593   3.187  1.00142.77     0.171 HD
HETATM   17  C21 MIQ B 502      -6.780 -21.644   5.219  1.00142.22     0.224 C 
HETATM   18  C22 MIQ B 502      -7.816 -20.890   6.030  1.00139.52     0.106 C 
HETATM   19  O24 MIQ B 502      -6.336 -22.677   5.582  1.00146.13    -0.273 OA
HETATM   20  C23 MIQ B 502      -7.233 -19.515   6.304  1.00139.15     0.045 C 
ENDBRANCH  10  12
BRANCH   5  21
HETATM   21  N6  MIQ B 502     -12.395 -14.686   2.295  1.00140.95    -0.377 N 
HETATM   22  C7  MIQ B 502     -13.111 -15.748   1.611  1.00142.12     0.149 C 
HETATM   23  C8  MIQ B 502     -13.980 -15.212   0.481  1.00144.10     0.187 C 
HETATM   24  O9  MIQ B 502     -14.759 -14.119   0.866  1.00148.65    -0.388 OA
HETATM   25  C10 MIQ B 502     -14.540 -13.492   2.095  1.00147.44     0.187 C 
HETATM   26  C11 MIQ B 502     -13.128 -13.489   2.671  1.00144.08     0.149 C 
ENDBRANCH   5  21
TORSDOF 2
ENDMDL
