MODEL 1
REMARK VINA RESULT:      -7.4      0.000      0.000
REMARK  2 active torsions:
REMARK  status: ('A' for Active; 'I' for Inactive)
REMARK    1  A    between atoms: C5_5  and  N6_21 
REMARK    2  A    between atoms: C18_14  and  N17_19 
ROOT
HETATM    1  O1  MIQ B 502      -7.305   1.804 -14.183  1.00142.91    -0.171 OA
HETATM    2  C2  MIQ B 502      -8.049   2.271 -15.269  1.00141.17     0.195 A 
HETATM    3  C3  MIQ B 502      -8.633   3.710 -15.436  1.00141.71     0.035 A 
HETATM    4  C4  MIQ B 502      -8.596   4.929 -14.593  1.00142.86     0.046 A 
HETATM    5  C5  MIQ B 502      -9.236   6.118 -15.024  1.00139.53     0.031 A 
HETATM    6  C12 MIQ B 502      -9.932   6.141 -16.303  1.00139.38     0.030 A 
HETATM    7  C13 MIQ B 502      -9.967   4.974 -17.111  1.00141.18     0.019 A 
HETATM    8  C14 MIQ B 502      -9.292   3.728 -16.654  1.00138.77     0.033 A 
HETATM    9  C15 MIQ B 502      -9.115   2.293 -17.248  1.00142.10     0.195 A 
HETATM   10  N17 MIQ B 502      -8.404   1.616 -16.361  1.00139.42    -0.288 N 
HETATM   11  O16 MIQ B 502      -9.611   1.825 -18.466  1.00148.93    -0.171 OA
ENDROOT
BRANCH  10  12
HETATM   12  C18 MIQ B 502      -8.056   0.223 -16.573  1.00139.82     0.187 C 
HETATM   13  C19 MIQ B 502      -8.407  -0.547 -15.294  1.00140.06     0.247 C 
HETATM   14  O25 MIQ B 502      -9.484  -0.428 -14.828  1.00143.95    -0.271 OA
HETATM   15  N20 MIQ B 502      -7.453  -1.422 -14.643  1.00140.02    -0.296 N 
HETATM   16  H13 MIQ B 502      -7.693  -1.914 -13.805  1.00142.77     0.171 HD
HETATM   17  C21 MIQ B 502      -6.141  -1.542 -15.226  1.00142.22     0.224 C 
HETATM   18  C22 MIQ B 502      -5.580  -0.305 -15.901  1.00139.52     0.106 C 
HETATM   19  O24 MIQ B 502      -5.536  -2.556 -15.182  1.00146.13    -0.273 OA
HETATM   20  C23 MIQ B 502      -6.585   0.097 -16.966  1.00139.15     0.045 C 
ENDBRANCH  10  12
BRANCH   5  21
HETATM   21  N6  MIQ B 502      -9.204   7.300 -14.182  1.00140.95    -0.377 N 
HETATM   22  C7  MIQ B 502      -8.983   8.593 -14.807  1.00142.12     0.149 C 
HETATM   23  C8  MIQ B 502      -8.347   9.588 -13.845  1.00144.10     0.187 C 
HETATM   24  O9  MIQ B 502      -8.984   9.627 -12.604  1.00148.65    -0.388 OA
HETATM   25  C10 MIQ B 502      -9.941   8.665 -12.269  1.00147.44     0.187 C 
HETATM   26  C11 MIQ B 502      -9.807   7.266 -12.861  1.00144.08     0.149 C 
ENDBRANCH   5  21
TORSDOF 2
ENDMDL
MODEL 2
REMARK VINA RESULT:      -7.1      1.123      1.171
REMARK  2 active torsions:
REMARK  status: ('A' for Active; 'I' for Inactive)
REMARK    1  A    between atoms: C5_5  and  N6_21 
REMARK    2  A    between atoms: C18_14  and  N17_19 
ROOT
HETATM    1  O1  MIQ B 502      -6.981   2.498 -14.466  1.00142.91    -0.171 OA
HETATM    2  C2  MIQ B 502      -8.168   2.880 -15.096  1.00141.17     0.195 A 
HETATM    3  C3  MIQ B 502      -8.831   4.293 -15.034  1.00141.71     0.035 A 
HETATM    4  C4  MIQ B 502      -8.463   5.563 -14.365  1.00142.86     0.046 A 
HETATM    5  C5  MIQ B 502      -9.287   6.709 -14.500  1.00139.53     0.031 A 
HETATM    6  C12 MIQ B 502     -10.500   6.637 -15.300  1.00139.38     0.030 A 
HETATM    7  C13 MIQ B 502     -10.853   5.419 -15.943  1.00141.18     0.019 A 
HETATM    8  C14 MIQ B 502      -9.983   4.220 -15.800  1.00138.77     0.033 A 
HETATM    9  C15 MIQ B 502     -10.035   2.754 -16.341  1.00142.10     0.195 A 
HETATM   10  N17 MIQ B 502      -8.960   2.150 -15.861  1.00139.42    -0.288 N 
HETATM   11  O16 MIQ B 502     -11.020   2.200 -17.160  1.00148.93    -0.171 OA
ENDROOT
BRANCH  10  12
HETATM   12  C18 MIQ B 502      -8.685   0.754 -16.148  1.00139.82     0.187 C 
HETATM   13  C19 MIQ B 502      -8.416   0.047 -14.814  1.00140.06     0.247 C 
HETATM   14  O25 MIQ B 502      -9.188   0.171 -13.931  1.00143.95    -0.271 OA
HETATM   15  N20 MIQ B 502      -7.242  -0.776 -14.608  1.00140.02    -0.296 N 
HETATM   16  H13 MIQ B 502      -7.075  -1.227 -13.731  1.00142.77     0.171 HD
HETATM   17  C21 MIQ B 502      -6.309  -0.904 -15.698  1.00142.22     0.224 C 
HETATM   18  C22 MIQ B 502      -6.145   0.305 -16.600  1.00139.52     0.106 C 
HETATM   19  O24 MIQ B 502      -5.706  -1.904 -15.881  1.00146.13    -0.273 OA
HETATM   20  C23 MIQ B 502      -7.526   0.633 -17.136  1.00139.15     0.045 C 
ENDBRANCH  10  12
BRANCH   5  21
HETATM   21  N6  MIQ B 502      -8.922   7.943 -13.826  1.00140.95    -0.377 N 
HETATM   22  C7  MIQ B 502      -9.788   9.099 -13.979  1.00142.12     0.149 C 
HETATM   23  C8  MIQ B 502      -9.025  10.407 -13.806  1.00144.10     0.187 C 
HETATM   24  O9  MIQ B 502      -8.211  10.416 -12.672  1.00148.65    -0.388 OA
HETATM   25  C10 MIQ B 502      -7.987   9.239 -11.952  1.00147.44     0.187 C 
HETATM   26  C11 MIQ B 502      -8.002   7.911 -12.703  1.00144.08     0.149 C 
ENDBRANCH   5  21
TORSDOF 2
ENDMDL
MODEL 3
REMARK VINA RESULT:      -7.1      2.813      8.311
REMARK  2 active torsions:
REMARK  status: ('A' for Active; 'I' for Inactive)
REMARK    1  A    between atoms: C5_5  and  N6_21 
REMARK    2  A    between atoms: C18_14  and  N17_19 
ROOT
HETATM    1  O1  MIQ B 502     -12.474   3.670 -14.097  1.00142.91    -0.171 OA
HETATM    2  C2  MIQ B 502     -11.092   3.486 -14.178  1.00141.17     0.195 A 
HETATM    3  C3  MIQ B 502     -10.342   2.116 -14.179  1.00141.71     0.035 A 
HETATM    4  C4  MIQ B 502     -10.795   0.706 -14.105  1.00142.86     0.046 A 
HETATM    5  C5  MIQ B 502      -9.852  -0.352 -14.130  1.00139.53     0.031 A 
HETATM    6  C12 MIQ B 502      -8.431  -0.051 -14.229  1.00139.38     0.030 A 
HETATM    7  C13 MIQ B 502      -7.996   1.300 -14.301  1.00141.18     0.019 A 
HETATM    8  C14 MIQ B 502      -8.991   2.407 -14.277  1.00138.77     0.033 A 
HETATM    9  C15 MIQ B 502      -8.902   3.966 -14.338  1.00142.10     0.195 A 
HETATM   10  N17 MIQ B 502     -10.148   4.406 -14.275  1.00139.42    -0.288 N 
HETATM   11  O16 MIQ B 502      -7.740   4.734 -14.436  1.00148.93    -0.171 OA
ENDROOT
BRANCH  10  12
HETATM   12  C18 MIQ B 502     -10.452   5.825 -14.290  1.00139.82     0.187 C 
HETATM   13  C19 MIQ B 502      -9.741   6.443 -15.501  1.00140.06     0.247 C 
HETATM   14  O25 MIQ B 502      -9.881   5.951 -16.564  1.00143.95    -0.271 OA
HETATM   15  N20 MIQ B 502      -8.905   7.619 -15.377  1.00140.02    -0.296 N 
HETATM   16  H13 MIQ B 502      -8.441   8.009 -16.174  1.00142.77     0.171 HD
HETATM   17  C21 MIQ B 502      -8.740   8.195 -14.067  1.00142.22     0.224 C 
HETATM   18  C22 MIQ B 502      -8.741   7.233 -12.895  1.00139.52     0.106 C 
HETATM   19  O24 MIQ B 502      -8.617   9.361 -13.916  1.00146.13    -0.273 OA
HETATM   20  C23 MIQ B 502     -10.050   6.469 -12.964  1.00139.15     0.045 C 
ENDBRANCH  10  12
BRANCH   5  21
HETATM   21  N6  MIQ B 502     -10.309  -1.727 -14.042  1.00140.95    -0.377 N 
HETATM   22  C7  MIQ B 502     -11.730  -1.997 -14.177  1.00142.12     0.149 C 
HETATM   23  C8  MIQ B 502     -12.137  -3.275 -13.455  1.00144.10     0.187 C 
HETATM   24  O9  MIQ B 502     -11.295  -4.352 -13.739  1.00148.65    -0.388 OA
HETATM   25  C10 MIQ B 502     -10.097  -4.150 -14.429  1.00147.44     0.187 C 
HETATM   26  C11 MIQ B 502      -9.375  -2.817 -14.262  1.00144.08     0.149 C 
ENDBRANCH   5  21
TORSDOF 2
ENDMDL
MODEL 4
REMARK VINA RESULT:      -7.0      1.644      2.525
REMARK  2 active torsions:
REMARK  status: ('A' for Active; 'I' for Inactive)
REMARK    1  A    between atoms: C5_5  and  N6_21 
REMARK    2  A    between atoms: C18_14  and  N17_19 
ROOT
HETATM    1  O1  MIQ B 502     -10.765   2.705 -16.789  1.00142.91    -0.171 OA
HETATM    2  C2  MIQ B 502      -9.759   3.030 -15.877  1.00141.17     0.195 A 
HETATM    3  C3  MIQ B 502      -9.595   4.392 -15.130  1.00141.71     0.035 A 
HETATM    4  C4  MIQ B 502     -10.369   5.656 -15.135  1.00142.86     0.046 A 
HETATM    5  C5  MIQ B 502      -9.963   6.748 -14.326  1.00139.53     0.031 A 
HETATM    6  C12 MIQ B 502      -8.780   6.625 -13.487  1.00139.38     0.030 A 
HETATM    7  C13 MIQ B 502      -8.039   5.412 -13.481  1.00141.18     0.019 A 
HETATM    8  C14 MIQ B 502      -8.471   4.269 -14.330  1.00138.77     0.033 A 
HETATM    9  C15 MIQ B 502      -7.934   2.822 -14.581  1.00142.10     0.195 A 
HETATM   10  N17 MIQ B 502      -8.759   2.273 -15.457  1.00139.42    -0.288 N 
HETATM   11  O16 MIQ B 502      -6.809   2.235 -13.999  1.00148.93    -0.171 OA
ENDROOT
BRANCH  10  12
HETATM   12  C18 MIQ B 502      -8.559   0.920 -15.942  1.00139.82     0.187 C 
HETATM   13  C19 MIQ B 502      -8.391   0.006 -14.722  1.00140.06     0.247 C 
HETATM   14  O25 MIQ B 502      -9.191   0.049 -13.856  1.00143.95    -0.271 OA
HETATM   15  N20 MIQ B 502      -7.280  -0.916 -14.605  1.00140.02    -0.296 N 
HETATM   16  H13 MIQ B 502      -7.178  -1.502 -13.801  1.00142.77     0.171 HD
HETATM   17  C21 MIQ B 502      -6.311  -0.942 -15.671  1.00142.22     0.224 C 
HETATM   18  C22 MIQ B 502      -6.035   0.373 -16.374  1.00139.52     0.106 C 
HETATM   19  O24 MIQ B 502      -5.764  -1.942 -15.983  1.00146.13    -0.273 OA
HETATM   20  C23 MIQ B 502      -7.369   0.869 -16.899  1.00139.15     0.045 C 
ENDBRANCH  10  12
BRANCH   5  21
HETATM   21  N6  MIQ B 502     -10.721   7.985 -14.352  1.00140.95    -0.377 N 
HETATM   22  C7  MIQ B 502     -11.670   8.196 -15.433  1.00142.12     0.149 C 
HETATM   23  C8  MIQ B 502     -11.890   9.677 -15.715  1.00144.10     0.187 C 
HETATM   24  O9  MIQ B 502     -12.129  10.421 -14.558  1.00148.65    -0.388 OA
HETATM   25  C10 MIQ B 502     -11.936   9.850 -13.297  1.00147.44     0.187 C 
HETATM   26  C11 MIQ B 502     -10.870   8.771 -13.140  1.00144.08     0.149 C 
ENDBRANCH   5  21
TORSDOF 2
ENDMDL
MODEL 5
REMARK VINA RESULT:      -6.9     17.215     18.977
REMARK  2 active torsions:
REMARK  status: ('A' for Active; 'I' for Inactive)
REMARK    1  A    between atoms: C5_5  and  N6_21 
REMARK    2  A    between atoms: C18_14  and  N17_19 
ROOT
HETATM    1  O1  MIQ B 502       6.593  11.696 -17.265  1.00142.91    -0.171 OA
HETATM    2  C2  MIQ B 502       7.491  12.464 -16.521  1.00141.17     0.195 A 
HETATM    3  C3  MIQ B 502       7.296  13.953 -16.091  1.00141.71     0.035 A 
HETATM    4  C4  MIQ B 502       6.211  14.940 -16.301  1.00142.86     0.046 A 
HETATM    5  C5  MIQ B 502       6.323  16.251 -15.773  1.00139.53     0.031 A 
HETATM    6  C12 MIQ B 502       7.510  16.628 -15.020  1.00139.38     0.030 A 
HETATM    7  C13 MIQ B 502       8.551  15.681 -14.818  1.00141.18     0.019 A 
HETATM    8  C14 MIQ B 502       8.427  14.305 -15.372  1.00138.77     0.033 A 
HETATM    9  C15 MIQ B 502       9.328  13.028 -15.356  1.00142.10     0.195 A 
HETATM   10  N17 MIQ B 502       8.665  12.104 -16.031  1.00139.42    -0.288 N 
HETATM   11  O16 MIQ B 502      10.580  12.897 -14.752  1.00148.93    -0.171 OA
ENDROOT
BRANCH  10  12
HETATM   12  C18 MIQ B 502       9.213  10.776 -16.236  1.00139.82     0.187 C 
HETATM   13  C19 MIQ B 502       9.186  10.486 -17.741  1.00140.06     0.247 C 
HETATM   14  O25 MIQ B 502       9.648  11.273 -18.488  1.00143.95    -0.271 OA
HETATM   15  N20 MIQ B 502       8.612   9.267 -18.274  1.00140.02    -0.296 N 
HETATM   16  H13 MIQ B 502       8.594   9.093 -19.260  1.00142.77     0.171 HD
HETATM   17  C21 MIQ B 502       8.044   8.326 -17.343  1.00142.22     0.224 C 
HETATM   18  C22 MIQ B 502       7.386   8.905 -16.106  1.00139.52     0.106 C 
HETATM   19  O24 MIQ B 502       8.095   7.161 -17.534  1.00146.13    -0.273 OA
HETATM   20  C23 MIQ B 502       8.440   9.749 -15.411  1.00139.15     0.045 C 
ENDBRANCH  10  12
BRANCH   5  21
HETATM   21  N6  MIQ B 502       5.259  17.212 -15.999  1.00140.95    -0.377 N 
HETATM   22  C7  MIQ B 502       5.533  18.369 -16.834  1.00142.12     0.149 C 
HETATM   23  C8  MIQ B 502       4.640  19.551 -16.481  1.00144.10     0.187 C 
HETATM   24  O9  MIQ B 502       3.293  19.201 -16.371  1.00148.65    -0.388 OA
HETATM   25  C10 MIQ B 502       2.910  17.857 -16.364  1.00147.44     0.187 C 
HETATM   26  C11 MIQ B 502       3.875  16.826 -15.788  1.00144.08     0.149 C 
ENDBRANCH   5  21
TORSDOF 2
ENDMDL
MODEL 6
REMARK VINA RESULT:      -6.9      2.745      4.269
REMARK  2 active torsions:
REMARK  status: ('A' for Active; 'I' for Inactive)
REMARK    1  A    between atoms: C5_5  and  N6_21 
REMARK    2  A    between atoms: C18_14  and  N17_19 
ROOT
HETATM    1  O1  MIQ B 502     -11.583   0.399 -14.481  1.00142.91    -0.171 OA
HETATM    2  C2  MIQ B 502     -10.193   0.308 -14.578  1.00141.17     0.195 A 
HETATM    3  C3  MIQ B 502      -9.184   1.498 -14.502  1.00141.71     0.035 A 
HETATM    4  C4  MIQ B 502      -9.344   2.960 -14.320  1.00142.86     0.046 A 
HETATM    5  C5  MIQ B 502      -8.208   3.808 -14.291  1.00139.53     0.031 A 
HETATM    6  C12 MIQ B 502      -6.877   3.238 -14.441  1.00139.38     0.030 A 
HETATM    7  C13 MIQ B 502      -6.723   1.836 -14.614  1.00141.18     0.019 A 
HETATM    8  C14 MIQ B 502      -7.919   0.951 -14.641  1.00138.77     0.033 A 
HETATM    9  C15 MIQ B 502      -8.144  -0.588 -14.804  1.00142.10     0.195 A 
HETATM   10  N17 MIQ B 502      -9.453  -0.774 -14.743  1.00139.42    -0.288 N 
HETATM   11  O16 MIQ B 502      -7.161  -1.563 -14.979  1.00148.93    -0.171 OA
ENDROOT
BRANCH  10  12
HETATM   12  C18 MIQ B 502     -10.037  -2.096 -14.874  1.00139.82     0.187 C 
HETATM   13  C19 MIQ B 502     -11.150  -2.013 -15.925  1.00140.06     0.247 C 
HETATM   14  O25 MIQ B 502     -10.916  -1.529 -16.975  1.00143.95    -0.271 OA
HETATM   15  N20 MIQ B 502     -12.483  -2.519 -15.668  1.00140.02    -0.296 N 
HETATM   16  H13 MIQ B 502     -13.203  -2.453 -16.360  1.00142.77     0.171 HD
HETATM   17  C21 MIQ B 502     -12.747  -3.096 -14.375  1.00142.22     0.224 C 
HETATM   18  C22 MIQ B 502     -12.007  -2.494 -13.196  1.00139.52     0.106 C 
HETATM   19  O24 MIQ B 502     -13.499  -3.998 -14.243  1.00146.13    -0.273 OA
HETATM   20  C23 MIQ B 502     -10.527  -2.598 -13.517  1.00139.15     0.045 C 
ENDBRANCH  10  12
BRANCH   5  21
HETATM   21  N6  MIQ B 502      -8.381   5.240 -14.126  1.00140.95    -0.377 N 
HETATM   22  C7  MIQ B 502      -9.427   5.905 -14.884  1.00142.12     0.149 C 
HETATM   23  C8  MIQ B 502      -9.105   7.373 -15.130  1.00144.10     0.187 C 
HETATM   24  O9  MIQ B 502      -8.690   8.039 -13.975  1.00148.65    -0.388 OA
HETATM   25  C10 MIQ B 502      -8.397   7.323 -12.812  1.00147.44     0.187 C 
HETATM   26  C11 MIQ B 502      -7.855   5.904 -12.946  1.00144.08     0.149 C 
ENDBRANCH   5  21
TORSDOF 2
ENDMDL
MODEL 7
REMARK VINA RESULT:      -6.8      2.873      8.236
REMARK  2 active torsions:
REMARK  status: ('A' for Active; 'I' for Inactive)
REMARK    1  A    between atoms: C5_5  and  N6_21 
REMARK    2  A    between atoms: C18_14  and  N17_19 
ROOT
HETATM    1  O1  MIQ B 502     -11.572   3.545 -15.026  1.00142.91    -0.171 OA
HETATM    2  C2  MIQ B 502     -10.242   3.120 -15.048  1.00141.17     0.195 A 
HETATM    3  C3  MIQ B 502      -9.740   1.650 -14.881  1.00141.71     0.035 A 
HETATM    4  C4  MIQ B 502     -10.430   0.356 -14.669  1.00142.86     0.046 A 
HETATM    5  C5  MIQ B 502      -9.684  -0.844 -14.553  1.00139.53     0.031 A 
HETATM    6  C12 MIQ B 502      -8.231  -0.803 -14.643  1.00139.38     0.030 A 
HETATM    7  C13 MIQ B 502      -7.569   0.438 -14.847  1.00141.18     0.019 A 
HETATM    8  C14 MIQ B 502      -8.359   1.694 -14.971  1.00138.77     0.033 A 
HETATM    9  C15 MIQ B 502      -8.000   3.199 -15.196  1.00142.10     0.195 A 
HETATM   10  N17 MIQ B 502      -9.152   3.850 -15.216  1.00139.42    -0.288 N 
HETATM   11  O16 MIQ B 502      -6.723   3.742 -15.342  1.00148.93    -0.171 OA
ENDROOT
BRANCH  10  12
HETATM   12  C18 MIQ B 502      -9.206   5.289 -15.392  1.00139.82     0.187 C 
HETATM   13  C19 MIQ B 502     -10.074   5.865 -14.267  1.00140.06     0.247 C 
HETATM   14  O25 MIQ B 502      -9.842   5.567 -13.149  1.00143.95    -0.271 OA
HETATM   15  N20 MIQ B 502     -11.171   6.773 -14.536  1.00140.02    -0.296 N 
HETATM   16  H13 MIQ B 502     -11.734   7.137 -13.793  1.00142.77     0.171 HD
HETATM   17  C21 MIQ B 502     -11.442   7.114 -15.909  1.00142.22     0.224 C 
HETATM   18  C22 MIQ B 502     -11.179   6.037 -16.943  1.00139.52     0.106 C 
HETATM   19  O24 MIQ B 502     -11.844   8.183 -16.212  1.00146.13    -0.273 OA
HETATM   20  C23 MIQ B 502      -9.724   5.635 -16.787  1.00139.15     0.045 C 
ENDBRANCH  10  12
BRANCH   5  21
HETATM   21  N6  MIQ B 502     -10.372  -2.102 -14.331  1.00140.95    -0.377 N 
HETATM   22  C7  MIQ B 502      -9.578  -3.298 -14.106  1.00142.12     0.149 C 
HETATM   23  C8  MIQ B 502     -10.320  -4.561 -14.526  1.00144.10     0.187 C 
HETATM   24  O9  MIQ B 502     -11.626  -4.611 -14.036  1.00148.65    -0.388 OA
HETATM   25  C10 MIQ B 502     -12.201  -3.488 -13.436  1.00147.44     0.187 C 
HETATM   26  C11 MIQ B 502     -11.760  -2.105 -13.904  1.00144.08     0.149 C 
ENDBRANCH   5  21
TORSDOF 2
ENDMDL
MODEL 8
REMARK VINA RESULT:      -6.5     18.296     19.964
REMARK  2 active torsions:
REMARK  status: ('A' for Active; 'I' for Inactive)
REMARK    1  A    between atoms: C5_5  and  N6_21 
REMARK    2  A    between atoms: C18_14  and  N17_19 
ROOT
HETATM    1  O1  MIQ B 502       8.664  11.541 -18.017  1.00142.91    -0.171 OA
HETATM    2  C2  MIQ B 502       9.080  12.375 -16.977  1.00141.17     0.195 A 
HETATM    3  C3  MIQ B 502       8.320  13.631 -16.442  1.00141.71     0.035 A 
HETATM    4  C4  MIQ B 502       7.042  14.284 -16.815  1.00142.86     0.046 A 
HETATM    5  C5  MIQ B 502       6.602  15.443 -16.126  1.00139.53     0.031 A 
HETATM    6  C12 MIQ B 502       7.410  15.992 -15.047  1.00139.38     0.030 A 
HETATM    7  C13 MIQ B 502       8.634  15.366 -14.689  1.00141.18     0.019 A 
HETATM    8  C14 MIQ B 502       9.090  14.148 -15.414  1.00138.77     0.033 A 
HETATM    9  C15 MIQ B 502      10.335  13.208 -15.309  1.00142.10     0.195 A 
HETATM   10  N17 MIQ B 502      10.173  12.282 -16.239  1.00139.42    -0.288 N 
HETATM   11  O16 MIQ B 502      11.400  13.329 -14.415  1.00148.93    -0.171 OA
ENDROOT
BRANCH  10  12
HETATM   12  C18 MIQ B 502      11.156  11.235 -16.445  1.00139.82     0.187 C 
HETATM   13  C19 MIQ B 502      11.577  11.273 -17.920  1.00140.06     0.247 C 
HETATM   14  O25 MIQ B 502      11.918  12.298 -18.395  1.00143.95    -0.271 OA
HETATM   15  N20 MIQ B 502      11.574  10.084 -18.746  1.00140.02    -0.296 N 
HETATM   16  H13 MIQ B 502      11.845  10.123 -19.709  1.00142.77     0.171 HD
HETATM   17  C21 MIQ B 502      11.144   8.847 -18.146  1.00142.22     0.224 C 
HETATM   18  C22 MIQ B 502      10.064   8.943 -17.086  1.00139.52     0.106 C 
HETATM   19  O24 MIQ B 502      11.616   7.810 -18.461  1.00146.13    -0.273 OA
HETATM   20  C23 MIQ B 502      10.591   9.882 -16.016  1.00139.15     0.045 C 
ENDBRANCH  10  12
BRANCH   5  21
HETATM   21  N6  MIQ B 502       5.357  16.080 -16.511  1.00140.95    -0.377 N 
HETATM   22  C7  MIQ B 502       4.834  15.836 -17.845  1.00142.12     0.149 C 
HETATM   23  C8  MIQ B 502       3.964  16.986 -18.334  1.00144.10     0.187 C 
HETATM   24  O9  MIQ B 502       3.020  17.394 -17.390  1.00148.65    -0.388 OA
HETATM   25  C10 MIQ B 502       3.081  16.917 -16.077  1.00147.44     0.187 C 
HETATM   26  C11 MIQ B 502       4.445  16.567 -15.491  1.00144.08     0.149 C 
ENDBRANCH   5  21
TORSDOF 2
ENDMDL
MODEL 9
REMARK VINA RESULT:      -6.5     17.236     20.362
REMARK  2 active torsions:
REMARK  status: ('A' for Active; 'I' for Inactive)
REMARK    1  A    between atoms: C5_5  and  N6_21 
REMARK    2  A    between atoms: C18_14  and  N17_19 
ROOT
HETATM    1  O1  MIQ B 502       4.826  15.246 -17.933  1.00142.91    -0.171 OA
HETATM    2  C2  MIQ B 502       5.878  15.368 -17.022  1.00141.17     0.195 A 
HETATM    3  C3  MIQ B 502       6.869  14.236 -16.602  1.00141.71     0.035 A 
HETATM    4  C4  MIQ B 502       7.012  12.812 -16.987  1.00142.86     0.046 A 
HETATM    5  C5  MIQ B 502       8.039  12.016 -16.420  1.00139.53     0.031 A 
HETATM    6  C12 MIQ B 502       8.958  12.602 -15.454  1.00139.38     0.030 A 
HETATM    7  C13 MIQ B 502       8.821  13.968 -15.085  1.00141.18     0.019 A 
HETATM    8  C14 MIQ B 502       7.742  14.799 -15.686  1.00138.77     0.033 A 
HETATM    9  C15 MIQ B 502       7.291  16.289 -15.537  1.00142.10     0.195 A 
HETATM   10  N17 MIQ B 502       6.253  16.438 -16.344  1.00139.42    -0.288 N 
HETATM   11  O16 MIQ B 502       7.869  17.260 -14.717  1.00148.93    -0.171 OA
ENDROOT
BRANCH  10  12
HETATM   12  C18 MIQ B 502       5.557  17.707 -16.455  1.00139.82     0.187 C 
HETATM   13  C19 MIQ B 502       4.054  17.427 -16.337  1.00140.06     0.247 C 
HETATM   14  O25 MIQ B 502       3.657  16.784 -15.430  1.00143.95    -0.271 OA
HETATM   15  N20 MIQ B 502       3.104  17.934 -17.305  1.00140.02    -0.296 N 
HETATM   16  H13 MIQ B 502       2.126  17.739 -17.220  1.00142.77     0.171 HD
HETATM   17  C21 MIQ B 502       3.613  18.707 -18.409  1.00142.22     0.224 C 
HETATM   18  C22 MIQ B 502       4.983  18.322 -18.935  1.00139.52     0.106 C 
HETATM   19  O24 MIQ B 502       2.995  19.599 -18.876  1.00146.13    -0.273 OA
HETATM   20  C23 MIQ B 502       5.937  18.409 -17.757  1.00139.15     0.045 C 
ENDBRANCH  10  12
BRANCH   5  21
HETATM   21  N6  MIQ B 502       8.159  10.619 -16.795  1.00140.95    -0.377 N 
HETATM   22  C7  MIQ B 502       9.303   9.866 -16.312  1.00142.12     0.149 C 
HETATM   23  C8  MIQ B 502       9.654   8.708 -17.238  1.00144.10     0.187 C 
HETATM   24  O9  MIQ B 502       8.543   7.942 -17.595  1.00148.65    -0.388 OA
HETATM   25  C10 MIQ B 502       7.252   8.384 -17.294  1.00147.44     0.187 C 
HETATM   26  C11 MIQ B 502       6.989   9.885 -17.243  1.00144.08     0.149 C 
ENDBRANCH   5  21
TORSDOF 2
ENDMDL
