MODEL 1
REMARK VINA RESULT:      -6.8      0.000      0.000
REMARK  2 active torsions:
REMARK  status: ('A' for Active; 'I' for Inactive)
REMARK    1  A    between atoms: C5_5  and  N6_21 
REMARK    2  A    between atoms: C18_14  and  N17_19 
ROOT
HETATM    1  O1  MIQ B 502      -6.299   5.612 -17.707  1.00142.91    -0.171 OA
HETATM    2  C2  MIQ B 502      -7.340   6.033 -18.537  1.00141.17     0.195 A 
HETATM    3  C3  MIQ B 502      -7.875   7.493 -18.679  1.00141.71     0.035 A 
HETATM    4  C4  MIQ B 502      -7.497   8.782 -18.052  1.00142.86     0.046 A 
HETATM    5  C5  MIQ B 502      -8.185   9.974 -18.392  1.00139.53     0.031 A 
HETATM    6  C12 MIQ B 502      -9.269   9.930 -19.363  1.00139.38     0.030 A 
HETATM    7  C13 MIQ B 502      -9.631   8.695 -19.966  1.00141.18     0.019 A 
HETATM    8  C14 MIQ B 502      -8.903   7.447 -19.606  1.00138.77     0.033 A 
HETATM    9  C15 MIQ B 502      -9.007   5.950 -20.044  1.00142.10     0.195 A 
HETATM   10  N17 MIQ B 502      -8.073   5.305 -19.363  1.00139.42    -0.288 N 
HETATM   11  O16 MIQ B 502      -9.905   5.408 -20.964  1.00148.93    -0.171 OA
ENDROOT
BRANCH  10  12
HETATM   12  C18 MIQ B 502      -7.885   3.873 -19.505  1.00139.82     0.187 C 
HETATM   13  C19 MIQ B 502      -7.663   3.576 -20.993  1.00140.06     0.247 C 
HETATM   14  O25 MIQ B 502      -6.848   4.188 -21.587  1.00143.95    -0.271 OA
HETATM   15  N20 MIQ B 502      -8.422   2.559 -21.690  1.00140.02    -0.296 N 
HETATM   16  H13 MIQ B 502      -8.272   2.378 -22.663  1.00142.77     0.171 HD
HETATM   17  C21 MIQ B 502      -9.419   1.832 -20.946  1.00142.22     0.224 C 
HETATM   18  C22 MIQ B 502     -10.144   2.595 -19.854  1.00139.52     0.106 C 
HETATM   19  O24 MIQ B 502      -9.654   0.697 -21.174  1.00146.13    -0.273 OA
HETATM   20  C23 MIQ B 502      -9.075   3.120 -18.912  1.00139.15     0.045 C 
ENDBRANCH  10  12
BRANCH   5  21
HETATM   21  N6  MIQ B 502      -7.814  11.226 -17.759  1.00140.95    -0.377 N 
HETATM   22  C7  MIQ B 502      -6.626  11.257 -16.923  1.00142.12     0.149 C 
HETATM   23  C8  MIQ B 502      -6.706  12.346 -15.861  1.00144.10     0.187 C 
HETATM   24  O9  MIQ B 502      -7.105  13.581 -16.378  1.00148.65    -0.388 OA
HETATM   25  C10 MIQ B 502      -7.589  13.678 -17.685  1.00147.44     0.187 C 
HETATM   26  C11 MIQ B 502      -8.324  12.482 -18.281  1.00144.08     0.149 C 
ENDBRANCH   5  21
TORSDOF 2
ENDMDL
MODEL 2
REMARK VINA RESULT:      -6.5     21.252     23.865
REMARK  2 active torsions:
REMARK  status: ('A' for Active; 'I' for Inactive)
REMARK    1  A    between atoms: C5_5  and  N6_21 
REMARK    2  A    between atoms: C18_14  and  N17_19 
ROOT
HETATM    1  O1  MIQ B 502     -24.364  13.796  -5.403  1.00142.91    -0.171 OA
HETATM    2  C2  MIQ B 502     -24.008  13.708  -4.056  1.00141.17     0.195 A 
HETATM    3  C3  MIQ B 502     -23.389  12.462  -3.345  1.00141.71     0.035 A 
HETATM    4  C4  MIQ B 502     -23.011  11.107  -3.810  1.00142.86     0.046 A 
HETATM    5  C5  MIQ B 502     -22.455  10.168  -2.905  1.00139.53     0.031 A 
HETATM    6  C12 MIQ B 502     -22.253  10.538  -1.512  1.00139.38     0.030 A 
HETATM    7  C13 MIQ B 502     -22.615  11.838  -1.066  1.00141.18     0.019 A 
HETATM    8  C14 MIQ B 502     -23.196  12.821  -2.021  1.00138.77     0.033 A 
HETATM    9  C15 MIQ B 502     -23.697  14.298  -1.909  1.00142.10     0.195 A 
HETATM   10  N17 MIQ B 502     -24.109  14.636  -3.120  1.00139.42    -0.288 N 
HETATM   11  O16 MIQ B 502     -23.708  15.092  -0.761  1.00148.93    -0.171 OA
ENDROOT
BRANCH  10  12
HETATM   12  C18 MIQ B 502     -24.662  15.950  -3.392  1.00139.82     0.187 C 
HETATM   13  C19 MIQ B 502     -26.029  15.753  -4.060  1.00140.06     0.247 C 
HETATM   14  O25 MIQ B 502     -26.819  15.039  -3.554  1.00143.95    -0.271 OA
HETATM   15  N20 MIQ B 502     -26.379  16.425  -5.294  1.00140.02    -0.296 N 
HETATM   16  H13 MIQ B 502     -27.272  16.283  -5.724  1.00142.77     0.171 HD
HETATM   17  C21 MIQ B 502     -25.393  17.284  -5.898  1.00142.22     0.224 C 
HETATM   18  C22 MIQ B 502     -23.942  16.876  -5.733  1.00139.52     0.106 C 
HETATM   19  O24 MIQ B 502     -25.702  18.260  -6.488  1.00146.13    -0.273 OA
HETATM   20  C23 MIQ B 502     -23.691  16.770  -4.240  1.00139.15     0.045 C 
ENDBRANCH  10  12
BRANCH   5  21
HETATM   21  N6  MIQ B 502     -22.103   8.839  -3.371  1.00140.95    -0.377 N 
HETATM   22  C7  MIQ B 502     -22.384   8.490  -4.754  1.00142.12     0.149 C 
HETATM   23  C8  MIQ B 502     -22.582   6.991  -4.933  1.00144.10     0.187 C 
HETATM   24  O9  MIQ B 502     -21.584   6.233  -4.318  1.00148.65    -0.388 OA
HETATM   25  C10 MIQ B 502     -20.669   6.837  -3.452  1.00147.44     0.187 C 
HETATM   26  C11 MIQ B 502     -21.119   8.053  -2.647  1.00144.08     0.149 C 
ENDBRANCH   5  21
TORSDOF 2
ENDMDL
MODEL 3
REMARK VINA RESULT:      -6.4     21.341     22.631
REMARK  2 active torsions:
REMARK  status: ('A' for Active; 'I' for Inactive)
REMARK    1  A    between atoms: C5_5  and  N6_21 
REMARK    2  A    between atoms: C18_14  and  N17_19 
ROOT
HETATM    1  O1  MIQ B 502     -21.843  11.177  -3.949  1.00142.91    -0.171 OA
HETATM    2  C2  MIQ B 502     -23.218  11.142  -3.703  1.00141.17     0.195 A 
HETATM    3  C3  MIQ B 502     -24.224  12.315  -3.926  1.00141.71     0.035 A 
HETATM    4  C4  MIQ B 502     -24.077  13.705  -4.421  1.00142.86     0.046 A 
HETATM    5  C5  MIQ B 502     -25.207  14.556  -4.515  1.00139.53     0.031 A 
HETATM    6  C12 MIQ B 502     -26.519  14.061  -4.124  1.00139.38     0.030 A 
HETATM    7  C13 MIQ B 502     -26.661  12.728  -3.651  1.00141.18     0.019 A 
HETATM    8  C14 MIQ B 502     -25.471  11.839  -3.556  1.00138.77     0.033 A 
HETATM    9  C15 MIQ B 502     -25.238  10.361  -3.102  1.00142.10     0.195 A 
HETATM   10  N17 MIQ B 502     -23.942  10.135  -3.248  1.00139.42    -0.288 N 
HETATM   11  O16 MIQ B 502     -26.203   9.467  -2.635  1.00148.93    -0.171 OA
ENDROOT
BRANCH  10  12
HETATM   12  C18 MIQ B 502     -23.354   8.854  -2.903  1.00139.82     0.187 C 
HETATM   13  C19 MIQ B 502     -22.167   9.121  -1.969  1.00140.06     0.247 C 
HETATM   14  O25 MIQ B 502     -22.324   9.803  -1.019  1.00143.95    -0.271 OA
HETATM   15  N20 MIQ B 502     -20.858   8.553  -2.216  1.00140.02    -0.296 N 
HETATM   16  H13 MIQ B 502     -20.090   8.740  -1.602  1.00142.77     0.171 HD
HETATM   17  C21 MIQ B 502     -20.689   7.732  -3.387  1.00142.22     0.224 C 
HETATM   18  C22 MIQ B 502     -21.510   8.106  -4.605  1.00139.52     0.106 C 
HETATM   19  O24 MIQ B 502     -19.950   6.809  -3.393  1.00146.13    -0.273 OA
HETATM   20  C23 MIQ B 502     -22.963   8.091  -4.167  1.00139.15     0.045 C 
ENDBRANCH  10  12
BRANCH   5  21
HETATM   21  N6  MIQ B 502     -25.045  15.919  -4.987  1.00140.95    -0.377 N 
HETATM   22  C7  MIQ B 502     -23.841  16.260  -5.725  1.00142.12     0.149 C 
HETATM   23  C8  MIQ B 502     -23.492  17.737  -5.592  1.00144.10     0.187 C 
HETATM   24  O9  MIQ B 502     -24.586  18.576  -5.814  1.00148.65    -0.388 OA
HETATM   25  C10 MIQ B 502     -25.876  18.047  -5.908  1.00147.44     0.187 C 
HETATM   26  C11 MIQ B 502     -26.205  16.783  -5.121  1.00144.08     0.149 C 
ENDBRANCH   5  21
TORSDOF 2
ENDMDL
MODEL 4
REMARK VINA RESULT:      -6.3     21.212     22.369
REMARK  2 active torsions:
REMARK  status: ('A' for Active; 'I' for Inactive)
REMARK    1  A    between atoms: C5_5  and  N6_21 
REMARK    2  A    between atoms: C18_14  and  N17_19 
ROOT
HETATM    1  O1  MIQ B 502     -24.739   9.663  -5.988  1.00142.91    -0.171 OA
HETATM    2  C2  MIQ B 502     -24.042  10.161  -4.885  1.00141.17     0.195 A 
HETATM    3  C3  MIQ B 502     -24.041  11.642  -4.387  1.00141.71     0.035 A 
HETATM    4  C4  MIQ B 502     -24.707  12.877  -4.862  1.00142.86     0.046 A 
HETATM    5  C5  MIQ B 502     -24.508  14.106  -4.182  1.00139.53     0.031 A 
HETATM    6  C12 MIQ B 502     -23.646  14.151  -3.010  1.00139.38     0.030 A 
HETATM    7  C13 MIQ B 502     -23.008  12.966  -2.554  1.00141.18     0.019 A 
HETATM    8  C14 MIQ B 502     -23.222  11.680  -3.270  1.00138.77     0.033 A 
HETATM    9  C15 MIQ B 502     -22.712  10.214  -3.074  1.00142.10     0.195 A 
HETATM   10  N17 MIQ B 502     -23.260   9.504  -4.046  1.00139.42    -0.288 N 
HETATM   11  O16 MIQ B 502     -21.852   9.755  -2.076  1.00148.93    -0.171 OA
ENDROOT
BRANCH  10  12
HETATM   12  C18 MIQ B 502     -22.995   8.085  -4.189  1.00139.82     0.187 C 
HETATM   13  C19 MIQ B 502     -23.225   7.426  -2.824  1.00140.06     0.247 C 
HETATM   14  O25 MIQ B 502     -24.234   7.629  -2.249  1.00143.95    -0.271 OA
HETATM   15  N20 MIQ B 502     -22.237   6.554  -2.220  1.00140.02    -0.296 N 
HETATM   16  H13 MIQ B 502     -22.397   6.135  -1.325  1.00142.77     0.171 HD
HETATM   17  C21 MIQ B 502     -21.008   6.330  -2.937  1.00142.22     0.224 C 
HETATM   18  C22 MIQ B 502     -20.481   7.486  -3.764  1.00139.52     0.106 C 
HETATM   19  O24 MIQ B 502     -20.443   5.293  -2.884  1.00146.13    -0.273 OA
HETATM   20  C23 MIQ B 502     -21.586   7.860  -4.736  1.00139.15     0.045 C 
ENDBRANCH  10  12
BRANCH   5  21
HETATM   21  N6  MIQ B 502     -25.155  15.311  -4.667  1.00140.95    -0.377 N 
HETATM   22  C7  MIQ B 502     -26.269  15.855  -3.909  1.00142.12     0.149 C 
HETATM   23  C8  MIQ B 502     -27.220  16.655  -4.790  1.00144.10     0.187 C 
HETATM   24  O9  MIQ B 502     -26.559  17.565  -5.616  1.00148.65    -0.388 OA
HETATM   25  C10 MIQ B 502     -25.168  17.527  -5.741  1.00147.44     0.187 C 
HETATM   26  C11 MIQ B 502     -24.459  16.185  -5.595  1.00144.08     0.149 C 
ENDBRANCH   5  21
TORSDOF 2
ENDMDL
MODEL 5
REMARK VINA RESULT:      -6.2      3.355      8.398
REMARK  2 active torsions:
REMARK  status: ('A' for Active; 'I' for Inactive)
REMARK    1  A    between atoms: C5_5  and  N6_21 
REMARK    2  A    between atoms: C18_14  and  N17_19 
ROOT
HETATM    1  O1  MIQ B 502      -7.042   8.080 -19.453  1.00142.91    -0.171 OA
HETATM    2  C2  MIQ B 502      -8.037   9.046 -19.294  1.00141.17     0.195 A 
HETATM    3  C3  MIQ B 502      -9.549   8.883 -19.654  1.00141.71     0.035 A 
HETATM    4  C4  MIQ B 502     -10.346   7.769 -20.220  1.00142.86     0.046 A 
HETATM    5  C5  MIQ B 502     -11.739   7.924 -20.438  1.00139.53     0.031 A 
HETATM    6  C12 MIQ B 502     -12.387   9.184 -20.103  1.00139.38     0.030 A 
HETATM    7  C13 MIQ B 502     -11.623  10.251 -19.559  1.00141.18     0.019 A 
HETATM    8  C14 MIQ B 502     -10.162  10.082 -19.330  1.00138.77     0.033 A 
HETATM    9  C15 MIQ B 502      -9.025  10.995 -18.765  1.00142.10     0.195 A 
HETATM   10  N17 MIQ B 502      -7.919  10.272 -18.812  1.00139.42    -0.288 N 
HETATM   11  O16 MIQ B 502      -9.156  12.308 -18.309  1.00148.93    -0.171 OA
ENDROOT
BRANCH  10  12
HETATM   12  C18 MIQ B 502      -6.643  10.809 -18.375  1.00139.82     0.187 C 
HETATM   13  C19 MIQ B 502      -6.824  11.342 -16.948  1.00140.06     0.247 C 
HETATM   14  O25 MIQ B 502      -7.311  10.644 -16.131  1.00143.95    -0.271 OA
HETATM   15  N20 MIQ B 502      -6.407  12.677 -16.573  1.00140.02    -0.296 N 
HETATM   16  H13 MIQ B 502      -6.537  13.015 -15.640  1.00142.77     0.171 HD
HETATM   17  C21 MIQ B 502      -5.825  13.513 -17.591  1.00142.22     0.224 C 
HETATM   18  C22 MIQ B 502      -6.351  13.335 -19.002  1.00139.52     0.106 C 
HETATM   19  O24 MIQ B 502      -4.975  14.295 -17.338  1.00146.13    -0.273 OA
HETATM   20  C23 MIQ B 502      -6.151  11.872 -19.356  1.00139.15     0.045 C 
ENDBRANCH  10  12
BRANCH   5  21
HETATM   21  N6  MIQ B 502     -12.505   6.831 -21.007  1.00140.95    -0.377 N 
HETATM   22  C7  MIQ B 502     -13.372   7.106 -22.140  1.00142.12     0.149 C 
HETATM   23  C8  MIQ B 502     -14.536   6.126 -22.217  1.00144.10     0.187 C 
HETATM   24  O9  MIQ B 502     -14.136   4.795 -22.080  1.00148.65    -0.388 OA
HETATM   25  C10 MIQ B 502     -12.833   4.485 -21.683  1.00147.44     0.187 C 
HETATM   26  C11 MIQ B 502     -12.099   5.457 -20.766  1.00144.08     0.149 C 
ENDBRANCH   5  21
TORSDOF 2
ENDMDL
MODEL 6
REMARK VINA RESULT:      -6.2      1.996      8.365
REMARK  2 active torsions:
REMARK  status: ('A' for Active; 'I' for Inactive)
REMARK    1  A    between atoms: C5_5  and  N6_21 
REMARK    2  A    between atoms: C18_14  and  N17_19 
ROOT
HETATM    1  O1  MIQ B 502     -10.362   8.689 -20.396  1.00142.91    -0.171 OA
HETATM    2  C2  MIQ B 502      -9.296   8.014 -19.796  1.00141.17     0.195 A 
HETATM    3  C3  MIQ B 502      -9.085   6.467 -19.763  1.00141.71     0.035 A 
HETATM    4  C4  MIQ B 502      -9.857   5.322 -20.301  1.00142.86     0.046 A 
HETATM    5  C5  MIQ B 502      -9.398   3.994 -20.108  1.00139.53     0.031 A 
HETATM    6  C12 MIQ B 502      -8.162   3.756 -19.377  1.00139.38     0.030 A 
HETATM    7  C13 MIQ B 502      -7.421   4.854 -18.862  1.00141.18     0.019 A 
HETATM    8  C14 MIQ B 502      -7.906   6.246 -19.070  1.00138.77     0.033 A 
HETATM    9  C15 MIQ B 502      -7.383   7.664 -18.670  1.00142.10     0.195 A 
HETATM   10  N17 MIQ B 502      -8.263   8.527 -19.149  1.00139.42    -0.288 N 
HETATM   11  O16 MIQ B 502      -6.222   7.954 -17.951  1.00148.93    -0.171 OA
ENDROOT
BRANCH  10  12
HETATM   12  C18 MIQ B 502      -8.108   9.956 -18.952  1.00139.82     0.187 C 
HETATM   13  C19 MIQ B 502      -6.702  10.343 -19.427  1.00140.06     0.247 C 
HETATM   14  O25 MIQ B 502      -6.344  10.005 -20.499  1.00143.95    -0.271 OA
HETATM   15  N20 MIQ B 502      -5.803  11.120 -18.599  1.00140.02    -0.296 N 
HETATM   16  H13 MIQ B 502      -4.885  11.361 -18.918  1.00142.77     0.171 HD
HETATM   17  C21 MIQ B 502      -6.260  11.512 -17.291  1.00142.22     0.224 C 
HETATM   18  C22 MIQ B 502      -7.183  10.546 -16.574  1.00139.52     0.106 C 
HETATM   19  O24 MIQ B 502      -5.934  12.538 -16.804  1.00146.13    -0.273 OA
HETATM   20  C23 MIQ B 502      -8.371  10.323 -17.492  1.00139.15     0.045 C 
ENDBRANCH  10  12
BRANCH   5  21
HETATM   21  N6  MIQ B 502     -10.172   2.881 -20.627  1.00140.95    -0.377 N 
HETATM   22  C7  MIQ B 502     -11.461   3.157 -21.238  1.00142.12     0.149 C 
HETATM   23  C8  MIQ B 502     -12.403   1.963 -21.141  1.00144.10     0.187 C 
HETATM   24  O9  MIQ B 502     -11.802   0.764 -21.530  1.00148.65    -0.388 OA
HETATM   25  C10 MIQ B 502     -10.423   0.701 -21.745  1.00147.44     0.187 C 
HETATM   26  C11 MIQ B 502      -9.516   1.623 -20.937  1.00144.08     0.149 C 
ENDBRANCH   5  21
TORSDOF 2
ENDMDL
MODEL 7
REMARK VINA RESULT:      -6.2      2.022      8.333
REMARK  2 active torsions:
REMARK  status: ('A' for Active; 'I' for Inactive)
REMARK    1  A    between atoms: C5_5  and  N6_21 
REMARK    2  A    between atoms: C18_14  and  N17_19 
ROOT
HETATM    1  O1  MIQ B 502     -10.218   8.924 -20.621  1.00142.91    -0.171 OA
HETATM    2  C2  MIQ B 502      -9.188   8.258 -19.953  1.00141.17     0.195 A 
HETATM    3  C3  MIQ B 502      -9.004   6.711 -19.852  1.00141.71     0.035 A 
HETATM    4  C4  MIQ B 502      -9.772   5.557 -20.376  1.00142.86     0.046 A 
HETATM    5  C5  MIQ B 502      -9.343   4.231 -20.113  1.00139.53     0.031 A 
HETATM    6  C12 MIQ B 502      -8.141   4.004 -19.324  1.00139.38     0.030 A 
HETATM    7  C13 MIQ B 502      -7.403   5.110 -18.822  1.00141.18     0.019 A 
HETATM    8  C14 MIQ B 502      -7.857   6.499 -19.104  1.00138.77     0.033 A 
HETATM    9  C15 MIQ B 502      -7.326   7.924 -18.739  1.00142.10     0.195 A 
HETATM   10  N17 MIQ B 502      -8.173   8.781 -19.286  1.00139.42    -0.288 N 
HETATM   11  O16 MIQ B 502      -6.190   8.225 -17.986  1.00148.93    -0.171 OA
ENDROOT
BRANCH  10  12
HETATM   12  C18 MIQ B 502      -8.002  10.214 -19.138  1.00139.82     0.187 C 
HETATM   13  C19 MIQ B 502      -6.584  10.566 -19.604  1.00140.06     0.247 C 
HETATM   14  O25 MIQ B 502      -6.212  10.185 -20.657  1.00143.95    -0.271 OA
HETATM   15  N20 MIQ B 502      -5.688  11.361 -18.790  1.00140.02    -0.296 N 
HETATM   16  H13 MIQ B 502      -4.762  11.579 -19.102  1.00142.77     0.171 HD
HETATM   17  C21 MIQ B 502      -6.161  11.806 -17.504  1.00142.22     0.224 C 
HETATM   18  C22 MIQ B 502      -7.108  10.879 -16.768  1.00139.52     0.106 C 
HETATM   19  O24 MIQ B 502      -5.830  12.846 -17.050  1.00146.13    -0.273 OA
HETATM   20  C23 MIQ B 502      -8.284  10.637 -17.697  1.00139.15     0.045 C 
ENDBRANCH  10  12
BRANCH   5  21
HETATM   21  N6  MIQ B 502     -10.114   3.110 -20.619  1.00140.95    -0.377 N 
HETATM   22  C7  MIQ B 502      -9.517   1.786 -20.588  1.00142.12     0.149 C 
HETATM   23  C8  MIQ B 502     -10.090   0.878 -21.669  1.00144.10     0.187 C 
HETATM   24  O9  MIQ B 502     -11.485   0.903 -21.716  1.00148.65    -0.388 OA
HETATM   25  C10 MIQ B 502     -12.201   1.854 -20.985  1.00147.44     0.187 C 
HETATM   26  C11 MIQ B 502     -11.559   3.214 -20.731  1.00144.08     0.149 C 
ENDBRANCH   5  21
TORSDOF 2
ENDMDL
MODEL 8
REMARK VINA RESULT:      -6.2      1.384      2.491
REMARK  2 active torsions:
REMARK  status: ('A' for Active; 'I' for Inactive)
REMARK    1  A    between atoms: C5_5  and  N6_21 
REMARK    2  A    between atoms: C18_14  and  N17_19 
ROOT
HETATM    1  O1  MIQ B 502     -10.937   6.998 -20.740  1.00142.91    -0.171 OA
HETATM    2  C2  MIQ B 502      -9.727   6.530 -20.222  1.00141.17     0.195 A 
HETATM    3  C3  MIQ B 502      -8.674   7.372 -19.433  1.00141.71     0.035 A 
HETATM    4  C4  MIQ B 502      -8.613   8.792 -19.013  1.00142.86     0.046 A 
HETATM    5  C5  MIQ B 502      -7.497   9.277 -18.286  1.00139.53     0.031 A 
HETATM    6  C12 MIQ B 502      -6.405   8.374 -17.951  1.00139.38     0.030 A 
HETATM    7  C13 MIQ B 502      -6.464   7.012 -18.352  1.00141.18     0.019 A 
HETATM    8  C14 MIQ B 502      -7.640   6.508 -19.113  1.00138.77     0.033 A 
HETATM    9  C15 MIQ B 502      -8.053   5.122 -19.706  1.00142.10     0.195 A 
HETATM   10  N17 MIQ B 502      -9.229   5.306 -20.282  1.00139.42    -0.288 N 
HETATM   11  O16 MIQ B 502      -7.323   3.934 -19.641  1.00148.93    -0.171 OA
ENDROOT
BRANCH  10  12
HETATM   12  C18 MIQ B 502      -9.920   4.224 -20.959  1.00139.82     0.187 C 
HETATM   13  C19 MIQ B 502      -9.982   3.034 -19.994  1.00140.06     0.247 C 
HETATM   14  O25 MIQ B 502     -10.390   3.200 -18.900  1.00143.95    -0.271 OA
HETATM   15  N20 MIQ B 502      -9.559   1.706 -20.391  1.00140.02    -0.296 N 
HETATM   16  H13 MIQ B 502      -9.598   0.939 -19.750  1.00142.77     0.171 HD
HETATM   17  C21 MIQ B 502      -9.055   1.531 -21.729  1.00142.22     0.224 C 
HETATM   18  C22 MIQ B 502      -8.292   2.697 -22.328  1.00139.52     0.106 C 
HETATM   19  O24 MIQ B 502      -9.234   0.529 -22.330  1.00146.13    -0.273 OA
HETATM   20  C23 MIQ B 502      -9.225   3.893 -22.278  1.00139.15     0.045 C 
ENDBRANCH  10  12
BRANCH   5  21
HETATM   21  N6  MIQ B 502      -7.444  10.674 -17.894  1.00140.95    -0.377 N 
HETATM   22  C7  MIQ B 502      -6.334  11.122 -17.071  1.00142.12     0.149 C 
HETATM   23  C8  MIQ B 502      -6.704  12.337 -16.230  1.00144.10     0.187 C 
HETATM   24  O9  MIQ B 502      -7.341  13.336 -16.969  1.00148.65    -0.388 OA
HETATM   25  C10 MIQ B 502      -7.771  13.085 -18.274  1.00147.44     0.187 C 
HETATM   26  C11 MIQ B 502      -8.193  11.667 -18.644  1.00144.08     0.149 C 
ENDBRANCH   5  21
TORSDOF 2
ENDMDL
MODEL 9
REMARK VINA RESULT:      -6.1     21.008     23.065
REMARK  2 active torsions:
REMARK  status: ('A' for Active; 'I' for Inactive)
REMARK    1  A    between atoms: C5_5  and  N6_21 
REMARK    2  A    between atoms: C18_14  and  N17_19 
ROOT
HETATM    1  O1  MIQ B 502     -22.468  11.834  -0.919  1.00142.91    -0.171 OA
HETATM    2  C2  MIQ B 502     -22.858  11.366  -2.176  1.00141.17     0.195 A 
HETATM    3  C3  MIQ B 502     -22.378  10.045  -2.858  1.00141.71     0.035 A 
HETATM    4  C4  MIQ B 502     -21.454   8.963  -2.445  1.00142.86     0.046 A 
HETATM    5  C5  MIQ B 502     -21.214   7.859  -3.303  1.00139.53     0.031 A 
HETATM    6  C12 MIQ B 502     -21.880   7.791  -4.595  1.00139.38     0.030 A 
HETATM    7  C13 MIQ B 502     -22.767   8.828  -4.991  1.00141.18     0.019 A 
HETATM    8  C14 MIQ B 502     -23.017   9.982  -4.086  1.00138.77     0.033 A 
HETATM    9  C15 MIQ B 502     -23.899  11.271  -4.166  1.00142.10     0.195 A 
HETATM   10  N17 MIQ B 502     -23.697  11.923  -3.032  1.00139.42    -0.288 N 
HETATM   11  O16 MIQ B 502     -24.726  11.653  -5.223  1.00148.93    -0.171 OA
ENDROOT
BRANCH  10  12
HETATM   12  C18 MIQ B 502     -24.350  13.190  -2.761  1.00139.82     0.187 C 
HETATM   13  C19 MIQ B 502     -25.850  13.009  -3.022  1.00140.06     0.247 C 
HETATM   14  O25 MIQ B 502     -26.417  12.105  -2.520  1.00143.95    -0.271 OA
HETATM   15  N20 MIQ B 502     -26.593  13.922  -3.866  1.00140.02    -0.296 N 
HETATM   16  H13 MIQ B 502     -27.571  13.789  -4.034  1.00142.77     0.171 HD
HETATM   17  C21 MIQ B 502     -25.877  15.012  -4.477  1.00142.22     0.224 C 
HETATM   18  C22 MIQ B 502     -24.435  14.746  -4.865  1.00139.52     0.106 C 
HETATM   19  O24 MIQ B 502     -26.387  16.062  -4.660  1.00146.13    -0.273 OA
HETATM   20  C23 MIQ B 502     -23.723  14.302  -3.601  1.00139.15     0.045 C 
ENDBRANCH  10  12
BRANCH   5  21
HETATM   21  N6  MIQ B 502     -20.295   6.814  -2.892  1.00140.95    -0.377 N 
HETATM   22  C7  MIQ B 502     -20.763   5.804  -1.958  1.00142.12     0.149 C 
HETATM   23  C8  MIQ B 502     -19.622   5.208  -1.144  1.00144.10     0.187 C 
HETATM   24  O9  MIQ B 502     -18.531   4.833  -1.932  1.00148.65    -0.388 OA
HETATM   25  C10 MIQ B 502     -18.466   5.208  -3.276  1.00147.44     0.187 C 
HETATM   26  C11 MIQ B 502     -19.125   6.517  -3.701  1.00144.08     0.149 C 
ENDBRANCH   5  21
TORSDOF 2
ENDMDL
