MODEL 1
REMARK VINA RESULT:      -7.3      0.000      0.000
REMARK  2 active torsions:
REMARK  status: ('A' for Active; 'I' for Inactive)
REMARK    1  A    between atoms: C5_5  and  N6_21 
REMARK    2  A    between atoms: C18_14  and  N17_19 
ROOT
HETATM    1  O1  MIQ B 502      17.296   7.357  -7.223  1.00142.91    -0.171 OA
HETATM    2  C2  MIQ B 502      16.052   6.923  -6.761  1.00141.17     0.195 A 
HETATM    3  C3  MIQ B 502      15.410   7.267  -5.380  1.00141.71     0.035 A 
HETATM    4  C4  MIQ B 502      15.853   8.083  -4.225  1.00142.86     0.046 A 
HETATM    5  C5  MIQ B 502      15.028   8.213  -3.080  1.00139.53     0.031 A 
HETATM    6  C12 MIQ B 502      13.737   7.541  -3.039  1.00139.38     0.030 A 
HETATM    7  C13 MIQ B 502      13.310   6.760  -4.147  1.00141.18     0.019 A 
HETATM    8  C14 MIQ B 502      14.180   6.629  -5.348  1.00138.77     0.033 A 
HETATM    9  C15 MIQ B 502      14.059   5.884  -6.717  1.00142.10     0.195 A 
HETATM   10  N17 MIQ B 502      15.173   6.152  -7.379  1.00139.42    -0.288 N 
HETATM   11  O16 MIQ B 502      12.990   5.096  -7.148  1.00148.93    -0.171 OA
ENDROOT
BRANCH  10  12
HETATM   12  C18 MIQ B 502      15.418   5.608  -8.701  1.00139.82     0.187 C 
HETATM   13  C19 MIQ B 502      14.224   5.980  -9.589  1.00140.06     0.247 C 
HETATM   14  O25 MIQ B 502      13.869   7.104  -9.634  1.00143.95    -0.271 OA
HETATM   15  N20 MIQ B 502      13.522   4.989 -10.380  1.00140.02    -0.296 N 
HETATM   16  H13 MIQ B 502      12.740   5.244 -10.950  1.00142.77     0.171 HD
HETATM   17  C21 MIQ B 502      13.968   3.622 -10.299  1.00142.22     0.224 C 
HETATM   18  C22 MIQ B 502      14.517   3.162  -8.962  1.00139.52     0.106 C 
HETATM   19  O24 MIQ B 502      13.913   2.899 -11.232  1.00146.13    -0.273 OA
HETATM   20  C23 MIQ B 502      15.660   4.101  -8.619  1.00139.15     0.045 C 
ENDBRANCH  10  12
BRANCH   5  21
HETATM   21  N6  MIQ B 502      15.482   9.003  -1.950  1.00140.95    -0.377 N 
HETATM   22  C7  MIQ B 502      14.542   9.287  -0.879  1.00142.12     0.149 C 
HETATM   23  C8  MIQ B 502      14.890  10.575  -0.143  1.00144.10     0.187 C 
HETATM   24  O9  MIQ B 502      16.239  10.651   0.211  1.00148.65    -0.388 OA
HETATM   25  C10 MIQ B 502      17.156   9.725  -0.294  1.00147.44     0.187 C 
HETATM   26  C11 MIQ B 502      16.902   9.123  -1.672  1.00144.08     0.149 C 
ENDBRANCH   5  21
TORSDOF 2
ENDMDL
MODEL 2
REMARK VINA RESULT:      -7.0     12.123     13.943
REMARK  2 active torsions:
REMARK  status: ('A' for Active; 'I' for Inactive)
REMARK    1  A    between atoms: C5_5  and  N6_21 
REMARK    2  A    between atoms: C18_14  and  N17_19 
ROOT
HETATM    1  O1  MIQ B 502      12.605  -3.524 -11.213  1.00142.91    -0.171 OA
HETATM    2  C2  MIQ B 502      13.890  -3.913 -10.828  1.00141.17     0.195 A 
HETATM    3  C3  MIQ B 502      15.223  -3.539 -11.551  1.00141.71     0.035 A 
HETATM    4  C4  MIQ B 502      15.538  -2.732 -12.754  1.00142.86     0.046 A 
HETATM    5  C5  MIQ B 502      16.882  -2.567 -13.175  1.00139.53     0.031 A 
HETATM    6  C12 MIQ B 502      17.957  -3.195 -12.420  1.00139.38     0.030 A 
HETATM    7  C13 MIQ B 502      17.656  -3.968 -11.267  1.00141.18     0.019 A 
HETATM    8  C14 MIQ B 502      16.243  -4.136 -10.829  1.00138.77     0.033 A 
HETATM    9  C15 MIQ B 502      15.540  -4.884  -9.649  1.00142.10     0.195 A 
HETATM   10  N17 MIQ B 502      14.244  -4.658  -9.795  1.00139.42    -0.288 N 
HETATM   11  O16 MIQ B 502      16.158  -5.638  -8.651  1.00148.93    -0.171 OA
ENDROOT
BRANCH  10  12
HETATM   12  C18 MIQ B 502      13.270  -5.218  -8.877  1.00139.82     0.187 C 
HETATM   13  C19 MIQ B 502      13.689  -4.828  -7.454  1.00140.06     0.247 C 
HETATM   14  O25 MIQ B 502      13.922  -3.697  -7.212  1.00143.95    -0.271 OA
HETATM   15  N20 MIQ B 502      13.802  -5.809  -6.395  1.00140.02    -0.296 N 
HETATM   16  H13 MIQ B 502      14.082  -5.542  -5.472  1.00142.77     0.171 HD
HETATM   17  C21 MIQ B 502      13.522  -7.185  -6.717  1.00142.22     0.224 C 
HETATM   18  C22 MIQ B 502      13.890  -7.645  -8.114  1.00139.52     0.106 C 
HETATM   19  O24 MIQ B 502      13.026  -7.915  -5.931  1.00146.13    -0.273 OA
HETATM   20  C23 MIQ B 502      13.158  -6.729  -9.077  1.00139.15     0.045 C 
ENDBRANCH  10  12
BRANCH   5  21
HETATM   21  N6  MIQ B 502      17.175  -1.786 -14.362  1.00140.95    -0.377 N 
HETATM   22  C7  MIQ B 502      18.503  -1.216 -14.509  1.00142.12     0.149 C 
HETATM   23  C8  MIQ B 502      18.492   0.035 -15.378  1.00144.10     0.187 C 
HETATM   24  O9  MIQ B 502      17.782  -0.136 -16.568  1.00148.65    -0.388 OA
HETATM   25  C10 MIQ B 502      16.995  -1.274 -16.765  1.00147.44     0.187 C 
HETATM   26  C11 MIQ B 502      16.353  -1.936 -15.551  1.00144.08     0.149 C 
ENDBRANCH   5  21
TORSDOF 2
ENDMDL
MODEL 3
REMARK VINA RESULT:      -6.9      1.441      2.293
REMARK  2 active torsions:
REMARK  status: ('A' for Active; 'I' for Inactive)
REMARK    1  A    between atoms: C5_5  and  N6_21 
REMARK    2  A    between atoms: C18_14  and  N17_19 
ROOT
HETATM    1  O1  MIQ B 502      14.133   4.870  -6.565  1.00142.91    -0.171 OA
HETATM    2  C2  MIQ B 502      14.730   6.031  -7.063  1.00141.17     0.195 A 
HETATM    3  C3  MIQ B 502      15.351   7.185  -6.214  1.00141.71     0.035 A 
HETATM    4  C4  MIQ B 502      15.502   7.411  -4.756  1.00142.86     0.046 A 
HETATM    5  C5  MIQ B 502      16.129   8.588  -4.275  1.00139.53     0.031 A 
HETATM    6  C12 MIQ B 502      16.626   9.579  -5.218  1.00139.38     0.030 A 
HETATM    7  C13 MIQ B 502      16.482   9.363  -6.615  1.00141.18     0.019 A 
HETATM    8  C14 MIQ B 502      15.826   8.124  -7.115  1.00138.77     0.033 A 
HETATM    9  C15 MIQ B 502      15.499   7.549  -8.531  1.00142.10     0.195 A 
HETATM   10  N17 MIQ B 502      14.898   6.389  -8.324  1.00139.42    -0.288 N 
HETATM   11  O16 MIQ B 502      15.783   8.144  -9.761  1.00148.93    -0.171 OA
ENDROOT
BRANCH  10  12
HETATM   12  C18 MIQ B 502      14.431   5.570  -9.428  1.00139.82     0.187 C 
HETATM   13  C19 MIQ B 502      12.966   5.210  -9.156  1.00140.06     0.247 C 
HETATM   14  O25 MIQ B 502      12.201   6.068  -8.891  1.00143.95    -0.271 OA
HETATM   15  N20 MIQ B 502      12.490   3.843  -9.221  1.00140.02    -0.296 N 
HETATM   16  H13 MIQ B 502      11.532   3.620  -9.035  1.00142.77     0.171 HD
HETATM   17  C21 MIQ B 502      13.445   2.811  -9.536  1.00142.22     0.224 C 
HETATM   18  C22 MIQ B 502      14.861   3.017  -9.034  1.00139.52     0.106 C 
HETATM   19  O24 MIQ B 502      13.138   1.855 -10.160  1.00146.13    -0.273 OA
HETATM   20  C23 MIQ B 502      15.330   4.346  -9.598  1.00139.15     0.045 C 
ENDBRANCH  10  12
BRANCH   5  21
HETATM   21  N6  MIQ B 502      16.256   8.803  -2.845  1.00140.95    -0.377 N 
HETATM   22  C7  MIQ B 502      15.047   8.918  -2.049  1.00142.12     0.149 C 
HETATM   23  C8  MIQ B 502      15.271   9.746  -0.790  1.00144.10     0.187 C 
HETATM   24  O9  MIQ B 502      16.415   9.365  -0.086  1.00148.65    -0.388 OA
HETATM   25  C10 MIQ B 502      17.333   8.478  -0.653  1.00147.44     0.187 C 
HETATM   26  C11 MIQ B 502      17.499   8.471  -2.169  1.00144.08     0.149 C 
ENDBRANCH   5  21
TORSDOF 2
ENDMDL
MODEL 4
REMARK VINA RESULT:      -6.9      1.924      2.219
REMARK  2 active torsions:
REMARK  status: ('A' for Active; 'I' for Inactive)
REMARK    1  A    between atoms: C5_5  and  N6_21 
REMARK    2  A    between atoms: C18_14  and  N17_19 
ROOT
HETATM    1  O1  MIQ B 502      14.306   8.906  -8.281  1.00142.91    -0.171 OA
HETATM    2  C2  MIQ B 502      14.002   7.988  -7.273  1.00141.17     0.195 A 
HETATM    3  C3  MIQ B 502      13.917   8.292  -5.743  1.00141.71     0.035 A 
HETATM    4  C4  MIQ B 502      14.107   9.521  -4.937  1.00142.86     0.046 A 
HETATM    5  C5  MIQ B 502      13.957   9.484  -3.527  1.00139.53     0.031 A 
HETATM    6  C12 MIQ B 502      13.616   8.230  -2.870  1.00139.38     0.030 A 
HETATM    7  C13 MIQ B 502      13.433   7.052  -3.643  1.00141.18     0.019 A 
HETATM    8  C14 MIQ B 502      13.589   7.098  -5.123  1.00138.77     0.033 A 
HETATM    9  C15 MIQ B 502      13.468   6.047  -6.274  1.00142.10     0.195 A 
HETATM   10  N17 MIQ B 502      13.723   6.701  -7.395  1.00139.42    -0.288 N 
HETATM   11  O16 MIQ B 502      13.156   4.693  -6.140  1.00148.93    -0.171 OA
ENDROOT
BRANCH  10  12
HETATM   12  C18 MIQ B 502      13.717   6.031  -8.681  1.00139.82     0.187 C 
HETATM   13  C19 MIQ B 502      12.384   5.285  -8.813  1.00140.06     0.247 C 
HETATM   14  O25 MIQ B 502      11.376   5.865  -8.614  1.00143.95    -0.271 OA
HETATM   15  N20 MIQ B 502      12.325   3.885  -9.182  1.00140.02    -0.296 N 
HETATM   16  H13 MIQ B 502      11.449   3.407  -9.258  1.00142.77     0.171 HD
HETATM   17  C21 MIQ B 502      13.569   3.195  -9.409  1.00142.22     0.224 C 
HETATM   18  C22 MIQ B 502      14.753   3.629  -8.567  1.00139.52     0.106 C 
HETATM   19  O24 MIQ B 502      13.661   2.337 -10.217  1.00146.13    -0.273 OA
HETATM   20  C23 MIQ B 502      14.934   5.116  -8.810  1.00139.15     0.045 C 
ENDBRANCH  10  12
BRANCH   5  21
HETATM   21  N6  MIQ B 502      14.160  10.692  -2.749  1.00140.95    -0.377 N 
HETATM   22  C7  MIQ B 502      13.448  11.897  -3.137  1.00142.12     0.149 C 
HETATM   23  C8  MIQ B 502      14.188  13.158  -2.709  1.00144.10     0.187 C 
HETATM   24  O9  MIQ B 502      14.608  13.116  -1.379  1.00148.65    -0.388 OA
HETATM   25  C10 MIQ B 502      14.534  11.926  -0.650  1.00147.44     0.187 C 
HETATM   26  C11 MIQ B 502      14.682  10.604  -1.396  1.00144.08     0.149 C 
ENDBRANCH   5  21
TORSDOF 2
ENDMDL
MODEL 5
REMARK VINA RESULT:      -6.9      1.681      2.519
REMARK  2 active torsions:
REMARK  status: ('A' for Active; 'I' for Inactive)
REMARK    1  A    between atoms: C5_5  and  N6_21 
REMARK    2  A    between atoms: C18_14  and  N17_19 
ROOT
HETATM    1  O1  MIQ B 502      16.056   6.618  -6.537  1.00142.91    -0.171 OA
HETATM    2  C2  MIQ B 502      15.002   6.864  -5.655  1.00141.17     0.195 A 
HETATM    3  C3  MIQ B 502      15.120   7.490  -4.229  1.00141.71     0.035 A 
HETATM    4  C4  MIQ B 502      16.263   7.981  -3.423  1.00142.86     0.046 A 
HETATM    5  C5  MIQ B 502      16.049   8.511  -2.125  1.00139.53     0.031 A 
HETATM    6  C12 MIQ B 502      14.700   8.573  -1.583  1.00139.38     0.030 A 
HETATM    7  C13 MIQ B 502      13.604   8.103  -2.356  1.00141.18     0.019 A 
HETATM    8  C14 MIQ B 502      13.833   7.550  -3.718  1.00138.77     0.033 A 
HETATM    9  C15 MIQ B 502      12.911   6.960  -4.834  1.00142.10     0.195 A 
HETATM   10  N17 MIQ B 502      13.713   6.633  -5.835  1.00139.42    -0.288 N 
HETATM   11  O16 MIQ B 502      11.525   6.808  -4.780  1.00148.93    -0.171 OA
ENDROOT
BRANCH  10  12
HETATM   12  C18 MIQ B 502      13.199   6.032  -7.052  1.00139.82     0.187 C 
HETATM   13  C19 MIQ B 502      13.435   4.519  -6.963  1.00140.06     0.247 C 
HETATM   14  O25 MIQ B 502      13.080   3.937  -6.000  1.00143.95    -0.271 OA
HETATM   15  N20 MIQ B 502      14.077   3.782  -8.032  1.00140.02    -0.296 N 
HETATM   16  H13 MIQ B 502      14.231   2.796  -7.958  1.00142.77     0.171 HD
HETATM   17  C21 MIQ B 502      14.511   4.517  -9.192  1.00142.22     0.224 C 
HETATM   18  C22 MIQ B 502      14.992   5.937  -8.958  1.00139.52     0.106 C 
HETATM   19  O24 MIQ B 502      14.488   4.038 -10.271  1.00146.13    -0.273 OA
HETATM   20  C23 MIQ B 502      13.851   6.671  -8.277  1.00139.15     0.045 C 
ENDBRANCH  10  12
BRANCH   5  21
HETATM   21  N6  MIQ B 502      17.180   8.974  -1.341  1.00140.95    -0.377 N 
HETATM   22  C7  MIQ B 502      17.161  10.335  -0.832  1.00142.12     0.149 C 
HETATM   23  C8  MIQ B 502      18.566  10.884  -0.623  1.00144.10     0.187 C 
HETATM   24  O9  MIQ B 502      19.398  10.000   0.068  1.00148.65    -0.388 OA
HETATM   25  C10 MIQ B 502      18.992   8.683   0.301  1.00147.44     0.187 C 
HETATM   26  C11 MIQ B 502      18.069   8.014  -0.711  1.00144.08     0.149 C 
ENDBRANCH   5  21
TORSDOF 2
ENDMDL
MODEL 6
REMARK VINA RESULT:      -6.8      2.587      3.181
REMARK  2 active torsions:
REMARK  status: ('A' for Active; 'I' for Inactive)
REMARK    1  A    between atoms: C5_5  and  N6_21 
REMARK    2  A    between atoms: C18_14  and  N17_19 
ROOT
HETATM    1  O1  MIQ B 502      16.423   7.405  -6.215  1.00142.91    -0.171 OA
HETATM    2  C2  MIQ B 502      15.369   7.506  -5.304  1.00141.17     0.195 A 
HETATM    3  C3  MIQ B 502      15.485   7.909  -3.800  1.00141.71     0.035 A 
HETATM    4  C4  MIQ B 502      16.625   8.282  -2.930  1.00142.86     0.046 A 
HETATM    5  C5  MIQ B 502      16.411   8.607  -1.566  1.00139.53     0.031 A 
HETATM    6  C12 MIQ B 502      15.062   8.575  -1.020  1.00139.38     0.030 A 
HETATM    7  C13 MIQ B 502      13.968   8.218  -1.854  1.00141.18     0.019 A 
HETATM    8  C14 MIQ B 502      14.199   7.880  -3.285  1.00138.77     0.033 A 
HETATM    9  C15 MIQ B 502      13.280   7.458  -4.477  1.00142.10     0.195 A 
HETATM   10  N17 MIQ B 502      14.081   7.293  -5.516  1.00139.42    -0.288 N 
HETATM   11  O16 MIQ B 502      11.894   7.287  -4.444  1.00148.93    -0.171 OA
ENDROOT
BRANCH  10  12
HETATM   12  C18 MIQ B 502      13.570   6.880  -6.809  1.00139.82     0.187 C 
HETATM   13  C19 MIQ B 502      12.445   7.847  -7.198  1.00140.06     0.247 C 
HETATM   14  O25 MIQ B 502      12.644   9.009  -7.155  1.00143.95    -0.271 OA
HETATM   15  N20 MIQ B 502      11.144   7.374  -7.625  1.00140.02    -0.296 N 
HETATM   16  H13 MIQ B 502      10.416   8.016  -7.870  1.00142.77     0.171 HD
HETATM   17  C21 MIQ B 502      10.922   5.952  -7.660  1.00142.22     0.224 C 
HETATM   18  C22 MIQ B 502      11.637   5.124  -6.609  1.00139.52     0.106 C 
HETATM   19  O24 MIQ B 502      10.221   5.456  -8.472  1.00146.13    -0.273 OA
HETATM   20  C23 MIQ B 502      13.118   5.421  -6.761  1.00139.15     0.045 C 
ENDBRANCH  10  12
BRANCH   5  21
HETATM   21  N6  MIQ B 502      17.539   8.956  -0.722  1.00140.95    -0.377 N 
HETATM   22  C7  MIQ B 502      17.582  10.284  -0.134  1.00142.12     0.149 C 
HETATM   23  C8  MIQ B 502      19.009  10.734   0.149  1.00144.10     0.187 C 
HETATM   24  O9  MIQ B 502      19.764   9.764   0.811  1.00148.65    -0.388 OA
HETATM   25  C10 MIQ B 502      19.275   8.463   0.954  1.00147.44     0.187 C 
HETATM   26  C11 MIQ B 502      18.348   7.909  -0.124  1.00144.08     0.149 C 
ENDBRANCH   5  21
TORSDOF 2
ENDMDL
MODEL 7
REMARK VINA RESULT:      -6.8      2.159      8.557
REMARK  2 active torsions:
REMARK  status: ('A' for Active; 'I' for Inactive)
REMARK    1  A    between atoms: C5_5  and  N6_21 
REMARK    2  A    between atoms: C18_14  and  N17_19 
ROOT
HETATM    1  O1  MIQ B 502      17.926   8.136  -4.418  1.00142.91    -0.171 OA
HETATM    2  C2  MIQ B 502      16.757   8.231  -3.660  1.00141.17     0.195 A 
HETATM    3  C3  MIQ B 502      15.350   7.681  -4.060  1.00141.71     0.035 A 
HETATM    4  C4  MIQ B 502      14.841   6.951  -5.245  1.00142.86     0.046 A 
HETATM    5  C5  MIQ B 502      13.477   6.574  -5.323  1.00139.53     0.031 A 
HETATM    6  C12 MIQ B 502      12.572   6.905  -4.231  1.00139.38     0.030 A 
HETATM    7  C13 MIQ B 502      13.060   7.604  -3.094  1.00141.18     0.019 A 
HETATM    8  C14 MIQ B 502      14.494   7.995  -3.017  1.00138.77     0.033 A 
HETATM    9  C15 MIQ B 502      15.374   8.744  -1.964  1.00142.10     0.195 A 
HETATM   10  N17 MIQ B 502      16.595   8.787  -2.471  1.00139.42    -0.288 N 
HETATM   11  O16 MIQ B 502      14.951   9.263  -0.739  1.00148.93    -0.171 OA
ENDROOT
BRANCH  10  12
HETATM   12  C18 MIQ B 502      17.686   9.431  -1.765  1.00139.82     0.187 C 
HETATM   13  C19 MIQ B 502      17.719   8.865  -0.340  1.00140.06     0.247 C 
HETATM   14  O25 MIQ B 502      17.723   7.696  -0.184  1.00143.95    -0.271 OA
HETATM   15  N20 MIQ B 502      17.752   9.728   0.824  1.00140.02    -0.296 N 
HETATM   16  H13 MIQ B 502      17.767   9.346   1.749  1.00142.77     0.171 HD
HETATM   17  C21 MIQ B 502      17.737  11.152   0.608  1.00142.22     0.224 C 
HETATM   18  C22 MIQ B 502      16.950  11.651  -0.588  1.00139.52     0.106 C 
HETATM   19  O24 MIQ B 502      18.314  11.891   1.327  1.00146.13    -0.273 OA
HETATM   20  C23 MIQ B 502      17.524  10.949  -1.805  1.00139.15     0.045 C 
ENDBRANCH  10  12
BRANCH   5  21
HETATM   21  N6  MIQ B 502      12.989   5.873  -6.496  1.00140.95    -0.377 N 
HETATM   22  C7  MIQ B 502      12.991   4.420  -6.488  1.00142.12     0.149 C 
HETATM   23  C8  MIQ B 502      13.089   3.843  -7.895  1.00144.10     0.187 C 
HETATM   24  O9  MIQ B 502      12.193   4.434  -8.788  1.00148.65    -0.388 OA
HETATM   25  C10 MIQ B 502      11.483   5.581  -8.424  1.00147.44     0.187 C 
HETATM   26  C11 MIQ B 502      12.126   6.557  -7.444  1.00144.08     0.149 C 
ENDBRANCH   5  21
TORSDOF 2
ENDMDL
MODEL 8
REMARK VINA RESULT:      -6.8      5.735      7.629
REMARK  2 active torsions:
REMARK  status: ('A' for Active; 'I' for Inactive)
REMARK    1  A    between atoms: C5_5  and  N6_21 
REMARK    2  A    between atoms: C18_14  and  N17_19 
ROOT
HETATM    1  O1  MIQ B 502      16.350  12.061  -1.209  1.00142.91    -0.171 OA
HETATM    2  C2  MIQ B 502      16.763  10.746  -1.435  1.00141.17     0.195 A 
HETATM    3  C3  MIQ B 502      17.509   9.825  -0.417  1.00141.71     0.035 A 
HETATM    4  C4  MIQ B 502      17.974  10.015   0.977  1.00142.86     0.046 A 
HETATM    5  C5  MIQ B 502      18.638   8.965   1.660  1.00139.53     0.031 A 
HETATM    6  C12 MIQ B 502      18.863   7.694   0.987  1.00139.38     0.030 A 
HETATM    7  C13 MIQ B 502      18.415   7.511  -0.349  1.00141.18     0.019 A 
HETATM    8  C14 MIQ B 502      17.717   8.616  -1.060  1.00138.77     0.033 A 
HETATM    9  C15 MIQ B 502      17.096   8.787  -2.485  1.00142.10     0.195 A 
HETATM   10  N17 MIQ B 502      16.610  10.017  -2.527  1.00139.42    -0.288 N 
HETATM   11  O16 MIQ B 502      17.066   7.833  -3.504  1.00148.93    -0.171 OA
ENDROOT
BRANCH  10  12
HETATM   12  C18 MIQ B 502      15.966  10.536  -3.718  1.00139.82     0.187 C 
HETATM   13  C19 MIQ B 502      16.640  11.867  -4.073  1.00140.06     0.247 C 
HETATM   14  O25 MIQ B 502      17.816  11.914  -4.153  1.00143.95    -0.271 OA
HETATM   15  N20 MIQ B 502      15.873  13.071  -4.318  1.00140.02    -0.296 N 
HETATM   16  H13 MIQ B 502      16.325  13.935  -4.542  1.00142.77     0.171 HD
HETATM   17  C21 MIQ B 502      14.439  12.992  -4.204  1.00142.22     0.224 C 
HETATM   18  C22 MIQ B 502      13.890  12.034  -3.165  1.00139.52     0.106 C 
HETATM   19  O24 MIQ B 502      13.728  13.638  -4.892  1.00146.13    -0.273 OA
HETATM   20  C23 MIQ B 502      14.460  10.666  -3.495  1.00139.15     0.045 C 
ENDBRANCH  10  12
BRANCH   5  21
HETATM   21  N6  MIQ B 502      19.102   9.170   3.020  1.00140.95    -0.377 N 
HETATM   22  C7  MIQ B 502      19.184  10.528   3.529  1.00142.12     0.149 C 
HETATM   23  C8  MIQ B 502      20.231  10.662   4.627  1.00144.10     0.187 C 
HETATM   24  O9  MIQ B 502      20.129   9.666   5.600  1.00148.65    -0.388 OA
HETATM   25  C10 MIQ B 502      19.292   8.565   5.401  1.00147.44     0.187 C 
HETATM   26  C11 MIQ B 502      19.056   8.076   3.975  1.00144.08     0.149 C 
ENDBRANCH   5  21
TORSDOF 2
ENDMDL
MODEL 9
REMARK VINA RESULT:      -6.7      1.753      2.797
REMARK  2 active torsions:
REMARK  status: ('A' for Active; 'I' for Inactive)
REMARK    1  A    between atoms: C5_5  and  N6_21 
REMARK    2  A    between atoms: C18_14  and  N17_19 
ROOT
HETATM    1  O1  MIQ B 502      11.208   7.405  -6.184  1.00142.91    -0.171 OA
HETATM    2  C2  MIQ B 502      12.578   7.141  -6.131  1.00141.17     0.195 A 
HETATM    3  C3  MIQ B 502      13.609   7.809  -5.166  1.00141.71     0.035 A 
HETATM    4  C4  MIQ B 502      13.492   8.831  -4.098  1.00142.86     0.046 A 
HETATM    5  C5  MIQ B 502      14.639   9.246  -3.375  1.00139.53     0.031 A 
HETATM    6  C12 MIQ B 502      15.937   8.664  -3.682  1.00139.38     0.030 A 
HETATM    7  C13 MIQ B 502      16.049   7.683  -4.704  1.00141.18     0.019 A 
HETATM    8  C14 MIQ B 502      14.842   7.250  -5.459  1.00138.77     0.033 A 
HETATM    9  C15 MIQ B 502      14.575   6.228  -6.613  1.00142.10     0.195 A 
HETATM   10  N17 MIQ B 502      13.277   6.290  -6.862  1.00139.42    -0.288 N 
HETATM   11  O16 MIQ B 502      15.519   5.420  -7.249  1.00148.93    -0.171 OA
ENDROOT
BRANCH  10  12
HETATM   12  C18 MIQ B 502      12.665   5.479  -7.898  1.00139.82     0.187 C 
HETATM   13  C19 MIQ B 502      12.954   4.008  -7.572  1.00140.06     0.247 C 
HETATM   14  O25 MIQ B 502      12.712   3.599  -6.493  1.00143.95    -0.271 OA
HETATM   15  N20 MIQ B 502      13.511   3.103  -8.557  1.00140.02    -0.296 N 
HETATM   16  H13 MIQ B 502      13.701   2.147  -8.329  1.00142.77     0.171 HD
HETATM   17  C21 MIQ B 502      13.808   3.629  -9.864  1.00142.22     0.224 C 
HETATM   18  C22 MIQ B 502      14.266   5.073  -9.930  1.00139.52     0.106 C 
HETATM   19  O24 MIQ B 502      13.694   2.967 -10.837  1.00146.13    -0.273 OA
HETATM   20  C23 MIQ B 502      13.176   5.901  -9.275  1.00139.15     0.045 C 
ENDBRANCH  10  12
BRANCH   5  21
HETATM   21  N6  MIQ B 502      14.512  10.258  -2.342  1.00140.95    -0.377 N 
HETATM   22  C7  MIQ B 502      15.266  10.093  -1.111  1.00142.12     0.149 C 
HETATM   23  C8  MIQ B 502      14.596  10.792   0.064  1.00144.10     0.187 C 
HETATM   24  O9  MIQ B 502      14.212  12.102  -0.229  1.00148.65    -0.388 OA
HETATM   25  C10 MIQ B 502      14.253  12.574  -1.544  1.00147.44     0.187 C 
HETATM   26  C11 MIQ B 502      14.025  11.584  -2.681  1.00144.08     0.149 C 
ENDBRANCH   5  21
TORSDOF 2
ENDMDL
