MODEL 1
REMARK VINA RESULT:      -6.3      0.000      0.000
REMARK  2 active torsions:
REMARK  status: ('A' for Active; 'I' for Inactive)
REMARK    1  A    between atoms: C5_5  and  N6_21 
REMARK    2  A    between atoms: C18_14  and  N17_19 
ROOT
HETATM    1  O1  MIQ B 502     -25.903  -4.509   8.620  1.00142.91    -0.171 OA
HETATM    2  C2  MIQ B 502     -25.827  -5.026   7.324  1.00141.17     0.195 A 
HETATM    3  C3  MIQ B 502     -26.190  -6.482   6.889  1.00141.71     0.035 A 
HETATM    4  C4  MIQ B 502     -26.687  -7.670   7.622  1.00142.86     0.046 A 
HETATM    5  C5  MIQ B 502     -26.933  -8.885   6.934  1.00139.53     0.031 A 
HETATM    6  C12 MIQ B 502     -26.696  -8.964   5.500  1.00139.38     0.030 A 
HETATM    7  C13 MIQ B 502     -26.221  -7.825   4.797  1.00141.18     0.019 A 
HETATM    8  C14 MIQ B 502     -25.967  -6.551   5.524  1.00138.77     0.033 A 
HETATM    9  C15 MIQ B 502     -25.462  -5.130   5.109  1.00142.10     0.195 A 
HETATM   10  N17 MIQ B 502     -25.445  -4.410   6.218  1.00139.42    -0.288 N 
HETATM   11  O16 MIQ B 502     -25.102  -4.713   3.826  1.00148.93    -0.171 OA
ENDROOT
BRANCH  10  12
HETATM   12  C18 MIQ B 502     -25.010  -3.026   6.217  1.00139.82     0.187 C 
HETATM   13  C19 MIQ B 502     -23.927  -2.875   7.292  1.00140.06     0.247 C 
HETATM   14  O25 MIQ B 502     -23.015  -3.624   7.301  1.00143.95    -0.271 OA
HETATM   15  N20 MIQ B 502     -23.989  -1.834   8.297  1.00140.02    -0.296 N 
HETATM   16  H13 MIQ B 502     -23.279  -1.750   8.998  1.00142.77     0.171 HD
HETATM   17  C21 MIQ B 502     -25.117  -0.939   8.272  1.00142.22     0.224 C 
HETATM   18  C22 MIQ B 502     -26.439  -1.522   7.814  1.00139.52     0.106 C 
HETATM   19  O24 MIQ B 502     -25.013   0.195   8.589  1.00146.13    -0.273 OA
HETATM   20  C23 MIQ B 502     -26.201  -2.094   6.428  1.00139.15     0.045 C 
ENDBRANCH  10  12
BRANCH   5  21
HETATM   21  N6  MIQ B 502     -27.405 -10.046   7.667  1.00140.95    -0.377 N 
HETATM   22  C7  MIQ B 502     -26.950 -11.362   7.252  1.00142.12     0.149 C 
HETATM   23  C8  MIQ B 502     -27.949 -12.451   7.622  1.00144.10     0.187 C 
HETATM   24  O9  MIQ B 502     -28.387 -12.361   8.944  1.00148.65    -0.388 OA
HETATM   25  C10 MIQ B 502     -28.086 -11.234   9.714  1.00147.44     0.187 C 
HETATM   26  C11 MIQ B 502     -27.933  -9.890   9.011  1.00144.08     0.149 C 
ENDBRANCH   5  21
TORSDOF 2
ENDMDL
MODEL 2
REMARK VINA RESULT:      -6.3      2.087      7.931
REMARK  2 active torsions:
REMARK  status: ('A' for Active; 'I' for Inactive)
REMARK    1  A    between atoms: C5_5  and  N6_21 
REMARK    2  A    between atoms: C18_14  and  N17_19 
ROOT
HETATM    1  O1  MIQ B 502     -27.403  -8.426   8.426  1.00142.91    -0.171 OA
HETATM    2  C2  MIQ B 502     -27.147  -8.297   7.059  1.00141.17     0.195 A 
HETATM    3  C3  MIQ B 502     -26.383  -7.121   6.370  1.00141.71     0.035 A 
HETATM    4  C4  MIQ B 502     -25.740  -5.886   6.880  1.00142.86     0.046 A 
HETATM    5  C5  MIQ B 502     -25.106  -4.987   5.986  1.00139.53     0.031 A 
HETATM    6  C12 MIQ B 502     -25.085  -5.280   4.560  1.00139.38     0.030 A 
HETATM    7  C13 MIQ B 502     -25.699  -6.464   4.072  1.00141.18     0.019 A 
HETATM    8  C14 MIQ B 502     -26.362  -7.406   5.015  1.00138.77     0.033 A 
HETATM    9  C15 MIQ B 502     -27.118  -8.766   4.861  1.00142.10     0.195 A 
HETATM   10  N17 MIQ B 502     -27.483  -9.122   6.082  1.00139.42    -0.288 N 
HETATM   11  O16 MIQ B 502     -27.358  -9.459   3.673  1.00148.93    -0.171 OA
ENDROOT
BRANCH  10  12
HETATM   12  C18 MIQ B 502     -28.229 -10.342   6.324  1.00139.82     0.187 C 
HETATM   13  C19 MIQ B 502     -29.526  -9.961   7.049  1.00140.06     0.247 C 
HETATM   14  O25 MIQ B 502     -30.208  -9.109   6.600  1.00143.95    -0.271 OA
HETATM   15  N20 MIQ B 502     -29.942 -10.622   8.269  1.00140.02    -0.296 N 
HETATM   16  H13 MIQ B 502     -30.787 -10.360   8.736  1.00142.77     0.171 HD
HETATM   17  C21 MIQ B 502     -29.087 -11.651   8.803  1.00142.22     0.224 C 
HETATM   18  C22 MIQ B 502     -27.595 -11.472   8.600  1.00139.52     0.106 C 
HETATM   19  O24 MIQ B 502     -29.530 -12.591   9.366  1.00146.13    -0.273 OA
HETATM   20  C23 MIQ B 502     -27.376 -11.341   7.103  1.00139.15     0.045 C 
ENDBRANCH  10  12
BRANCH   5  21
HETATM   21  N6  MIQ B 502     -24.494  -3.774   6.498  1.00140.95    -0.377 N 
HETATM   22  C7  MIQ B 502     -25.298  -2.567   6.567  1.00142.12     0.149 C 
HETATM   23  C8  MIQ B 502     -24.443  -1.308   6.484  1.00144.10     0.187 C 
HETATM   24  O9  MIQ B 502     -23.342  -1.342   7.342  1.00148.65    -0.388 OA
HETATM   25  C10 MIQ B 502     -22.992  -2.525   7.998  1.00147.44     0.187 C 
HETATM   26  C11 MIQ B 502     -23.297  -3.855   7.316  1.00144.08     0.149 C 
ENDBRANCH   5  21
TORSDOF 2
ENDMDL
MODEL 3
REMARK VINA RESULT:      -6.1      3.030      5.239
REMARK  2 active torsions:
REMARK  status: ('A' for Active; 'I' for Inactive)
REMARK    1  A    between atoms: C5_5  and  N6_21 
REMARK    2  A    between atoms: C18_14  and  N17_19 
ROOT
HETATM    1  O1  MIQ B 502     -21.858  -3.178   7.868  1.00142.91    -0.171 OA
HETATM    2  C2  MIQ B 502     -23.058  -2.500   7.643  1.00141.17     0.195 A 
HETATM    3  C3  MIQ B 502     -24.310  -3.063   6.898  1.00141.71     0.035 A 
HETATM    4  C4  MIQ B 502     -24.613  -4.363   6.253  1.00142.86     0.046 A 
HETATM    5  C5  MIQ B 502     -25.873  -4.584   5.642  1.00139.53     0.031 A 
HETATM    6  C12 MIQ B 502     -26.875  -3.528   5.651  1.00139.38     0.030 A 
HETATM    7  C13 MIQ B 502     -26.586  -2.282   6.270  1.00141.18     0.019 A 
HETATM    8  C14 MIQ B 502     -25.261  -2.057   6.912  1.00138.77     0.033 A 
HETATM    9  C15 MIQ B 502     -24.597  -0.862   7.671  1.00142.10     0.195 A 
HETATM   10  N17 MIQ B 502     -23.385  -1.273   8.009  1.00139.42    -0.288 N 
HETATM   11  O16 MIQ B 502     -25.169   0.384   7.933  1.00148.93    -0.171 OA
ENDROOT
BRANCH  10  12
HETATM   12  C18 MIQ B 502     -22.464  -0.408   8.722  1.00139.82     0.187 C 
HETATM   13  C19 MIQ B 502     -21.135  -0.408   7.958  1.00140.06     0.247 C 
HETATM   14  O25 MIQ B 502     -21.137  -0.188   6.799  1.00143.95    -0.271 OA
HETATM   15  N20 MIQ B 502     -19.873  -0.665   8.620  1.00140.02    -0.296 N 
HETATM   16  H13 MIQ B 502     -19.013  -0.669   8.108  1.00142.77     0.171 HD
HETATM   17  C21 MIQ B 502     -19.897  -0.942  10.033  1.00142.22     0.224 C 
HETATM   18  C22 MIQ B 502     -21.108  -1.687  10.561  1.00139.52     0.106 C 
HETATM   19  O24 MIQ B 502     -19.018  -0.599  10.745  1.00146.13    -0.273 OA
HETATM   20  C23 MIQ B 502     -22.323  -0.865  10.174  1.00139.15     0.045 C 
ENDBRANCH  10  12
BRANCH   5  21
HETATM   21  N6  MIQ B 502     -26.150  -5.856   5.001  1.00140.95    -0.377 N 
HETATM   22  C7  MIQ B 502     -25.483  -6.162   3.747  1.00142.12     0.149 C 
HETATM   23  C8  MIQ B 502     -26.290  -7.134   2.896  1.00144.10     0.187 C 
HETATM   24  O9  MIQ B 502     -26.742  -8.241   3.617  1.00148.65    -0.388 OA
HETATM   25  C10 MIQ B 502     -26.634  -8.271   5.010  1.00147.44     0.187 C 
HETATM   26  C11 MIQ B 502     -26.703  -6.954   5.775  1.00144.08     0.149 C 
ENDBRANCH   5  21
TORSDOF 2
ENDMDL
MODEL 4
REMARK VINA RESULT:      -6.1     19.759     21.934
REMARK  2 active torsions:
REMARK  status: ('A' for Active; 'I' for Inactive)
REMARK    1  A    between atoms: C5_5  and  N6_21 
REMARK    2  A    between atoms: C18_14  and  N17_19 
ROOT
HETATM    1  O1  MIQ B 502     -12.967 -22.275   1.638  1.00142.91    -0.171 OA
HETATM    2  C2  MIQ B 502     -12.480 -20.991   1.385  1.00141.17     0.195 A 
HETATM    3  C3  MIQ B 502     -11.026 -20.625   0.946  1.00141.71     0.035 A 
HETATM    4  C4  MIQ B 502      -9.810 -21.430   0.678  1.00142.86     0.046 A 
HETATM    5  C5  MIQ B 502      -8.605 -20.796   0.283  1.00139.53     0.031 A 
HETATM    6  C12 MIQ B 502      -8.563 -19.348   0.140  1.00139.38     0.030 A 
HETATM    7  C13 MIQ B 502      -9.728 -18.577   0.396  1.00141.18     0.019 A 
HETATM    8  C14 MIQ B 502     -10.992 -19.247   0.808  1.00138.77     0.033 A 
HETATM    9  C15 MIQ B 502     -12.433 -18.755   1.162  1.00142.10     0.195 A 
HETATM   10  N17 MIQ B 502     -13.129 -19.841   1.455  1.00139.42    -0.288 N 
HETATM   11  O16 MIQ B 502     -12.886 -17.434   1.170  1.00148.93    -0.171 OA
ENDROOT
BRANCH  10  12
HETATM   12  C18 MIQ B 502     -14.523 -19.764   1.850  1.00139.82     0.187 C 
HETATM   13  C19 MIQ B 502     -15.274 -18.981   0.766  1.00140.06     0.247 C 
HETATM   14  O25 MIQ B 502     -15.154 -19.302  -0.363  1.00143.95    -0.271 OA
HETATM   15  N20 MIQ B 502     -16.134 -17.861   1.090  1.00140.02    -0.296 N 
HETATM   16  H13 MIQ B 502     -16.614 -17.355   0.372  1.00142.77     0.171 HD
HETATM   17  C21 MIQ B 502     -16.256 -17.483   2.474  1.00142.22     0.224 C 
HETATM   18  C22 MIQ B 502     -15.027 -17.672   3.343  1.00139.52     0.106 C 
HETATM   19  O24 MIQ B 502     -17.266 -17.051   2.909  1.00146.13    -0.273 OA
HETATM   20  C23 MIQ B 502     -14.647 -19.138   3.239  1.00139.15     0.045 C 
ENDBRANCH  10  12
BRANCH   5  21
HETATM   21  N6  MIQ B 502      -7.418 -21.595   0.038  1.00140.95    -0.377 N 
HETATM   22  C7  MIQ B 502      -7.379 -22.955   0.546  1.00142.12     0.149 C 
HETATM   23  C8  MIQ B 502      -5.953 -23.427   0.801  1.00144.10     0.187 C 
HETATM   24  O9  MIQ B 502      -5.094 -23.164  -0.269  1.00148.65    -0.388 OA
HETATM   25  C10 MIQ B 502      -5.508 -22.347  -1.324  1.00147.44     0.187 C 
HETATM   26  C11 MIQ B 502      -6.508 -21.232  -1.034  1.00144.08     0.149 C 
ENDBRANCH   5  21
TORSDOF 2
ENDMDL
MODEL 5
REMARK VINA RESULT:      -6.1     17.935     20.084
REMARK  2 active torsions:
REMARK  status: ('A' for Active; 'I' for Inactive)
REMARK    1  A    between atoms: C5_5  and  N6_21 
REMARK    2  A    between atoms: C18_14  and  N17_19 
ROOT
HETATM    1  O1  MIQ B 502     -14.021 -19.498   3.413  1.00142.91    -0.171 OA
HETATM    2  C2  MIQ B 502     -13.769 -20.256   2.268  1.00141.17     0.195 A 
HETATM    3  C3  MIQ B 502     -14.252 -21.718   2.005  1.00141.71     0.035 A 
HETATM    4  C4  MIQ B 502     -15.054 -22.684   2.793  1.00142.86     0.046 A 
HETATM    5  C5  MIQ B 502     -15.337 -23.972   2.274  1.00139.53     0.031 A 
HETATM    6  C12 MIQ B 502     -14.838 -24.347   0.959  1.00139.38     0.030 A 
HETATM    7  C13 MIQ B 502     -14.070 -23.421   0.202  1.00141.18     0.019 A 
HETATM    8  C14 MIQ B 502     -13.777 -22.069   0.751  1.00138.77     0.033 A 
HETATM    9  C15 MIQ B 502     -12.996 -20.818   0.233  1.00142.10     0.195 A 
HETATM   10  N17 MIQ B 502     -13.091 -19.907   1.188  1.00139.42    -0.288 N 
HETATM   11  O16 MIQ B 502     -12.333 -20.693  -0.989  1.00148.93    -0.171 OA
ENDROOT
BRANCH  10  12
HETATM   12  C18 MIQ B 502     -12.463 -18.605   1.058  1.00139.82     0.187 C 
HETATM   13  C19 MIQ B 502     -11.268 -18.564   2.018  1.00140.06     0.247 C 
HETATM   14  O25 MIQ B 502     -10.477 -19.439   1.992  1.00143.95    -0.271 OA
HETATM   15  N20 MIQ B 502     -11.079 -17.476   2.956  1.00140.02    -0.296 N 
HETATM   16  H13 MIQ B 502     -10.298 -17.465   3.582  1.00142.77     0.171 HD
HETATM   17  C21 MIQ B 502     -12.063 -16.425   2.977  1.00142.22     0.224 C 
HETATM   18  C22 MIQ B 502     -13.495 -16.827   2.679  1.00139.52     0.106 C 
HETATM   19  O24 MIQ B 502     -11.766 -15.305   3.210  1.00146.13    -0.273 OA
HETATM   20  C23 MIQ B 502     -13.481 -17.496   1.317  1.00139.15     0.045 C 
ENDBRANCH  10  12
BRANCH   5  21
HETATM   21  N6  MIQ B 502     -16.111 -24.913   3.063  1.00140.95    -0.377 N 
HETATM   22  C7  MIQ B 502     -16.804 -25.990   2.377  1.00142.12     0.149 C 
HETATM   23  C8  MIQ B 502     -18.024 -26.468   3.154  1.00144.10     0.187 C 
HETATM   24  O9  MIQ B 502     -17.752 -26.697   4.504  1.00148.65    -0.388 OA
HETATM   25  C10 MIQ B 502     -16.538 -26.288   5.062  1.00147.44     0.187 C 
HETATM   26  C11 MIQ B 502     -15.849 -25.055   4.485  1.00144.08     0.149 C 
ENDBRANCH   5  21
TORSDOF 2
ENDMDL
MODEL 6
REMARK VINA RESULT:      -6.1      6.943      9.975
REMARK  2 active torsions:
REMARK  status: ('A' for Active; 'I' for Inactive)
REMARK    1  A    between atoms: C5_5  and  N6_21 
REMARK    2  A    between atoms: C18_14  and  N17_19 
ROOT
HETATM    1  O1  MIQ B 502     -22.430  -2.630  10.860  1.00142.91    -0.171 OA
HETATM    2  C2  MIQ B 502     -21.194  -1.982  10.919  1.00141.17     0.195 A 
HETATM    3  C3  MIQ B 502     -20.227  -1.949  12.145  1.00141.71     0.035 A 
HETATM    4  C4  MIQ B 502     -20.288  -2.531  13.507  1.00142.86     0.046 A 
HETATM    5  C5  MIQ B 502     -19.226  -2.324  14.423  1.00139.53     0.031 A 
HETATM    6  C12 MIQ B 502     -18.070  -1.534  14.023  1.00139.38     0.030 A 
HETATM    7  C13 MIQ B 502     -18.011  -0.977  12.717  1.00141.18     0.019 A 
HETATM    8  C14 MIQ B 502     -19.127  -1.200  11.759  1.00138.77     0.033 A 
HETATM    9  C15 MIQ B 502     -19.413  -0.767  10.284  1.00142.10     0.195 A 
HETATM   10  N17 MIQ B 502     -20.591  -1.283   9.973  1.00139.42    -0.288 N 
HETATM   11  O16 MIQ B 502     -18.589   0.010   9.467  1.00148.93    -0.171 OA
ENDROOT
BRANCH  10  12
HETATM   12  C18 MIQ B 502     -21.191  -1.069   8.669  1.00139.82     0.187 C 
HETATM   13  C19 MIQ B 502     -22.590  -0.482   8.889  1.00140.06     0.247 C 
HETATM   14  O25 MIQ B 502     -22.717   0.458   9.591  1.00143.95    -0.271 OA
HETATM   15  N20 MIQ B 502     -23.763  -1.045   8.253  1.00140.02    -0.296 N 
HETATM   16  H13 MIQ B 502     -24.672  -0.657   8.410  1.00142.77     0.171 HD
HETATM   17  C21 MIQ B 502     -23.585  -2.198   7.408  1.00142.22     0.224 C 
HETATM   18  C22 MIQ B 502     -22.492  -3.172   7.807  1.00139.52     0.106 C 
HETATM   19  O24 MIQ B 502     -24.254  -2.372   6.450  1.00146.13    -0.273 OA
HETATM   20  C23 MIQ B 502     -21.204  -2.371   7.870  1.00139.15     0.045 C 
ENDBRANCH  10  12
BRANCH   5  21
HETATM   21  N6  MIQ B 502     -19.306  -2.887  15.759  1.00140.95    -0.377 N 
HETATM   22  C7  MIQ B 502     -19.893  -4.206  15.922  1.00142.12     0.149 C 
HETATM   23  C8  MIQ B 502     -20.492  -4.395  17.309  1.00144.10     0.187 C 
HETATM   24  O9  MIQ B 502     -19.631  -3.994  18.333  1.00148.65    -0.388 OA
HETATM   25  C10 MIQ B 502     -18.462  -3.288  18.037  1.00147.44     0.187 C 
HETATM   26  C11 MIQ B 502     -18.448  -2.378  16.814  1.00144.08     0.149 C 
ENDBRANCH   5  21
TORSDOF 2
ENDMDL
MODEL 7
REMARK VINA RESULT:      -6.0      3.306      8.160
REMARK  2 active torsions:
REMARK  status: ('A' for Active; 'I' for Inactive)
REMARK    1  A    between atoms: C5_5  and  N6_21 
REMARK    2  A    between atoms: C18_14  and  N17_19 
ROOT
HETATM    1  O1  MIQ B 502     -23.718  -4.999   5.593  1.00142.91    -0.171 OA
HETATM    2  C2  MIQ B 502     -24.560  -4.331   6.484  1.00141.17     0.195 A 
HETATM    3  C3  MIQ B 502     -24.114  -3.349   7.614  1.00141.71     0.035 A 
HETATM    4  C4  MIQ B 502     -22.794  -2.849   8.068  1.00142.86     0.046 A 
HETATM    5  C5  MIQ B 502     -22.707  -1.938   9.150  1.00139.53     0.031 A 
HETATM    6  C12 MIQ B 502     -23.920  -1.491   9.819  1.00139.38     0.030 A 
HETATM    7  C13 MIQ B 502     -25.186  -1.969   9.384  1.00141.18     0.019 A 
HETATM    8  C14 MIQ B 502     -25.272  -2.924   8.245  1.00138.77     0.033 A 
HETATM    9  C15 MIQ B 502     -26.443  -3.645   7.502  1.00142.10     0.195 A 
HETATM   10  N17 MIQ B 502     -25.879  -4.380   6.558  1.00139.42    -0.288 N 
HETATM   11  O16 MIQ B 502     -27.806  -3.534   7.784  1.00148.93    -0.171 OA
ENDROOT
BRANCH  10  12
HETATM   12  C18 MIQ B 502     -26.671  -5.209   5.669  1.00139.82     0.187 C 
HETATM   13  C19 MIQ B 502     -26.111  -6.635   5.737  1.00140.06     0.247 C 
HETATM   14  O25 MIQ B 502     -25.954  -7.143   6.790  1.00143.95    -0.271 OA
HETATM   15  N20 MIQ B 502     -25.773  -7.381   4.542  1.00140.02    -0.296 N 
HETATM   16  H13 MIQ B 502     -25.402  -8.309   4.600  1.00142.77     0.171 HD
HETATM   17  C21 MIQ B 502     -25.963  -6.736   3.268  1.00142.22     0.224 C 
HETATM   18  C22 MIQ B 502     -25.736  -5.237   3.223  1.00139.52     0.106 C 
HETATM   19  O24 MIQ B 502     -26.285  -7.346   2.309  1.00146.13    -0.273 OA
HETATM   20  C23 MIQ B 502     -26.668  -4.629   4.256  1.00139.15     0.045 C 
ENDBRANCH  10  12
BRANCH   5  21
HETATM   21  N6  MIQ B 502     -21.407  -1.468   9.594  1.00140.95    -0.377 N 
HETATM   22  C7  MIQ B 502     -20.853  -0.274   8.979  1.00142.12     0.149 C 
HETATM   23  C8  MIQ B 502     -19.330  -0.263   9.029  1.00144.10     0.187 C 
HETATM   24  O9  MIQ B 502     -18.826  -0.572  10.294  1.00148.65    -0.388 OA
HETATM   25  C10 MIQ B 502     -19.672  -1.058  11.294  1.00147.44     0.187 C 
HETATM   26  C11 MIQ B 502     -20.885  -1.886  10.883  1.00144.08     0.149 C 
ENDBRANCH   5  21
TORSDOF 2
ENDMDL
MODEL 8
REMARK VINA RESULT:      -5.9      4.289      7.599
REMARK  2 active torsions:
REMARK  status: ('A' for Active; 'I' for Inactive)
REMARK    1  A    between atoms: C5_5  and  N6_21 
REMARK    2  A    between atoms: C18_14  and  N17_19 
ROOT
HETATM    1  O1  MIQ B 502     -28.368 -10.364   5.302  1.00142.91    -0.171 OA
HETATM    2  C2  MIQ B 502     -27.627  -9.232   4.956  1.00141.17     0.195 A 
HETATM    3  C3  MIQ B 502     -27.356  -8.716   3.506  1.00141.71     0.035 A 
HETATM    4  C4  MIQ B 502     -27.752  -9.198   2.162  1.00142.86     0.046 A 
HETATM    5  C5  MIQ B 502     -27.342  -8.497   1.000  1.00139.53     0.031 A 
HETATM    6  C12 MIQ B 502     -26.530  -7.296   1.129  1.00139.38     0.030 A 
HETATM    7  C13 MIQ B 502     -26.151  -6.833   2.418  1.00141.18     0.019 A 
HETATM    8  C14 MIQ B 502     -26.585  -7.572   3.635  1.00138.77     0.033 A 
HETATM    9  C15 MIQ B 502     -26.378  -7.376   5.172  1.00142.10     0.195 A 
HETATM   10  N17 MIQ B 502     -27.019  -8.375   5.757  1.00139.42    -0.288 N 
HETATM   11  O16 MIQ B 502     -25.659  -6.354   5.795  1.00148.93    -0.171 OA
ENDROOT
BRANCH  10  12
HETATM   12  C18 MIQ B 502     -27.029  -8.526   7.200  1.00139.82     0.187 C 
HETATM   13  C19 MIQ B 502     -26.470  -9.915   7.529  1.00140.06     0.247 C 
HETATM   14  O25 MIQ B 502     -25.440 -10.247   7.059  1.00143.95    -0.271 OA
HETATM   15  N20 MIQ B 502     -27.168 -10.831   8.407  1.00140.02    -0.296 N 
HETATM   16  H13 MIQ B 502     -26.795 -11.738   8.609  1.00142.77     0.171 HD
HETATM   17  C21 MIQ B 502     -28.428 -10.407   8.960  1.00142.22     0.224 C 
HETATM   18  C22 MIQ B 502     -29.287  -9.510   8.090  1.00139.52     0.106 C 
HETATM   19  O24 MIQ B 502     -28.771 -10.739  10.041  1.00146.13    -0.273 OA
HETATM   20  C23 MIQ B 502     -28.437  -8.300   7.748  1.00139.15     0.045 C 
ENDBRANCH  10  12
BRANCH   5  21
HETATM   21  N6  MIQ B 502     -27.725  -8.989  -0.311  1.00140.95    -0.377 N 
HETATM   22  C7  MIQ B 502     -27.451 -10.378  -0.639  1.00142.12     0.149 C 
HETATM   23  C8  MIQ B 502     -27.287 -10.587  -2.139  1.00144.10     0.187 C 
HETATM   24  O9  MIQ B 502     -28.303  -9.987  -2.885  1.00148.65    -0.388 OA
HETATM   25  C10 MIQ B 502     -29.205  -9.110  -2.276  1.00147.44     0.187 C 
HETATM   26  C11 MIQ B 502     -28.727  -8.281  -1.088  1.00144.08     0.149 C 
ENDBRANCH   5  21
TORSDOF 2
ENDMDL
MODEL 9
REMARK VINA RESULT:      -5.9      3.831      9.239
REMARK  2 active torsions:
REMARK  status: ('A' for Active; 'I' for Inactive)
REMARK    1  A    between atoms: C5_5  and  N6_21 
REMARK    2  A    between atoms: C18_14  and  N17_19 
ROOT
HETATM    1  O1  MIQ B 502     -31.046 -10.384   6.204  1.00142.91    -0.171 OA
HETATM    2  C2  MIQ B 502     -29.816 -10.651   6.809  1.00141.17     0.195 A 
HETATM    3  C3  MIQ B 502     -28.453  -9.970   6.467  1.00141.71     0.035 A 
HETATM    4  C4  MIQ B 502     -28.052  -8.925   5.495  1.00142.86     0.046 A 
HETATM    5  C5  MIQ B 502     -26.701  -8.501   5.416  1.00139.53     0.031 A 
HETATM    6  C12 MIQ B 502     -25.704  -9.094   6.295  1.00139.38     0.030 A 
HETATM    7  C13 MIQ B 502     -26.089 -10.095   7.228  1.00141.18     0.019 A 
HETATM    8  C14 MIQ B 502     -27.509 -10.535   7.308  1.00138.77     0.033 A 
HETATM    9  C15 MIQ B 502     -28.290 -11.573   8.178  1.00142.10     0.195 A 
HETATM   10  N17 MIQ B 502     -29.550 -11.510   7.778  1.00139.42    -0.288 N 
HETATM   11  O16 MIQ B 502     -27.761 -12.398   9.172  1.00148.93    -0.171 OA
ENDROOT
BRANCH  10  12
HETATM   12  C18 MIQ B 502     -30.573 -12.356   8.363  1.00139.82     0.187 C 
HETATM   13  C19 MIQ B 502     -30.515 -12.177   9.885  1.00140.06     0.247 C 
HETATM   14  O25 MIQ B 502     -30.533 -11.088  10.338  1.00143.95    -0.271 OA
HETATM   15  N20 MIQ B 502     -30.445 -13.310  10.785  1.00140.02    -0.296 N 
HETATM   16  H13 MIQ B 502     -30.400 -13.180  11.776  1.00142.77     0.171 HD
HETATM   17  C21 MIQ B 502     -30.414 -14.629  10.207  1.00142.22     0.224 C 
HETATM   18  C22 MIQ B 502     -29.705 -14.773   8.874  1.00139.52     0.106 C 
HETATM   19  O24 MIQ B 502     -30.921 -15.551  10.745  1.00146.13    -0.273 OA
HETATM   20  C23 MIQ B 502     -30.381 -13.806   7.920  1.00139.15     0.045 C 
ENDBRANCH  10  12
BRANCH   5  21
HETATM   21  N6  MIQ B 502     -26.319  -7.487   4.449  1.00140.95    -0.377 N 
HETATM   22  C7  MIQ B 502     -26.826  -7.596   3.092  1.00142.12     0.149 C 
HETATM   23  C8  MIQ B 502     -25.902  -6.925   2.084  1.00144.10     0.187 C 
HETATM   24  O9  MIQ B 502     -25.511  -5.643   2.474  1.00148.65    -0.388 OA
HETATM   25  C10 MIQ B 502     -25.782  -5.183   3.765  1.00147.44     0.187 C 
HETATM   26  C11 MIQ B 502     -25.836  -6.195   4.905  1.00144.08     0.149 C 
ENDBRANCH   5  21
TORSDOF 2
ENDMDL
