MODEL 1
REMARK VINA RESULT:      -7.1      0.000      0.000
REMARK  2 active torsions:
REMARK  status: ('A' for Active; 'I' for Inactive)
REMARK    1  A    between atoms: C5_5  and  N6_21 
REMARK    2  A    between atoms: C18_14  and  N17_19 
ROOT
HETATM    1  O1  MIQ B 502     -14.668  10.567  12.773  1.00142.91    -0.171 OA
HETATM    2  C2  MIQ B 502     -15.297  10.047  13.906  1.00141.17     0.195 A 
HETATM    3  C3  MIQ B 502     -15.623  10.825  15.220  1.00141.71     0.035 A 
HETATM    4  C4  MIQ B 502     -15.400  12.224  15.658  1.00142.86     0.046 A 
HETATM    5  C5  MIQ B 502     -15.818  12.648  16.945  1.00139.53     0.031 A 
HETATM    6  C12 MIQ B 502     -16.471  11.703  17.840  1.00139.38     0.030 A 
HETATM    7  C13 MIQ B 502     -16.686  10.362  17.420  1.00141.18     0.019 A 
HETATM    8  C14 MIQ B 502     -16.246   9.924  16.067  1.00138.77     0.033 A 
HETATM    9  C15 MIQ B 502     -16.309   8.578  15.274  1.00142.10     0.195 A 
HETATM   10  N17 MIQ B 502     -15.746   8.819  14.101  1.00139.42    -0.288 N 
HETATM   11  O16 MIQ B 502     -16.849   7.370  15.719  1.00148.93    -0.171 OA
ENDROOT
BRANCH  10  12
HETATM   12  C18 MIQ B 502     -15.613   7.779  13.098  1.00139.82     0.187 C 
HETATM   13  C19 MIQ B 502     -14.155   7.773  12.621  1.00140.06     0.247 C 
HETATM   14  O25 MIQ B 502     -13.288   7.728  13.420  1.00143.95    -0.271 OA
HETATM   15  N20 MIQ B 502     -13.811   7.816  11.215  1.00140.02    -0.296 N 
HETATM   16  H13 MIQ B 502     -12.855   7.819  10.917  1.00142.77     0.171 HD
HETATM   17  C21 MIQ B 502     -14.887   7.882  10.259  1.00142.22     0.224 C 
HETATM   18  C22 MIQ B 502     -16.127   8.646  10.681  1.00139.52     0.106 C 
HETATM   19  O24 MIQ B 502     -14.806   7.361   9.201  1.00146.13    -0.273 OA
HETATM   20  C23 MIQ B 502     -16.614   8.002  11.966  1.00139.15     0.045 C 
ENDBRANCH  10  12
BRANCH   5  21
HETATM   21  N6  MIQ B 502     -15.581  14.016  17.366  1.00140.95    -0.377 N 
HETATM   22  C7  MIQ B 502     -16.233  14.495  18.572  1.00142.12     0.149 C 
HETATM   23  C8  MIQ B 502     -16.437  16.005  18.547  1.00144.10     0.187 C 
HETATM   24  O9  MIQ B 502     -15.287  16.703  18.173  1.00148.65    -0.388 OA
HETATM   25  C10 MIQ B 502     -14.180  16.020  17.663  1.00147.44     0.187 C 
HETATM   26  C11 MIQ B 502     -14.413  14.732  16.881  1.00144.08     0.149 C 
ENDBRANCH   5  21
TORSDOF 2
ENDMDL
MODEL 2
REMARK VINA RESULT:      -7.1      1.019      1.456
REMARK  2 active torsions:
REMARK  status: ('A' for Active; 'I' for Inactive)
REMARK    1  A    between atoms: C5_5  and  N6_21 
REMARK    2  A    between atoms: C18_14  and  N17_19 
ROOT
HETATM    1  O1  MIQ B 502     -14.544  10.792  13.399  1.00142.91    -0.171 OA
HETATM    2  C2  MIQ B 502     -15.219  10.488  14.583  1.00141.17     0.195 A 
HETATM    3  C3  MIQ B 502     -15.415  11.442  15.804  1.00141.71     0.035 A 
HETATM    4  C4  MIQ B 502     -15.001  12.837  16.084  1.00142.86     0.046 A 
HETATM    5  C5  MIQ B 502     -15.337  13.451  17.317  1.00139.53     0.031 A 
HETATM    6  C12 MIQ B 502     -16.095  12.706  18.312  1.00139.38     0.030 A 
HETATM    7  C13 MIQ B 502     -16.494  11.369  18.043  1.00141.18     0.019 A 
HETATM    8  C14 MIQ B 502     -16.140  10.730  16.746  1.00138.77     0.033 A 
HETATM    9  C15 MIQ B 502     -16.395   9.326  16.106  1.00142.10     0.195 A 
HETATM   10  N17 MIQ B 502     -15.824   9.360  14.913  1.00139.42    -0.288 N 
HETATM   11  O16 MIQ B 502     -17.083   8.258  16.683  1.00148.93    -0.171 OA
ENDROOT
BRANCH  10  12
HETATM   12  C18 MIQ B 502     -15.848   8.209  14.030  1.00139.82     0.187 C 
HETATM   13  C19 MIQ B 502     -14.409   7.943  13.571  1.00140.06     0.247 C 
HETATM   14  O25 MIQ B 502     -13.552   7.861  14.377  1.00143.95    -0.271 OA
HETATM   15  N20 MIQ B 502     -14.072   7.782  12.171  1.00140.02    -0.296 N 
HETATM   16  H13 MIQ B 502     -13.128   7.615  11.883  1.00142.77     0.171 HD
HETATM   17  C21 MIQ B 502     -15.133   7.896  11.204  1.00142.22     0.224 C 
HETATM   18  C22 MIQ B 502     -16.249   8.871  11.529  1.00139.52     0.106 C 
HETATM   19  O24 MIQ B 502     -15.135   7.257  10.210  1.00146.13    -0.273 OA
HETATM   20  C23 MIQ B 502     -16.815   8.447  12.872  1.00139.15     0.045 C 
ENDBRANCH  10  12
BRANCH   5  21
HETATM   21  N6  MIQ B 502     -14.912  14.813  17.584  1.00140.95    -0.377 N 
HETATM   22  C7  MIQ B 502     -13.871  15.391  16.752  1.00142.12     0.149 C 
HETATM   23  C8  MIQ B 502     -13.096  16.479  17.484  1.00144.10     0.187 C 
HETATM   24  O9  MIQ B 502     -13.926  17.399  18.127  1.00148.65    -0.388 OA
HETATM   25  C10 MIQ B 502     -15.297  17.155  18.242  1.00147.44     0.187 C 
HETATM   26  C11 MIQ B 502     -15.775  15.709  18.332  1.00144.08     0.149 C 
ENDBRANCH   5  21
TORSDOF 2
ENDMDL
MODEL 3
REMARK VINA RESULT:      -6.8     13.802     17.371
REMARK  2 active torsions:
REMARK  status: ('A' for Active; 'I' for Inactive)
REMARK    1  A    between atoms: C5_5  and  N6_21 
REMARK    2  A    between atoms: C18_14  and  N17_19 
ROOT
HETATM    1  O1  MIQ B 502      -2.915  19.972  13.406  1.00142.91    -0.171 OA
HETATM    2  C2  MIQ B 502      -3.037  21.298  13.829  1.00141.17     0.195 A 
HETATM    3  C3  MIQ B 502      -3.934  21.814  14.999  1.00141.71     0.035 A 
HETATM    4  C4  MIQ B 502      -4.852  21.145  15.951  1.00142.86     0.046 A 
HETATM    5  C5  MIQ B 502      -5.545  21.901  16.930  1.00139.53     0.031 A 
HETATM    6  C12 MIQ B 502      -5.351  23.342  17.001  1.00139.38     0.030 A 
HETATM    7  C13 MIQ B 502      -4.470  23.984  16.090  1.00141.18     0.019 A 
HETATM    8  C14 MIQ B 502      -3.744  23.185  15.065  1.00138.77     0.033 A 
HETATM    9  C15 MIQ B 502      -2.723  23.521  13.929  1.00142.10     0.195 A 
HETATM   10  N17 MIQ B 502      -2.433  22.370  13.346  1.00139.42    -0.288 N 
HETATM   11  O16 MIQ B 502      -2.224  24.783  13.601  1.00148.93    -0.171 OA
ENDROOT
BRANCH  10  12
HETATM   12  C18 MIQ B 502      -1.516  22.299  12.224  1.00139.82     0.187 C 
HETATM   13  C19 MIQ B 502      -0.246  23.069  12.608  1.00140.06     0.247 C 
HETATM   14  O25 MIQ B 502       0.289  22.823  13.630  1.00143.95    -0.271 OA
HETATM   15  N20 MIQ B 502       0.320  24.087  11.748  1.00140.02    -0.296 N 
HETATM   16  H13 MIQ B 502       1.146  24.587  12.013  1.00142.77     0.171 HD
HETATM   17  C21 MIQ B 502      -0.357  24.377  10.510  1.00142.22     0.224 C 
HETATM   18  C22 MIQ B 502      -1.869  24.252  10.515  1.00139.52     0.106 C 
HETATM   19  O24 MIQ B 502       0.238  24.691   9.539  1.00146.13    -0.273 OA
HETATM   20  C23 MIQ B 502      -2.183  22.835  10.958  1.00139.15     0.045 C 
ENDBRANCH  10  12
BRANCH   5  21
HETATM   21  N6  MIQ B 502      -6.452  21.234  17.846  1.00140.95    -0.377 N 
HETATM   22  C7  MIQ B 502      -7.401  22.041  18.595  1.00142.12     0.149 C 
HETATM   23  C8  MIQ B 502      -7.801  21.378  19.906  1.00144.10     0.187 C 
HETATM   24  O9  MIQ B 502      -8.151  20.036  19.752  1.00148.65    -0.388 OA
HETATM   25  C10 MIQ B 502      -7.911  19.376  18.544  1.00147.44     0.187 C 
HETATM   26  C11 MIQ B 502      -6.720  19.814  17.698  1.00144.08     0.149 C 
ENDBRANCH   5  21
TORSDOF 2
ENDMDL
MODEL 4
REMARK VINA RESULT:      -6.7      3.152      9.058
REMARK  2 active torsions:
REMARK  status: ('A' for Active; 'I' for Inactive)
REMARK    1  A    between atoms: C5_5  and  N6_21 
REMARK    2  A    between atoms: C18_14  and  N17_19 
ROOT
HETATM    1  O1  MIQ B 502     -19.881  14.191  15.439  1.00142.91    -0.171 OA
HETATM    2  C2  MIQ B 502     -18.859  14.263  16.388  1.00141.17     0.195 A 
HETATM    3  C3  MIQ B 502     -17.611  13.326  16.473  1.00141.71     0.035 A 
HETATM    4  C4  MIQ B 502     -17.143  12.177  15.663  1.00142.86     0.046 A 
HETATM    5  C5  MIQ B 502     -15.936  11.511  15.995  1.00139.53     0.031 A 
HETATM    6  C12 MIQ B 502     -15.153  11.960  17.137  1.00139.38     0.030 A 
HETATM    7  C13 MIQ B 502     -15.601  13.062  17.913  1.00141.18     0.019 A 
HETATM    8  C14 MIQ B 502     -16.868  13.759  17.559  1.00138.77     0.033 A 
HETATM    9  C15 MIQ B 502     -17.658  14.972  18.151  1.00142.10     0.195 A 
HETATM   10  N17 MIQ B 502     -18.728  15.118  17.388  1.00139.42    -0.288 N 
HETATM   11  O16 MIQ B 502     -17.303  15.739  19.262  1.00148.93    -0.171 OA
ENDROOT
BRANCH  10  12
HETATM   12  C18 MIQ B 502     -19.712  16.151  17.653  1.00139.82     0.187 C 
HETATM   13  C19 MIQ B 502     -18.968  17.487  17.767  1.00140.06     0.247 C 
HETATM   14  O25 MIQ B 502     -18.217  17.803  16.915  1.00143.95    -0.271 OA
HETATM   15  N20 MIQ B 502     -19.166  18.378  18.893  1.00140.02    -0.296 N 
HETATM   16  H13 MIQ B 502     -18.670  19.244  18.959  1.00142.77     0.171 HD
HETATM   17  C21 MIQ B 502     -20.081  17.965  19.926  1.00142.22     0.224 C 
HETATM   18  C22 MIQ B 502     -20.160  16.478  20.212  1.00139.52     0.106 C 
HETATM   19  O24 MIQ B 502     -20.739  18.748  20.517  1.00146.13    -0.273 OA
HETATM   20  C23 MIQ B 502     -20.523  15.806  18.901  1.00139.15     0.045 C 
ENDBRANCH  10  12
BRANCH   5  21
HETATM   21  N6  MIQ B 502     -15.497  10.377  15.202  1.00140.95    -0.377 N 
HETATM   22  C7  MIQ B 502     -14.478  10.590  14.189  1.00142.12     0.149 C 
HETATM   23  C8  MIQ B 502     -14.575   9.572  13.060  1.00144.10     0.187 C 
HETATM   24  O9  MIQ B 502     -14.693   8.260  13.521  1.00148.65    -0.388 OA
HETATM   25  C10 MIQ B 502     -14.928   8.003  14.874  1.00147.44     0.187 C 
HETATM   26  C11 MIQ B 502     -15.719   9.025  15.684  1.00144.08     0.149 C 
ENDBRANCH   5  21
TORSDOF 2
ENDMDL
MODEL 5
REMARK VINA RESULT:      -6.6     16.680     18.590
REMARK  2 active torsions:
REMARK  status: ('A' for Active; 'I' for Inactive)
REMARK    1  A    between atoms: C5_5  and  N6_21 
REMARK    2  A    between atoms: C18_14  and  N17_19 
ROOT
HETATM    1  O1  MIQ B 502     -21.470  19.310  -3.229  1.00142.91    -0.171 OA
HETATM    2  C2  MIQ B 502     -20.541  18.949  -2.251  1.00141.17     0.195 A 
HETATM    3  C3  MIQ B 502     -20.747  19.041  -0.705  1.00141.71     0.035 A 
HETATM    4  C4  MIQ B 502     -21.873  19.489   0.148  1.00142.86     0.046 A 
HETATM    5  C5  MIQ B 502     -21.761  19.453   1.561  1.00139.53     0.031 A 
HETATM    6  C12 MIQ B 502     -20.531  18.974   2.176  1.00139.38     0.030 A 
HETATM    7  C13 MIQ B 502     -19.451  18.544   1.358  1.00141.18     0.019 A 
HETATM    8  C14 MIQ B 502     -19.576  18.581  -0.124  1.00138.77     0.033 A 
HETATM    9  C15 MIQ B 502     -18.638  18.201  -1.316  1.00142.10     0.195 A 
HETATM   10  N17 MIQ B 502     -19.323  18.462  -2.418  1.00139.42    -0.288 N 
HETATM   11  O16 MIQ B 502     -17.342  17.692  -1.230  1.00148.93    -0.171 OA
ENDROOT
BRANCH  10  12
HETATM   12  C18 MIQ B 502     -18.753  18.243  -3.734  1.00139.82     0.187 C 
HETATM   13  C19 MIQ B 502     -18.062  16.874  -3.722  1.00140.06     0.247 C 
HETATM   14  O25 MIQ B 502     -18.658  15.931  -3.338  1.00143.95    -0.271 OA
HETATM   15  N20 MIQ B 502     -16.697  16.704  -4.176  1.00140.02    -0.296 N 
HETATM   16  H13 MIQ B 502     -16.255  15.806  -4.157  1.00142.77     0.171 HD
HETATM   17  C21 MIQ B 502     -15.987  17.871  -4.631  1.00142.22     0.224 C 
HETATM   18  C22 MIQ B 502     -16.317  19.181  -3.941  1.00139.52     0.106 C 
HETATM   19  O24 MIQ B 502     -15.190  17.810  -5.502  1.00146.13    -0.273 OA
HETATM   20  C23 MIQ B 502     -17.812  19.388  -4.103  1.00139.15     0.045 C 
ENDBRANCH  10  12
BRANCH   5  21
HETATM   21  N6  MIQ B 502     -22.866  19.908   2.384  1.00140.95    -0.377 N 
HETATM   22  C7  MIQ B 502     -24.154  20.138   1.752  1.00142.12     0.149 C 
HETATM   23  C8  MIQ B 502     -24.982  21.170   2.507  1.00144.10     0.187 C 
HETATM   24  O9  MIQ B 502     -25.026  20.930   3.882  1.00148.65    -0.388 OA
HETATM   25  C10 MIQ B 502     -24.189  19.973   4.461  1.00147.44     0.187 C 
HETATM   26  C11 MIQ B 502     -22.828  19.713   3.823  1.00144.08     0.149 C 
ENDBRANCH   5  21
TORSDOF 2
ENDMDL
MODEL 6
REMARK VINA RESULT:      -6.5      2.924      4.399
REMARK  2 active torsions:
REMARK  status: ('A' for Active; 'I' for Inactive)
REMARK    1  A    between atoms: C5_5  and  N6_21 
REMARK    2  A    between atoms: C18_14  and  N17_19 
ROOT
HETATM    1  O1  MIQ B 502     -19.128  12.281  14.496  1.00142.91    -0.171 OA
HETATM    2  C2  MIQ B 502     -18.034  12.441  15.349  1.00141.17     0.195 A 
HETATM    3  C3  MIQ B 502     -17.798  13.631  16.333  1.00141.71     0.035 A 
HETATM    4  C4  MIQ B 502     -18.571  14.853  16.658  1.00142.86     0.046 A 
HETATM    5  C5  MIQ B 502     -18.088  15.772  17.624  1.00139.53     0.031 A 
HETATM    6  C12 MIQ B 502     -16.824  15.512  18.299  1.00139.38     0.030 A 
HETATM    7  C13 MIQ B 502     -16.083  14.340  17.988  1.00141.18     0.019 A 
HETATM    8  C14 MIQ B 502     -16.597  13.378  16.976  1.00138.77     0.033 A 
HETATM    9  C15 MIQ B 502     -16.085  12.023  16.388  1.00142.10     0.195 A 
HETATM   10  N17 MIQ B 502     -16.994  11.640  15.507  1.00139.42    -0.288 N 
HETATM   11  O16 MIQ B 502     -14.904  11.358  16.726  1.00148.93    -0.171 OA
ENDROOT
BRANCH  10  12
HETATM   12  C18 MIQ B 502     -16.841  10.415  14.744  1.00139.82     0.187 C 
HETATM   13  C19 MIQ B 502     -16.556   9.279  15.735  1.00140.06     0.247 C 
HETATM   14  O25 MIQ B 502     -17.268   9.133  16.664  1.00143.95    -0.271 OA
HETATM   15  N20 MIQ B 502     -15.438   8.375  15.559  1.00140.02    -0.296 N 
HETATM   16  H13 MIQ B 502     -15.258   7.642  16.216  1.00142.77     0.171 HD
HETATM   17  C21 MIQ B 502     -14.577   8.581  14.422  1.00142.22     0.224 C 
HETATM   18  C22 MIQ B 502     -14.370  10.015  13.974  1.00139.52     0.106 C 
HETATM   19  O24 MIQ B 502     -14.062   7.674  13.865  1.00146.13    -0.273 OA
HETATM   20  C23 MIQ B 502     -15.749  10.580  13.688  1.00139.15     0.045 C 
ENDBRANCH  10  12
BRANCH   5  21
HETATM   21  N6  MIQ B 502     -18.848  16.972  17.922  1.00140.95    -0.377 N 
HETATM   22  C7  MIQ B 502     -19.714  16.974  19.088  1.00142.12     0.149 C 
HETATM   23  C8  MIQ B 502     -20.874  17.949  18.934  1.00144.10     0.187 C 
HETATM   24  O9  MIQ B 502     -20.469  19.209  18.489  1.00148.65    -0.388 OA
HETATM   25  C10 MIQ B 502     -19.165  19.412  18.030  1.00147.44     0.187 C 
HETATM   26  C11 MIQ B 502     -18.436  18.249  17.365  1.00144.08     0.149 C 
ENDBRANCH   5  21
TORSDOF 2
ENDMDL
MODEL 7
REMARK VINA RESULT:      -6.5      2.105      3.139
REMARK  2 active torsions:
REMARK  status: ('A' for Active; 'I' for Inactive)
REMARK    1  A    between atoms: C5_5  and  N6_21 
REMARK    2  A    between atoms: C18_14  and  N17_19 
ROOT
HETATM    1  O1  MIQ B 502     -18.942  11.084  14.798  1.00142.91    -0.171 OA
HETATM    2  C2  MIQ B 502     -17.601  11.349  15.086  1.00141.17     0.195 A 
HETATM    3  C3  MIQ B 502     -17.065  12.466  16.035  1.00141.71     0.035 A 
HETATM    4  C4  MIQ B 502     -17.724  13.504  16.862  1.00142.86     0.046 A 
HETATM    5  C5  MIQ B 502     -16.949  14.400  17.642  1.00139.53     0.031 A 
HETATM    6  C12 MIQ B 502     -15.497  14.297  17.630  1.00139.38     0.030 A 
HETATM    7  C13 MIQ B 502     -14.864  13.301  16.838  1.00141.18     0.019 A 
HETATM    8  C14 MIQ B 502     -15.683  12.362  16.023  1.00138.77     0.033 A 
HETATM    9  C15 MIQ B 502     -15.361  11.173  15.061  1.00142.10     0.195 A 
HETATM   10  N17 MIQ B 502     -16.528  10.724  14.632  1.00139.42    -0.288 N 
HETATM   11  O16 MIQ B 502     -14.095  10.690  14.724  1.00148.93    -0.171 OA
ENDROOT
BRANCH  10  12
HETATM   12  C18 MIQ B 502     -16.617   9.618  13.697  1.00139.82     0.187 C 
HETATM   13  C19 MIQ B 502     -15.830   8.441  14.287  1.00140.06     0.247 C 
HETATM   14  O25 MIQ B 502     -16.050   8.100  15.395  1.00143.95    -0.271 OA
HETATM   15  N20 MIQ B 502     -14.827   7.731  13.521  1.00140.02    -0.296 N 
HETATM   16  H13 MIQ B 502     -14.316   6.969  13.921  1.00142.77     0.171 HD
HETATM   17  C21 MIQ B 502     -14.569   8.174  12.175  1.00142.22     0.224 C 
HETATM   18  C22 MIQ B 502     -14.705   9.660  11.908  1.00139.52     0.106 C 
HETATM   19  O24 MIQ B 502     -14.272   7.412  11.321  1.00146.13    -0.273 OA
HETATM   20  C23 MIQ B 502     -16.114  10.045  12.318  1.00139.15     0.045 C 
ENDBRANCH  10  12
BRANCH   5  21
HETATM   21  N6  MIQ B 502     -17.608  15.421  18.435  1.00140.95    -0.377 N 
HETATM   22  C7  MIQ B 502     -17.736  16.757  17.879  1.00142.12     0.149 C 
HETATM   23  C8  MIQ B 502     -17.824  17.820  18.967  1.00144.10     0.187 C 
HETATM   24  O9  MIQ B 502     -18.744  17.498  19.967  1.00148.65    -0.388 OA
HETATM   25  C10 MIQ B 502     -19.310  16.222  20.025  1.00147.44     0.187 C 
HETATM   26  C11 MIQ B 502     -18.491  15.038  19.523  1.00144.08     0.149 C 
ENDBRANCH   5  21
TORSDOF 2
ENDMDL
MODEL 8
REMARK VINA RESULT:      -6.5      1.962      2.294
REMARK  2 active torsions:
REMARK  status: ('A' for Active; 'I' for Inactive)
REMARK    1  A    between atoms: C5_5  and  N6_21 
REMARK    2  A    between atoms: C18_14  and  N17_19 
ROOT
HETATM    1  O1  MIQ B 502     -14.455  11.030  14.717  1.00142.91    -0.171 OA
HETATM    2  C2  MIQ B 502     -15.834  10.872  14.872  1.00141.17     0.195 A 
HETATM    3  C3  MIQ B 502     -16.784  11.811  15.682  1.00141.71     0.035 A 
HETATM    4  C4  MIQ B 502     -16.566  13.050  16.466  1.00142.86     0.046 A 
HETATM    5  C5  MIQ B 502     -17.656  13.695  17.104  1.00139.53     0.031 A 
HETATM    6  C12 MIQ B 502     -18.996  13.136  16.986  1.00139.38     0.030 A 
HETATM    7  C13 MIQ B 502     -19.205  11.950  16.233  1.00141.18     0.019 A 
HETATM    8  C14 MIQ B 502     -18.057  11.278  15.564  1.00138.77     0.033 A 
HETATM    9  C15 MIQ B 502     -17.896  10.001  14.675  1.00142.10     0.195 A 
HETATM   10  N17 MIQ B 502     -16.610   9.923  14.378  1.00139.42    -0.288 N 
HETATM   11  O16 MIQ B 502     -18.909   9.124  14.282  1.00148.93    -0.171 OA
ENDROOT
BRANCH  10  12
HETATM   12  C18 MIQ B 502     -16.084   8.839  13.569  1.00139.82     0.187 C 
HETATM   13  C19 MIQ B 502     -14.935   8.189  14.348  1.00140.06     0.247 C 
HETATM   14  O25 MIQ B 502     -15.112   7.858  15.467  1.00143.95    -0.271 OA
HETATM   15  N20 MIQ B 502     -13.636   7.963  13.748  1.00140.02    -0.296 N 
HETATM   16  H13 MIQ B 502     -12.892   7.543  14.269  1.00142.77     0.171 HD
HETATM   17  C21 MIQ B 502     -13.441   8.385  12.385  1.00142.22     0.224 C 
HETATM   18  C22 MIQ B 502     -14.190   9.628  11.942  1.00139.52     0.106 C 
HETATM   19  O24 MIQ B 502     -12.736   7.788  11.648  1.00146.13    -0.273 OA
HETATM   20  C23 MIQ B 502     -15.662   9.357  12.195  1.00139.15     0.045 C 
ENDBRANCH  10  12
BRANCH   5  21
HETATM   21  N6  MIQ B 502     -17.426  14.899  17.881  1.00140.95    -0.377 N 
HETATM   22  C7  MIQ B 502     -18.273  15.153  19.034  1.00142.12     0.149 C 
HETATM   23  C8  MIQ B 502     -18.381  16.641  19.344  1.00144.10     0.187 C 
HETATM   24  O9  MIQ B 502     -17.142  17.284  19.360  1.00148.65    -0.388 OA
HETATM   25  C10 MIQ B 502     -15.997  16.626  18.901  1.00147.44     0.187 C 
HETATM   26  C11 MIQ B 502     -16.148  15.582  17.799  1.00144.08     0.149 C 
ENDBRANCH   5  21
TORSDOF 2
ENDMDL
MODEL 9
REMARK VINA RESULT:      -6.4     13.665     17.391
REMARK  2 active torsions:
REMARK  status: ('A' for Active; 'I' for Inactive)
REMARK    1  A    between atoms: C5_5  and  N6_21 
REMARK    2  A    between atoms: C18_14  and  N17_19 
ROOT
HETATM    1  O1  MIQ B 502      -1.501  21.218  12.870  1.00142.91    -0.171 OA
HETATM    2  C2  MIQ B 502      -2.473  21.556  13.814  1.00141.17     0.195 A 
HETATM    3  C3  MIQ B 502      -3.340  20.556  14.644  1.00141.71     0.035 A 
HETATM    4  C4  MIQ B 502      -3.411  19.077  14.705  1.00142.86     0.046 A 
HETATM    5  C5  MIQ B 502      -4.323  18.438  15.583  1.00139.53     0.031 A 
HETATM    6  C12 MIQ B 502      -5.193  19.242  16.429  1.00139.38     0.030 A 
HETATM    7  C13 MIQ B 502      -5.125  20.660  16.371  1.00141.18     0.019 A 
HETATM    8  C14 MIQ B 502      -4.164  21.324  15.449  1.00138.77     0.033 A 
HETATM    9  C15 MIQ B 502      -3.806  22.810  15.118  1.00142.10     0.195 A 
HETATM   10  N17 MIQ B 502      -2.856  22.761  14.200  1.00139.42    -0.288 N 
HETATM   11  O16 MIQ B 502      -4.380  23.953  15.679  1.00148.93    -0.171 OA
ENDROOT
BRANCH  10  12
HETATM   12  C18 MIQ B 502      -2.283  23.970  13.637  1.00139.82     0.187 C 
HETATM   13  C19 MIQ B 502      -2.244  23.803  12.113  1.00140.06     0.247 C 
HETATM   14  O25 MIQ B 502      -3.223  23.473  11.544  1.00143.95    -0.271 OA
HETATM   15  N20 MIQ B 502      -1.037  24.045  11.349  1.00140.02    -0.296 N 
HETATM   16  H13 MIQ B 502      -1.023  23.926  10.355  1.00142.77     0.171 HD
HETATM   17  C21 MIQ B 502       0.148  24.436  12.067  1.00142.22     0.224 C 
HETATM   18  C22 MIQ B 502       0.326  23.855  13.457  1.00139.52     0.106 C 
HETATM   19  O24 MIQ B 502       0.939  25.178  11.597  1.00146.13    -0.273 OA
HETATM   20  C23 MIQ B 502      -0.910  24.243  14.248  1.00139.15     0.045 C 
ENDBRANCH  10  12
BRANCH   5  21
HETATM   21  N6  MIQ B 502      -4.392  16.989  15.621  1.00140.95    -0.377 N 
HETATM   22  C7  MIQ B 502      -3.254  16.226  15.137  1.00142.12     0.149 C 
HETATM   23  C8  MIQ B 502      -3.666  14.848  14.635  1.00144.10     0.187 C 
HETATM   24  O9  MIQ B 502      -4.501  14.172  15.527  1.00148.65    -0.388 OA
HETATM   25  C10 MIQ B 502      -5.050  14.839  16.626  1.00147.44     0.187 C 
HETATM   26  C11 MIQ B 502      -5.339  16.331  16.504  1.00144.08     0.149 C 
ENDBRANCH   5  21
TORSDOF 2
ENDMDL
