MODEL 1
REMARK VINA RESULT:      -7.1      0.000      0.000
REMARK  2 active torsions:
REMARK  status: ('A' for Active; 'I' for Inactive)
REMARK    1  A    between atoms: C5_5  and  N6_21 
REMARK    2  A    between atoms: C18_14  and  N17_19 
ROOT
HETATM    1  O1  MIQ B 502      12.625  -5.249  14.210  1.00142.91    -0.171 OA
HETATM    2  C2  MIQ B 502      12.733  -3.857  14.232  1.00141.17     0.195 A 
HETATM    3  C3  MIQ B 502      13.737  -3.024  15.092  1.00141.71     0.035 A 
HETATM    4  C4  MIQ B 502      14.796  -3.390  16.062  1.00142.86     0.046 A 
HETATM    5  C5  MIQ B 502      15.564  -2.382  16.699  1.00139.53     0.031 A 
HETATM    6  C12 MIQ B 502      15.310  -0.981  16.397  1.00139.38     0.030 A 
HETATM    7  C13 MIQ B 502      14.296  -0.630  15.465  1.00141.18     0.019 A 
HETATM    8  C14 MIQ B 502      13.494  -1.692  14.798  1.00138.77     0.033 A 
HETATM    9  C15 MIQ B 502      12.334  -1.698  13.750  1.00142.10     0.195 A 
HETATM   10  N17 MIQ B 502      12.034  -2.970  13.546  1.00139.42    -0.288 N 
HETATM   11  O16 MIQ B 502      11.739  -0.584  13.155  1.00148.93    -0.171 OA
ENDROOT
BRANCH  10  12
HETATM   12  C18 MIQ B 502      10.976  -3.361  12.632  1.00139.82     0.187 C 
HETATM   13  C19 MIQ B 502       9.971  -4.213  13.417  1.00140.06     0.247 C 
HETATM   14  O25 MIQ B 502       9.543  -3.805  14.437  1.00143.95    -0.271 OA
HETATM   15  N20 MIQ B 502       9.527  -5.506  12.937  1.00140.02    -0.296 N 
HETATM   16  H13 MIQ B 502       8.876  -6.056  13.463  1.00142.77     0.171 HD
HETATM   17  C21 MIQ B 502      10.073  -5.988  11.695  1.00142.22     0.224 C 
HETATM   18  C22 MIQ B 502      11.506  -5.601  11.384  1.00139.52     0.106 C 
HETATM   19  O24 MIQ B 502       9.431  -6.647  10.953  1.00146.13    -0.273 OA
HETATM   20  C23 MIQ B 502      11.561  -4.085  11.420  1.00139.15     0.045 C 
ENDBRANCH  10  12
BRANCH   5  21
HETATM   21  N6  MIQ B 502      16.587  -2.755  17.659  1.00140.95    -0.377 N 
HETATM   22  C7  MIQ B 502      17.925  -2.212  17.493  1.00142.12     0.149 C 
HETATM   23  C8  MIQ B 502      18.986  -3.121  18.100  1.00144.10     0.187 C 
HETATM   24  O9  MIQ B 502      18.668  -3.540  19.393  1.00148.65    -0.388 OA
HETATM   25  C10 MIQ B 502      17.395  -3.308  19.919  1.00147.44     0.187 C 
HETATM   26  C11 MIQ B 502      16.207  -3.268  18.963  1.00144.08     0.149 C 
ENDBRANCH   5  21
TORSDOF 2
ENDMDL
MODEL 2
REMARK VINA RESULT:      -7.1      4.270      6.625
REMARK  2 active torsions:
REMARK  status: ('A' for Active; 'I' for Inactive)
REMARK    1  A    between atoms: C5_5  and  N6_21 
REMARK    2  A    between atoms: C18_14  and  N17_19 
ROOT
HETATM    1  O1  MIQ B 502      10.762  -2.141  16.064  1.00142.91    -0.171 OA
HETATM    2  C2  MIQ B 502      10.959  -1.456  14.863  1.00141.17     0.195 A 
HETATM    3  C3  MIQ B 502      10.798   0.081  14.641  1.00141.71     0.035 A 
HETATM    4  C4  MIQ B 502      10.425   1.206  15.531  1.00142.86     0.046 A 
HETATM    5  C5  MIQ B 502      10.363   2.530  15.027  1.00139.53     0.031 A 
HETATM    6  C12 MIQ B 502      10.668   2.784  13.627  1.00139.38     0.030 A 
HETATM    7  C13 MIQ B 502      11.027   1.707  12.773  1.00141.18     0.019 A 
HETATM    8  C14 MIQ B 502      11.093   0.319  13.308  1.00138.77     0.033 A 
HETATM    9  C15 MIQ B 502      11.440  -1.078  12.700  1.00142.10     0.195 A 
HETATM   10  N17 MIQ B 502      11.321  -1.947  13.690  1.00139.42    -0.288 N 
HETATM   11  O16 MIQ B 502      11.800  -1.349  11.378  1.00148.93    -0.171 OA
ENDROOT
BRANCH  10  12
HETATM   12  C18 MIQ B 502      11.556  -3.365  13.486  1.00139.82     0.187 C 
HETATM   13  C19 MIQ B 502      10.318  -4.120  13.984  1.00140.06     0.247 C 
HETATM   14  O25 MIQ B 502       9.251  -3.792  13.604  1.00143.95    -0.271 OA
HETATM   15  N20 MIQ B 502      10.422  -5.233  14.906  1.00140.02    -0.296 N 
HETATM   16  H13 MIQ B 502       9.606  -5.714  15.229  1.00142.77     0.171 HD
HETATM   17  C21 MIQ B 502      11.735  -5.609  15.365  1.00142.22     0.224 C 
HETATM   18  C22 MIQ B 502      12.745  -4.490  15.531  1.00139.52     0.106 C 
HETATM   19  O24 MIQ B 502      12.010  -6.735  15.594  1.00146.13    -0.273 OA
HETATM   20  C23 MIQ B 502      12.845  -3.796  14.184  1.00139.15     0.045 C 
ENDBRANCH  10  12
BRANCH   5  21
HETATM   21  N6  MIQ B 502       9.981   3.619  15.907  1.00140.95    -0.377 N 
HETATM   22  C7  MIQ B 502       9.371   3.298  17.186  1.00142.12     0.149 C 
HETATM   23  C8  MIQ B 502       8.472   4.422  17.685  1.00144.10     0.187 C 
HETATM   24  O9  MIQ B 502       9.080   5.677  17.612  1.00148.65    -0.388 OA
HETATM   25  C10 MIQ B 502      10.287   5.840  16.927  1.00147.44     0.187 C 
HETATM   26  C11 MIQ B 502      10.579   4.932  15.737  1.00144.08     0.149 C 
ENDBRANCH   5  21
TORSDOF 2
ENDMDL
MODEL 3
REMARK VINA RESULT:      -6.8     19.392     22.130
REMARK  2 active torsions:
REMARK  status: ('A' for Active; 'I' for Inactive)
REMARK    1  A    between atoms: C5_5  and  N6_21 
REMARK    2  A    between atoms: C18_14  and  N17_19 
ROOT
HETATM    1  O1  MIQ B 502      23.090 -20.198   6.200  1.00142.91    -0.171 OA
HETATM    2  C2  MIQ B 502      21.780 -20.283   5.724  1.00141.17     0.195 A 
HETATM    3  C3  MIQ B 502      21.308 -19.982   4.266  1.00141.71     0.035 A 
HETATM    4  C4  MIQ B 502      22.013 -19.556   3.034  1.00142.86     0.046 A 
HETATM    5  C5  MIQ B 502      21.293 -19.360   1.828  1.00139.53     0.031 A 
HETATM    6  C12 MIQ B 502      19.854 -19.580   1.801  1.00139.38     0.030 A 
HETATM    7  C13 MIQ B 502      19.178 -19.989   2.982  1.00141.18     0.019 A 
HETATM    8  C14 MIQ B 502      19.939 -20.195   4.244  1.00138.77     0.033 A 
HETATM    9  C15 MIQ B 502      19.560 -20.631   5.697  1.00142.10     0.195 A 
HETATM   10  N17 MIQ B 502      20.690 -20.631   6.385  1.00139.42    -0.288 N 
HETATM   11  O16 MIQ B 502      18.285 -20.952   6.168  1.00148.93    -0.171 OA
ENDROOT
BRANCH  10  12
HETATM   12  C18 MIQ B 502      20.718 -20.975   7.795  1.00139.82     0.187 C 
HETATM   13  C19 MIQ B 502      20.079 -22.360   7.951  1.00140.06     0.247 C 
HETATM   14  O25 MIQ B 502      20.457 -23.249   7.274  1.00143.95    -0.271 OA
HETATM   15  N20 MIQ B 502      19.026 -22.611   8.914  1.00140.02    -0.296 N 
HETATM   16  H13 MIQ B 502      18.612 -23.518   9.002  1.00142.77     0.171 HD
HETATM   17  C21 MIQ B 502      18.574 -21.508   9.722  1.00142.22     0.224 C 
HETATM   18  C22 MIQ B 502      18.594 -20.136   9.076  1.00139.52     0.106 C 
HETATM   19  O24 MIQ B 502      18.213 -21.666  10.836  1.00146.13    -0.273 OA
HETATM   20  C23 MIQ B 502      20.021 -19.894   8.620  1.00139.15     0.045 C 
ENDBRANCH  10  12
BRANCH   5  21
HETATM   21  N6  MIQ B 502      21.994 -18.929   0.632  1.00140.95    -0.377 N 
HETATM   22  C7  MIQ B 502      22.675 -19.929  -0.173  1.00142.12     0.149 C 
HETATM   23  C8  MIQ B 502      23.840 -19.334  -0.954  1.00144.10     0.187 C 
HETATM   24  O9  MIQ B 502      23.500 -18.158  -1.625  1.00148.65    -0.388 OA
HETATM   25  C10 MIQ B 502      22.279 -17.526  -1.372  1.00147.44     0.187 C 
HETATM   26  C11 MIQ B 502      21.665 -17.655   0.018  1.00144.08     0.149 C 
ENDBRANCH   5  21
TORSDOF 2
ENDMDL
MODEL 4
REMARK VINA RESULT:      -6.6      5.583      9.127
REMARK  2 active torsions:
REMARK  status: ('A' for Active; 'I' for Inactive)
REMARK    1  A    between atoms: C5_5  and  N6_21 
REMARK    2  A    between atoms: C18_14  and  N17_19 
ROOT
HETATM    1  O1  MIQ B 502      10.913   0.791  17.877  1.00142.91    -0.171 OA
HETATM    2  C2  MIQ B 502      10.927   1.652  16.778  1.00141.17     0.195 A 
HETATM    3  C3  MIQ B 502      11.080   1.233  15.281  1.00141.71     0.035 A 
HETATM    4  C4  MIQ B 502      11.241  -0.073  14.600  1.00142.86     0.046 A 
HETATM    5  C5  MIQ B 502      11.357  -0.136  13.188  1.00139.53     0.031 A 
HETATM    6  C12 MIQ B 502      11.316   1.090  12.404  1.00139.38     0.030 A 
HETATM    7  C13 MIQ B 502      11.161   2.343  13.057  1.00141.18     0.019 A 
HETATM    8  C14 MIQ B 502      11.038   2.402  14.539  1.00138.77     0.033 A 
HETATM    9  C15 MIQ B 502      10.856   3.554  15.581  1.00142.10     0.195 A 
HETATM   10  N17 MIQ B 502      10.811   2.969  16.767  1.00139.42    -0.288 N 
HETATM   11  O16 MIQ B 502      10.764   4.920  15.310  1.00148.93    -0.171 OA
ENDROOT
BRANCH  10  12
HETATM   12  C18 MIQ B 502      10.663   3.741  17.987  1.00139.82     0.187 C 
HETATM   13  C19 MIQ B 502       9.420   4.625  17.834  1.00140.06     0.247 C 
HETATM   14  O25 MIQ B 502       8.401   4.133  17.498  1.00143.95    -0.271 OA
HETATM   15  N20 MIQ B 502       9.458   6.049  18.095  1.00140.02    -0.296 N 
HETATM   16  H13 MIQ B 502       8.641   6.616  17.985  1.00142.77     0.171 HD
HETATM   17  C21 MIQ B 502      10.716   6.628  18.494  1.00142.22     0.224 C 
HETATM   18  C22 MIQ B 502      11.968   6.010  17.902  1.00139.52     0.106 C 
HETATM   19  O24 MIQ B 502      10.766   7.536  19.248  1.00146.13    -0.273 OA
HETATM   20  C23 MIQ B 502      11.936   4.537  18.269  1.00139.15     0.045 C 
ENDBRANCH  10  12
BRANCH   5  21
HETATM   21  N6  MIQ B 502      11.529  -1.421  12.535  1.00140.95    -0.377 N 
HETATM   22  C7  MIQ B 502      10.920  -2.594  13.139  1.00142.12     0.149 C 
HETATM   23  C8  MIQ B 502      11.666  -3.872  12.777  1.00144.10     0.187 C 
HETATM   24  O9  MIQ B 502      11.936  -3.976  11.411  1.00148.65    -0.388 OA
HETATM   25  C10 MIQ B 502      11.728  -2.885  10.564  1.00147.44     0.187 C 
HETATM   26  C11 MIQ B 502      11.895  -1.479  11.131  1.00144.08     0.149 C 
ENDBRANCH   5  21
TORSDOF 2
ENDMDL
MODEL 5
REMARK VINA RESULT:      -6.6      1.670      2.735
REMARK  2 active torsions:
REMARK  status: ('A' for Active; 'I' for Inactive)
REMARK    1  A    between atoms: C5_5  and  N6_21 
REMARK    2  A    between atoms: C18_14  and  N17_19 
ROOT
HETATM    1  O1  MIQ B 502      12.448  -0.725  13.174  1.00142.91    -0.171 OA
HETATM    2  C2  MIQ B 502      12.654  -1.854  13.971  1.00141.17     0.195 A 
HETATM    3  C3  MIQ B 502      13.619  -1.955  15.194  1.00141.71     0.035 A 
HETATM    4  C4  MIQ B 502      14.537  -0.994  15.851  1.00142.86     0.046 A 
HETATM    5  C5  MIQ B 502      15.304  -1.389  16.976  1.00139.53     0.031 A 
HETATM    6  C12 MIQ B 502      15.187  -2.747  17.489  1.00139.38     0.030 A 
HETATM    7  C13 MIQ B 502      14.306  -3.668  16.861  1.00141.18     0.019 A 
HETATM    8  C14 MIQ B 502      13.502  -3.247  15.681  1.00138.77     0.033 A 
HETATM    9  C15 MIQ B 502      12.458  -3.951  14.755  1.00142.10     0.195 A 
HETATM   10  N17 MIQ B 502      12.087  -3.043  13.867  1.00139.42    -0.288 N 
HETATM   11  O16 MIQ B 502      12.013  -5.271  14.849  1.00148.93    -0.171 OA
ENDROOT
BRANCH  10  12
HETATM   12  C18 MIQ B 502      11.126  -3.352  12.824  1.00139.82     0.187 C 
HETATM   13  C19 MIQ B 502       9.880  -3.942  13.497  1.00140.06     0.247 C 
HETATM   14  O25 MIQ B 502       9.383  -3.364  14.397  1.00143.95    -0.271 OA
HETATM   15  N20 MIQ B 502       9.292  -5.189  13.054  1.00140.02    -0.296 N 
HETATM   16  H13 MIQ B 502       8.482  -5.567  13.505  1.00142.77     0.171 HD
HETATM   17  C21 MIQ B 502       9.923  -5.882  11.960  1.00142.22     0.224 C 
HETATM   18  C22 MIQ B 502      11.432  -5.768  11.861  1.00139.52     0.106 C 
HETATM   19  O24 MIQ B 502       9.293  -6.504  11.176  1.00146.13    -0.273 OA
HETATM   20  C23 MIQ B 502      11.748  -4.286  11.787  1.00139.15     0.045 C 
ENDBRANCH  10  12
BRANCH   5  21
HETATM   21  N6  MIQ B 502      16.210  -0.442  17.599  1.00140.95    -0.377 N 
HETATM   22  C7  MIQ B 502      15.683   0.465  18.605  1.00142.12     0.149 C 
HETATM   23  C8  MIQ B 502      16.493   1.752  18.691  1.00144.10     0.187 C 
HETATM   24  O9  MIQ B 502      17.869   1.525  18.754  1.00148.65    -0.388 OA
HETATM   25  C10 MIQ B 502      18.387   0.248  18.522  1.00147.44     0.187 C 
HETATM   26  C11 MIQ B 502      17.643  -0.678  17.565  1.00144.08     0.149 C 
ENDBRANCH   5  21
TORSDOF 2
ENDMDL
MODEL 6
REMARK VINA RESULT:      -6.6      5.394      7.640
REMARK  2 active torsions:
REMARK  status: ('A' for Active; 'I' for Inactive)
REMARK    1  A    between atoms: C5_5  and  N6_21 
REMARK    2  A    between atoms: C18_14  and  N17_19 
ROOT
HETATM    1  O1  MIQ B 502      11.064   1.563  13.130  1.00142.91    -0.171 OA
HETATM    2  C2  MIQ B 502      11.497   1.125  14.384  1.00141.17     0.195 A 
HETATM    3  C3  MIQ B 502      11.301   1.874  15.741  1.00141.71     0.035 A 
HETATM    4  C4  MIQ B 502      10.659   3.157  16.113  1.00142.86     0.046 A 
HETATM    5  C5  MIQ B 502      10.638   3.582  17.465  1.00139.53     0.031 A 
HETATM    6  C12 MIQ B 502      11.250   2.753  18.493  1.00139.38     0.030 A 
HETATM    7  C13 MIQ B 502      11.865   1.522  18.137  1.00141.18     0.019 A 
HETATM    8  C14 MIQ B 502      11.882   1.079  16.716  1.00138.77     0.033 A 
HETATM    9  C15 MIQ B 502      12.440  -0.171  15.960  1.00142.10     0.195 A 
HETATM   10  N17 MIQ B 502      12.142   0.010  14.684  1.00139.42    -0.288 N 
HETATM   11  O16 MIQ B 502      13.117  -1.254  16.523  1.00148.93    -0.171 OA
ENDROOT
BRANCH  10  12
HETATM   12  C18 MIQ B 502      12.525  -0.956  13.672  1.00139.82     0.187 C 
HETATM   13  C19 MIQ B 502      13.303  -0.209  12.583  1.00140.06     0.247 C 
HETATM   14  O25 MIQ B 502      14.206   0.484  12.892  1.00143.95    -0.271 OA
HETATM   15  N20 MIQ B 502      12.966  -0.336  11.180  1.00140.02    -0.296 N 
HETATM   16  H13 MIQ B 502      13.478   0.162  10.479  1.00142.77     0.171 HD
HETATM   17  C21 MIQ B 502      11.854  -1.181  10.827  1.00142.22     0.224 C 
HETATM   18  C22 MIQ B 502      10.703  -1.238  11.813  1.00139.52     0.106 C 
HETATM   19  O24 MIQ B 502      11.844  -1.802   9.822  1.00146.13    -0.273 OA
HETATM   20  C23 MIQ B 502      11.292  -1.684  13.139  1.00139.15     0.045 C 
ENDBRANCH  10  12
BRANCH   5  21
HETATM   21  N6  MIQ B 502      10.019   4.848  17.813  1.00140.95    -0.377 N 
HETATM   22  C7  MIQ B 502      10.864   6.025  17.932  1.00142.12     0.149 C 
HETATM   23  C8  MIQ B 502      10.269   7.058  18.880  1.00144.10     0.187 C 
HETATM   24  O9  MIQ B 502       8.920   7.315  18.626  1.00148.65    -0.388 OA
HETATM   25  C10 MIQ B 502       8.199   6.506  17.743  1.00147.44     0.187 C 
HETATM   26  C11 MIQ B 502       8.594   5.039  17.611  1.00144.08     0.149 C 
ENDBRANCH   5  21
TORSDOF 2
ENDMDL
MODEL 7
REMARK VINA RESULT:      -6.5     20.905     23.686
REMARK  2 active torsions:
REMARK  status: ('A' for Active; 'I' for Inactive)
REMARK    1  A    between atoms: C5_5  and  N6_21 
REMARK    2  A    between atoms: C18_14  and  N17_19 
ROOT
HETATM    1  O1  MIQ B 502      17.467 -22.479  -0.506  1.00142.91    -0.171 OA
HETATM    2  C2  MIQ B 502      18.355 -21.419  -0.701  1.00141.17     0.195 A 
HETATM    3  C3  MIQ B 502      19.102 -20.624   0.417  1.00141.71     0.035 A 
HETATM    4  C4  MIQ B 502      19.120 -20.719   1.896  1.00142.86     0.046 A 
HETATM    5  C5  MIQ B 502      19.922 -19.834   2.662  1.00139.53     0.031 A 
HETATM    6  C12 MIQ B 502      20.731 -18.828   1.989  1.00139.38     0.030 A 
HETATM    7  C13 MIQ B 502      20.715 -18.738   0.571  1.00141.18     0.019 A 
HETATM    8  C14 MIQ B 502      19.874 -19.671  -0.227  1.00138.77     0.033 A 
HETATM    9  C15 MIQ B 502      19.604 -19.875  -1.754  1.00142.10     0.195 A 
HETATM   10  N17 MIQ B 502      18.748 -20.879  -1.842  1.00139.42    -0.288 N 
HETATM   11  O16 MIQ B 502      20.157 -19.142  -2.805  1.00148.93    -0.171 OA
ENDROOT
BRANCH  10  12
HETATM   12  C18 MIQ B 502      18.254 -21.342  -3.125  1.00139.82     0.187 C 
HETATM   13  C19 MIQ B 502      16.721 -21.356  -3.059  1.00140.06     0.247 C 
HETATM   14  O25 MIQ B 502      16.152 -20.390  -2.691  1.00143.95    -0.271 OA
HETATM   15  N20 MIQ B 502      15.950 -22.520  -3.443  1.00140.02    -0.296 N 
HETATM   16  H13 MIQ B 502      14.951 -22.518  -3.389  1.00142.77     0.171 HD
HETATM   17  C21 MIQ B 502      16.668 -23.690  -3.879  1.00142.22     0.224 C 
HETATM   18  C22 MIQ B 502      18.012 -23.948  -3.226  1.00139.52     0.106 C 
HETATM   19  O24 MIQ B 502      16.231 -24.409  -4.709  1.00146.13    -0.273 OA
HETATM   20  C23 MIQ B 502      18.852 -22.706  -3.465  1.00139.15     0.045 C 
ENDBRANCH  10  12
BRANCH   5  21
HETATM   21  N6  MIQ B 502      19.919 -19.929   4.110  1.00140.95    -0.377 N 
HETATM   22  C7  MIQ B 502      19.356 -21.118   4.727  1.00142.12     0.149 C 
HETATM   23  C8  MIQ B 502      18.832 -20.836   6.130  1.00144.10     0.187 C 
HETATM   24  O9  MIQ B 502      19.742 -20.129   6.918  1.00148.65    -0.388 OA
HETATM   25  C10 MIQ B 502      20.886 -19.567   6.346  1.00147.44     0.187 C 
HETATM   26  C11 MIQ B 502      20.826 -19.108   4.893  1.00144.08     0.149 C 
ENDBRANCH   5  21
TORSDOF 2
ENDMDL
MODEL 8
REMARK VINA RESULT:      -6.4     18.853     21.497
REMARK  2 active torsions:
REMARK  status: ('A' for Active; 'I' for Inactive)
REMARK    1  A    between atoms: C5_5  and  N6_21 
REMARK    2  A    between atoms: C18_14  and  N17_19 
ROOT
HETATM    1  O1  MIQ B 502      21.611 -18.086   7.634  1.00142.91    -0.171 OA
HETATM    2  C2  MIQ B 502      20.933 -19.260   7.296  1.00141.17     0.195 A 
HETATM    3  C3  MIQ B 502      20.581 -19.737   5.851  1.00141.71     0.035 A 
HETATM    4  C4  MIQ B 502      20.823 -19.171   4.503  1.00142.86     0.046 A 
HETATM    5  C5  MIQ B 502      20.373 -19.855   3.346  1.00139.53     0.031 A 
HETATM    6  C12 MIQ B 502      19.669 -21.122   3.484  1.00139.38     0.030 A 
HETATM    7  C13 MIQ B 502      19.437 -21.666   4.776  1.00141.18     0.019 A 
HETATM    8  C14 MIQ B 502      19.915 -20.944   5.987  1.00138.77     0.033 A 
HETATM    9  C15 MIQ B 502      19.854 -21.218   7.526  1.00142.10     0.195 A 
HETATM   10  N17 MIQ B 502      20.462 -20.195   8.103  1.00139.42    -0.288 N 
HETATM   11  O16 MIQ B 502      19.271 -22.319   8.156  1.00148.93    -0.171 OA
ENDROOT
BRANCH  10  12
HETATM   12  C18 MIQ B 502      20.583 -20.102   9.546  1.00139.82     0.187 C 
HETATM   13  C19 MIQ B 502      21.302 -21.364  10.037  1.00140.06     0.247 C 
HETATM   14  O25 MIQ B 502      22.319 -21.682   9.530  1.00143.95    -0.271 OA
HETATM   15  N20 MIQ B 502      20.771 -22.176  11.113  1.00140.02    -0.296 N 
HETATM   16  H13 MIQ B 502      21.247 -23.001  11.421  1.00142.77     0.171 HD
HETATM   17  C21 MIQ B 502      19.524 -21.772  11.710  1.00142.22     0.224 C 
HETATM   18  C22 MIQ B 502      18.513 -21.110  10.793  1.00139.52     0.106 C 
HETATM   19  O24 MIQ B 502      19.303 -21.946  12.858  1.00146.13    -0.273 OA
HETATM   20  C23 MIQ B 502      19.208 -19.907  10.183  1.00139.15     0.045 C 
ENDBRANCH  10  12
BRANCH   5  21
HETATM   21  N6  MIQ B 502      20.604 -19.281   2.033  1.00140.95    -0.377 N 
HETATM   22  C7  MIQ B 502      19.619 -19.513   0.991  1.00142.12     0.149 C 
HETATM   23  C8  MIQ B 502      20.236 -19.447  -0.400  1.00144.10     0.187 C 
HETATM   24  O9  MIQ B 502      21.046 -18.324  -0.583  1.00148.65    -0.388 OA
HETATM   25  C10 MIQ B 502      21.396 -17.520   0.504  1.00147.44     0.187 C 
HETATM   26  C11 MIQ B 502      21.522 -18.167   1.880  1.00144.08     0.149 C 
ENDBRANCH   5  21
TORSDOF 2
ENDMDL
MODEL 9
REMARK VINA RESULT:      -6.4     12.711     15.839
REMARK  2 active torsions:
REMARK  status: ('A' for Active; 'I' for Inactive)
REMARK    1  A    between atoms: C5_5  and  N6_21 
REMARK    2  A    between atoms: C18_14  and  N17_19 
ROOT
HETATM    1  O1  MIQ B 502       6.676 -16.515  14.485  1.00142.91    -0.171 OA
HETATM    2  C2  MIQ B 502       6.298 -15.171  14.529  1.00141.17     0.195 A 
HETATM    3  C3  MIQ B 502       5.444 -14.418  13.460  1.00141.71     0.035 A 
HETATM    4  C4  MIQ B 502       4.815 -14.830  12.182  1.00142.86     0.046 A 
HETATM    5  C5  MIQ B 502       4.080 -13.895  11.410  1.00139.53     0.031 A 
HETATM    6  C12 MIQ B 502       3.943 -12.523  11.876  1.00139.38     0.030 A 
HETATM    7  C13 MIQ B 502       4.545 -12.127  13.101  1.00141.18     0.019 A 
HETATM    8  C14 MIQ B 502       5.313 -13.114  13.909  1.00138.77     0.033 A 
HETATM    9  C15 MIQ B 502       6.089 -13.057  15.265  1.00142.10     0.195 A 
HETATM   10  N17 MIQ B 502       6.569 -14.274  15.462  1.00139.42    -0.288 N 
HETATM   11  O16 MIQ B 502       6.244 -11.945  16.094  1.00148.93    -0.171 OA
ENDROOT
BRANCH  10  12
HETATM   12  C18 MIQ B 502       7.367 -14.594  16.630  1.00139.82     0.187 C 
HETATM   13  C19 MIQ B 502       8.674 -15.232  16.144  1.00140.06     0.247 C 
HETATM   14  O25 MIQ B 502       9.309 -14.684  15.314  1.00143.95    -0.271 OA
HETATM   15  N20 MIQ B 502       9.156 -16.488  16.680  1.00140.02    -0.296 N 
HETATM   16  H13 MIQ B 502      10.008 -16.898  16.349  1.00142.77     0.171 HD
HETATM   17  C21 MIQ B 502       8.359 -17.143  17.685  1.00142.22     0.224 C 
HETATM   18  C22 MIQ B 502       6.855 -16.983  17.573  1.00139.52     0.106 C 
HETATM   19  O24 MIQ B 502       8.855 -17.769  18.556  1.00146.13    -0.273 OA
HETATM   20  C23 MIQ B 502       6.579 -15.490  17.584  1.00139.15     0.045 C 
ENDBRANCH  10  12
BRANCH   5  21
HETATM   21  N6  MIQ B 502       3.482 -14.309  10.154  1.00140.95    -0.377 N 
HETATM   22  C7  MIQ B 502       2.153 -13.823   9.824  1.00142.12     0.149 C 
HETATM   23  C8  MIQ B 502       1.415 -14.775   8.892  1.00144.10     0.187 C 
HETATM   24  O9  MIQ B 502       2.190 -15.180   7.803  1.00148.65    -0.388 OA
HETATM   25  C10 MIQ B 502       3.557 -14.895   7.763  1.00147.44     0.187 C 
HETATM   26  C11 MIQ B 502       4.323 -14.806   9.079  1.00144.08     0.149 C 
ENDBRANCH   5  21
TORSDOF 2
ENDMDL
