MODEL 1
REMARK VINA RESULT:      -7.3      0.000      0.000
REMARK  2 active torsions:
REMARK  status: ('A' for Active; 'I' for Inactive)
REMARK    1  A    between atoms: C5_5  and  N6_21 
REMARK    2  A    between atoms: C18_14  and  N17_19 
ROOT
HETATM    1  O1  MIQ B 502     -17.856   6.733 -16.642  1.00142.91    -0.171 OA
HETATM    2  C2  MIQ B 502     -17.160   5.801 -17.416  1.00141.17     0.195 A 
HETATM    3  C3  MIQ B 502     -15.736   5.991 -18.028  1.00141.71     0.035 A 
HETATM    4  C4  MIQ B 502     -14.751   7.099 -17.995  1.00142.86     0.046 A 
HETATM    5  C5  MIQ B 502     -13.508   6.973 -18.664  1.00139.53     0.031 A 
HETATM    6  C12 MIQ B 502     -13.197   5.748 -19.387  1.00139.38     0.030 A 
HETATM    7  C13 MIQ B 502     -14.140   4.685 -19.418  1.00141.18     0.019 A 
HETATM    8  C14 MIQ B 502     -15.443   4.822 -18.712  1.00138.77     0.033 A 
HETATM    9  C15 MIQ B 502     -16.692   3.901 -18.522  1.00142.10     0.195 A 
HETATM   10  N17 MIQ B 502     -17.545   4.591 -17.782  1.00139.42    -0.288 N 
HETATM   11  O16 MIQ B 502     -16.868   2.615 -19.034  1.00148.93    -0.171 OA
ENDROOT
BRANCH  10  12
HETATM   12  C18 MIQ B 502     -18.839   4.048 -17.414  1.00139.82     0.187 C 
HETATM   13  C19 MIQ B 502     -18.603   2.689 -16.743  1.00140.06     0.247 C 
HETATM   14  O25 MIQ B 502     -17.825   2.610 -15.859  1.00143.95    -0.271 OA
HETATM   15  N20 MIQ B 502     -19.313   1.498 -17.160  1.00140.02    -0.296 N 
HETATM   16  H13 MIQ B 502     -19.145   0.615 -16.718  1.00142.77     0.171 HD
HETATM   17  C21 MIQ B 502     -20.250   1.617 -18.247  1.00142.22     0.224 C 
HETATM   18  C22 MIQ B 502     -19.912   2.623 -19.331  1.00139.52     0.106 C 
HETATM   19  O24 MIQ B 502     -21.236   0.966 -18.288  1.00146.13    -0.273 OA
HETATM   20  C23 MIQ B 502     -19.748   3.963 -18.639  1.00139.15     0.045 C 
ENDBRANCH  10  12
BRANCH   5  21
HETATM   21  N6  MIQ B 502     -12.559   8.071 -18.636  1.00140.95    -0.377 N 
HETATM   22  C7  MIQ B 502     -11.239   7.835 -18.078  1.00142.12     0.149 C 
HETATM   23  C8  MIQ B 502     -10.618   9.111 -17.525  1.00144.10     0.187 C 
HETATM   24  O9  MIQ B 502     -10.708  10.187 -18.411  1.00148.65    -0.388 OA
HETATM   25  C10 MIQ B 502     -11.501  10.095 -19.558  1.00147.44     0.187 C 
HETATM   26  C11 MIQ B 502     -12.743   9.211 -19.517  1.00144.08     0.149 C 
ENDBRANCH   5  21
TORSDOF 2
ENDMDL
MODEL 2
REMARK VINA RESULT:      -6.7      4.122      8.691
REMARK  2 active torsions:
REMARK  status: ('A' for Active; 'I' for Inactive)
REMARK    1  A    between atoms: C5_5  and  N6_21 
REMARK    2  A    between atoms: C18_14  and  N17_19 
ROOT
HETATM    1  O1  MIQ B 502     -20.199   5.012 -16.881  1.00142.91    -0.171 OA
HETATM    2  C2  MIQ B 502     -19.079   4.203 -17.083  1.00141.17     0.195 A 
HETATM    3  C3  MIQ B 502     -19.090   2.710 -17.544  1.00141.71     0.035 A 
HETATM    4  C4  MIQ B 502     -20.173   1.758 -17.887  1.00142.86     0.046 A 
HETATM    5  C5  MIQ B 502     -19.862   0.432 -18.284  1.00139.53     0.031 A 
HETATM    6  C12 MIQ B 502     -18.472   0.006 -18.354  1.00139.38     0.030 A 
HETATM    7  C13 MIQ B 502     -17.434   0.919 -18.026  1.00141.18     0.019 A 
HETATM    8  C14 MIQ B 502     -17.766   2.310 -17.613  1.00138.77     0.033 A 
HETATM    9  C15 MIQ B 502     -16.927   3.562 -17.193  1.00142.10     0.195 A 
HETATM   10  N17 MIQ B 502     -17.804   4.519 -16.937  1.00139.42    -0.288 N 
HETATM   11  O16 MIQ B 502     -15.537   3.645 -17.106  1.00148.93    -0.171 OA
ENDROOT
BRANCH  10  12
HETATM   12  C18 MIQ B 502     -17.380   5.835 -16.498  1.00139.82     0.187 C 
HETATM   13  C19 MIQ B 502     -18.095   6.140 -15.176  1.00140.06     0.247 C 
HETATM   14  O25 MIQ B 502     -18.051   5.349 -14.301  1.00143.95    -0.271 OA
HETATM   15  N20 MIQ B 502     -18.820   7.377 -14.967  1.00140.02    -0.296 N 
HETATM   16  H13 MIQ B 502     -19.288   7.561 -14.101  1.00142.77     0.171 HD
HETATM   17  C21 MIQ B 502     -18.869   8.322 -16.052  1.00142.22     0.224 C 
HETATM   18  C22 MIQ B 502     -18.893   7.747 -17.455  1.00139.52     0.106 C 
HETATM   19  O24 MIQ B 502     -18.884   9.487 -15.857  1.00146.13    -0.273 OA
HETATM   20  C23 MIQ B 502     -17.658   6.873 -17.584  1.00139.15     0.045 C 
ENDBRANCH  10  12
BRANCH   5  21
HETATM   21  N6  MIQ B 502     -20.933  -0.494 -18.603  1.00140.95    -0.377 N 
HETATM   22  C7  MIQ B 502     -20.584  -1.830 -19.054  1.00142.12     0.149 C 
HETATM   23  C8  MIQ B 502     -21.672  -2.437 -19.931  1.00144.10     0.187 C 
HETATM   24  O9  MIQ B 502     -22.949  -2.307 -19.381  1.00148.65    -0.388 OA
HETATM   25  C10 MIQ B 502     -23.159  -1.493 -18.265  1.00147.44     0.187 C 
HETATM   26  C11 MIQ B 502     -22.268  -0.270 -18.075  1.00144.08     0.149 C 
ENDBRANCH   5  21
TORSDOF 2
ENDMDL
MODEL 3
REMARK VINA RESULT:      -6.6      1.731      2.153
REMARK  2 active torsions:
REMARK  status: ('A' for Active; 'I' for Inactive)
REMARK    1  A    between atoms: C5_5  and  N6_21 
REMARK    2  A    between atoms: C18_14  and  N17_19 
ROOT
HETATM    1  O1  MIQ B 502     -18.420   5.854 -19.451  1.00142.91    -0.171 OA
HETATM    2  C2  MIQ B 502     -17.494   5.009 -18.833  1.00141.17     0.195 A 
HETATM    3  C3  MIQ B 502     -16.008   5.356 -18.500  1.00141.71     0.035 A 
HETATM    4  C4  MIQ B 502     -15.175   6.565 -18.700  1.00142.86     0.046 A 
HETATM    5  C5  MIQ B 502     -13.821   6.580 -18.279  1.00139.53     0.031 A 
HETATM    6  C12 MIQ B 502     -13.248   5.401 -17.646  1.00139.38     0.030 A 
HETATM    7  C13 MIQ B 502     -14.048   4.242 -17.453  1.00141.18     0.019 A 
HETATM    8  C14 MIQ B 502     -15.469   4.233 -17.895  1.00138.77     0.033 A 
HETATM    9  C15 MIQ B 502     -16.627   3.183 -17.852  1.00142.10     0.195 A 
HETATM   10  N17 MIQ B 502     -17.674   3.771 -18.406  1.00139.42    -0.288 N 
HETATM   11  O16 MIQ B 502     -16.562   1.888 -17.334  1.00148.93    -0.171 OA
ENDROOT
BRANCH  10  12
HETATM   12  C18 MIQ B 502     -18.941   3.080 -18.554  1.00139.82     0.187 C 
HETATM   13  C19 MIQ B 502     -19.351   3.164 -20.029  1.00140.06     0.247 C 
HETATM   14  O25 MIQ B 502     -18.577   2.847 -20.861  1.00143.95    -0.271 OA
HETATM   15  N20 MIQ B 502     -20.666   3.617 -20.432  1.00140.02    -0.296 N 
HETATM   16  H13 MIQ B 502     -20.919   3.674 -21.398  1.00142.77     0.171 HD
HETATM   17  C21 MIQ B 502     -21.590   4.009 -19.398  1.00142.22     0.224 C 
HETATM   18  C22 MIQ B 502     -20.995   4.655 -18.162  1.00139.52     0.106 C 
HETATM   19  O24 MIQ B 502     -22.753   3.829 -19.509  1.00146.13    -0.273 OA
HETATM   20  C23 MIQ B 502     -19.983   3.671 -17.606  1.00139.15     0.045 C 
ENDBRANCH  10  12
BRANCH   5  21
HETATM   21  N6  MIQ B 502     -13.011   7.766 -18.496  1.00140.95    -0.377 N 
HETATM   22  C7  MIQ B 502     -11.723   7.858 -17.831  1.00142.12     0.149 C 
HETATM   23  C8  MIQ B 502     -11.301   9.304 -17.605  1.00144.10     0.187 C 
HETATM   24  O9  MIQ B 502     -11.442  10.096 -18.746  1.00148.65    -0.388 OA
HETATM   25  C10 MIQ B 502     -12.122   9.609 -19.866  1.00147.44     0.187 C 
HETATM   26  C11 MIQ B 502     -13.253   8.607 -19.654  1.00144.08     0.149 C 
ENDBRANCH   5  21
TORSDOF 2
ENDMDL
MODEL 4
REMARK VINA RESULT:      -6.3      2.841      9.136
REMARK  2 active torsions:
REMARK  status: ('A' for Active; 'I' for Inactive)
REMARK    1  A    between atoms: C5_5  and  N6_21 
REMARK    2  A    between atoms: C18_14  and  N17_19 
ROOT
HETATM    1  O1  MIQ B 502     -16.314   0.913 -17.237  1.00142.91    -0.171 OA
HETATM    2  C2  MIQ B 502     -17.031   1.861 -17.970  1.00141.17     0.195 A 
HETATM    3  C3  MIQ B 502     -18.329   1.599 -18.798  1.00141.71     0.035 A 
HETATM    4  C4  MIQ B 502     -19.148   0.391 -19.053  1.00142.86     0.046 A 
HETATM    5  C5  MIQ B 502     -20.306   0.468 -19.869  1.00139.53     0.031 A 
HETATM    6  C12 MIQ B 502     -20.690   1.743 -20.458  1.00139.38     0.030 A 
HETATM    7  C13 MIQ B 502     -19.906   2.902 -20.213  1.00141.18     0.019 A 
HETATM    8  C14 MIQ B 502     -18.693   2.815 -19.354  1.00138.77     0.033 A 
HETATM    9  C15 MIQ B 502     -17.615   3.838 -18.867  1.00142.10     0.195 A 
HETATM   10  N17 MIQ B 502     -16.774   3.150 -18.113  1.00139.42    -0.288 N 
HETATM   11  O16 MIQ B 502     -17.556   5.198 -19.173  1.00148.93    -0.171 OA
ENDROOT
BRANCH  10  12
HETATM   12  C18 MIQ B 502     -15.622   3.781 -17.496  1.00139.82     0.187 C 
HETATM   13  C19 MIQ B 502     -16.086   5.109 -16.885  1.00140.06     0.247 C 
HETATM   14  O25 MIQ B 502     -17.027   5.118 -16.174  1.00143.95    -0.271 OA
HETATM   15  N20 MIQ B 502     -15.397   6.355 -17.154  1.00140.02    -0.296 N 
HETATM   16  H13 MIQ B 502     -15.715   7.216 -16.755  1.00142.77     0.171 HD
HETATM   17  C21 MIQ B 502     -14.258   6.320 -18.034  1.00142.22     0.224 C 
HETATM   18  C22 MIQ B 502     -14.300   5.308 -19.163  1.00139.52     0.106 C 
HETATM   19  O24 MIQ B 502     -13.335   7.041 -17.879  1.00146.13    -0.273 OA
HETATM   20  C23 MIQ B 502     -14.497   3.949 -18.517  1.00139.15     0.045 C 
ENDBRANCH  10  12
BRANCH   5  21
HETATM   21  N6  MIQ B 502     -21.090  -0.727 -20.122  1.00140.95    -0.377 N 
HETATM   22  C7  MIQ B 502     -21.559  -0.976 -21.474  1.00142.12     0.149 C 
HETATM   23  C8  MIQ B 502     -22.828  -1.819 -21.490  1.00144.10     0.187 C 
HETATM   24  O9  MIQ B 502     -22.741  -2.947 -20.671  1.00148.65    -0.388 OA
HETATM   25  C10 MIQ B 502     -21.672  -3.096 -19.783  1.00147.44     0.187 C 
HETATM   26  C11 MIQ B 502     -21.033  -1.843 -19.194  1.00144.08     0.149 C 
ENDBRANCH   5  21
TORSDOF 2
ENDMDL
MODEL 5
REMARK VINA RESULT:      -6.3      3.893     10.016
REMARK  2 active torsions:
REMARK  status: ('A' for Active; 'I' for Inactive)
REMARK    1  A    between atoms: C5_5  and  N6_21 
REMARK    2  A    between atoms: C18_14  and  N17_19 
ROOT
HETATM    1  O1  MIQ B 502     -17.290   0.945 -18.145  1.00142.91    -0.171 OA
HETATM    2  C2  MIQ B 502     -18.352   1.503 -18.860  1.00141.17     0.195 A 
HETATM    3  C3  MIQ B 502     -19.716   0.811 -19.176  1.00141.71     0.035 A 
HETATM    4  C4  MIQ B 502     -20.281  -0.521 -18.857  1.00142.86     0.046 A 
HETATM    5  C5  MIQ B 502     -21.584  -0.870 -19.292  1.00139.53     0.031 A 
HETATM    6  C12 MIQ B 502     -22.372   0.087 -20.056  1.00139.38     0.030 A 
HETATM    7  C13 MIQ B 502     -21.831   1.365 -20.361  1.00141.18     0.019 A 
HETATM    8  C14 MIQ B 502     -20.463   1.727 -19.900  1.00138.77     0.033 A 
HETATM    9  C15 MIQ B 502     -19.558   2.995 -20.033  1.00142.10     0.195 A 
HETATM   10  N17 MIQ B 502     -18.431   2.706 -19.403  1.00139.42    -0.288 N 
HETATM   11  O16 MIQ B 502     -19.878   4.185 -20.687  1.00148.93    -0.171 OA
ENDROOT
BRANCH  10  12
HETATM   12  C18 MIQ B 502     -17.337   3.657 -19.334  1.00139.82     0.187 C 
HETATM   13  C19 MIQ B 502     -16.067   2.945 -19.817  1.00140.06     0.247 C 
HETATM   14  O25 MIQ B 502     -16.086   2.369 -20.847  1.00143.95    -0.271 OA
HETATM   15  N20 MIQ B 502     -14.841   2.965 -19.047  1.00140.02    -0.296 N 
HETATM   16  H13 MIQ B 502     -14.020   2.490 -19.370  1.00142.77     0.171 HD
HETATM   17  C21 MIQ B 502     -14.845   3.666 -17.789  1.00142.22     0.224 C 
HETATM   18  C22 MIQ B 502     -16.143   3.647 -17.004  1.00139.52     0.106 C 
HETATM   19  O24 MIQ B 502     -13.886   4.231 -17.393  1.00146.13    -0.273 OA
HETATM   20  C23 MIQ B 502     -17.209   4.220 -17.920  1.00139.15     0.045 C 
ENDBRANCH  10  12
BRANCH   5  21
HETATM   21  N6  MIQ B 502     -22.119  -2.185 -18.985  1.00140.95    -0.377 N 
HETATM   22  C7  MIQ B 502     -23.560  -2.370 -19.002  1.00142.12     0.149 C 
HETATM   23  C8  MIQ B 502     -23.998  -3.504 -18.085  1.00144.10     0.187 C 
HETATM   24  O9  MIQ B 502     -23.245  -4.666 -18.260  1.00148.65    -0.388 OA
HETATM   25  C10 MIQ B 502     -22.083  -4.647 -19.035  1.00147.44     0.187 C 
HETATM   26  C11 MIQ B 502     -21.270  -3.358 -19.099  1.00144.08     0.149 C 
ENDBRANCH   5  21
TORSDOF 2
ENDMDL
MODEL 6
REMARK VINA RESULT:      -6.3      4.362      5.760
REMARK  2 active torsions:
REMARK  status: ('A' for Active; 'I' for Inactive)
REMARK    1  A    between atoms: C5_5  and  N6_21 
REMARK    2  A    between atoms: C18_14  and  N17_19 
ROOT
HETATM    1  O1  MIQ B 502     -17.883   4.800 -19.055  1.00142.91    -0.171 OA
HETATM    2  C2  MIQ B 502     -18.066   5.203 -17.730  1.00141.17     0.195 A 
HETATM    3  C3  MIQ B 502     -18.589   6.596 -17.254  1.00141.71     0.035 A 
HETATM    4  C4  MIQ B 502     -19.022   7.820 -17.968  1.00142.86     0.046 A 
HETATM    5  C5  MIQ B 502     -19.458   8.957 -17.241  1.00139.53     0.031 A 
HETATM    6  C12 MIQ B 502     -19.482   8.919 -15.786  1.00139.38     0.030 A 
HETATM    7  C13 MIQ B 502     -19.067   7.745 -15.101  1.00141.18     0.019 A 
HETATM    8  C14 MIQ B 502     -18.612   6.554 -15.869  1.00138.77     0.033 A 
HETATM    9  C15 MIQ B 502     -18.101   5.127 -15.484  1.00142.10     0.195 A 
HETATM   10  N17 MIQ B 502     -17.846   4.510 -16.626  1.00139.42    -0.288 N 
HETATM   11  O16 MIQ B 502     -17.946   4.615 -14.195  1.00148.93    -0.171 OA
ENDROOT
BRANCH  10  12
HETATM   12  C18 MIQ B 502     -17.333   3.153 -16.656  1.00139.82     0.187 C 
HETATM   13  C19 MIQ B 502     -16.069   3.150 -17.523  1.00140.06     0.247 C 
HETATM   14  O25 MIQ B 502     -15.218   3.937 -17.305  1.00143.95    -0.271 OA
HETATM   15  N20 MIQ B 502     -15.886   2.201 -18.603  1.00140.02    -0.296 N 
HETATM   16  H13 MIQ B 502     -15.058   2.214 -19.166  1.00142.77     0.171 HD
HETATM   17  C21 MIQ B 502     -16.943   1.256 -18.857  1.00142.22     0.224 C 
HETATM   18  C22 MIQ B 502     -18.359   1.734 -18.603  1.00139.52     0.106 C 
HETATM   19  O24 MIQ B 502     -16.714   0.162 -19.239  1.00146.13    -0.273 OA
HETATM   20  C23 MIQ B 502     -18.408   2.189 -17.156  1.00139.15     0.045 C 
ENDBRANCH  10  12
BRANCH   5  21
HETATM   21  N6  MIQ B 502     -19.866  10.154 -17.953  1.00140.95    -0.377 N 
HETATM   22  C7  MIQ B 502     -19.286  11.427 -17.560  1.00142.12     0.149 C 
HETATM   23  C8  MIQ B 502     -20.207  12.596 -17.885  1.00144.10     0.187 C 
HETATM   24  O9  MIQ B 502     -20.710  12.546 -19.186  1.00148.65    -0.388 OA
HETATM   25  C10 MIQ B 502     -20.538  11.401 -19.968  1.00147.44     0.187 C 
HETATM   26  C11 MIQ B 502     -20.465  10.046 -19.272  1.00144.08     0.149 C 
ENDBRANCH   5  21
TORSDOF 2
ENDMDL
MODEL 7
REMARK VINA RESULT:      -6.2     19.433     21.543
REMARK  2 active torsions:
REMARK  status: ('A' for Active; 'I' for Inactive)
REMARK    1  A    between atoms: C5_5  and  N6_21 
REMARK    2  A    between atoms: C18_14  and  N17_19 
ROOT
HETATM    1  O1  MIQ B 502       1.428   7.668 -28.094  1.00142.91    -0.171 OA
HETATM    2  C2  MIQ B 502       2.171   8.035 -26.970  1.00141.17     0.195 A 
HETATM    3  C3  MIQ B 502       2.990   7.073 -26.052  1.00141.71     0.035 A 
HETATM    4  C4  MIQ B 502       3.231   5.610 -26.066  1.00142.86     0.046 A 
HETATM    5  C5  MIQ B 502       4.044   5.008 -25.073  1.00139.53     0.031 A 
HETATM    6  C12 MIQ B 502       4.646   5.832 -24.035  1.00139.38     0.030 A 
HETATM    7  C13 MIQ B 502       4.416   7.235 -24.022  1.00141.18     0.019 A 
HETATM    8  C14 MIQ B 502       3.563   7.861 -25.068  1.00138.77     0.033 A 
HETATM    9  C15 MIQ B 502       3.098   9.322 -25.378  1.00142.10     0.195 A 
HETATM   10  N17 MIQ B 502       2.340   9.242 -26.458  1.00139.42    -0.288 N 
HETATM   11  O16 MIQ B 502       3.419  10.472 -24.654  1.00148.93    -0.171 OA
ENDROOT
BRANCH  10  12
HETATM   12  C18 MIQ B 502       1.713  10.419 -27.032  1.00139.82     0.187 C 
HETATM   13  C19 MIQ B 502       0.245  10.076 -27.315  1.00140.06     0.247 C 
HETATM   14  O25 MIQ B 502      -0.411   9.602 -26.457  1.00143.95    -0.271 OA
HETATM   15  N20 MIQ B 502      -0.362  10.323 -28.607  1.00140.02    -0.296 N 
HETATM   16  H13 MIQ B 502      -1.319  10.089 -28.781  1.00142.77     0.171 HD
HETATM   17  C21 MIQ B 502       0.463  10.893 -29.641  1.00142.22     0.224 C 
HETATM   18  C22 MIQ B 502       1.927  10.498 -29.641  1.00139.52     0.106 C 
HETATM   19  O24 MIQ B 502       0.019  11.637 -30.446  1.00146.13    -0.273 OA
HETATM   20  C23 MIQ B 502       2.475  10.873 -28.276  1.00139.15     0.045 C 
ENDBRANCH  10  12
BRANCH   5  21
HETATM   21  N6  MIQ B 502       4.259   3.573 -25.090  1.00140.95    -0.377 N 
HETATM   22  C7  MIQ B 502       3.806   2.816 -26.245  1.00142.12     0.149 C 
HETATM   23  C8  MIQ B 502       3.496   1.368 -25.890  1.00144.10     0.187 C 
HETATM   24  O9  MIQ B 502       4.507   0.764 -25.140  1.00148.65    -0.388 OA
HETATM   25  C10 MIQ B 502       5.548   1.530 -24.609  1.00147.44     0.187 C 
HETATM   26  C11 MIQ B 502       5.266   2.979 -24.228  1.00144.08     0.149 C 
ENDBRANCH   5  21
TORSDOF 2
ENDMDL
MODEL 8
REMARK VINA RESULT:      -6.1      2.816      8.882
REMARK  2 active torsions:
REMARK  status: ('A' for Active; 'I' for Inactive)
REMARK    1  A    between atoms: C5_5  and  N6_21 
REMARK    2  A    between atoms: C18_14  and  N17_19 
ROOT
HETATM    1  O1  MIQ B 502     -16.644   3.722 -20.192  1.00142.91    -0.171 OA
HETATM    2  C2  MIQ B 502     -17.375   3.238 -19.105  1.00141.17     0.195 A 
HETATM    3  C3  MIQ B 502     -18.571   2.235 -19.171  1.00141.71     0.035 A 
HETATM    4  C4  MIQ B 502     -19.254   1.536 -20.286  1.00142.86     0.046 A 
HETATM    5  C5  MIQ B 502     -20.340   0.662 -20.025  1.00139.53     0.031 A 
HETATM    6  C12 MIQ B 502     -20.784   0.451 -18.655  1.00139.38     0.030 A 
HETATM    7  C13 MIQ B 502     -20.129   1.120 -17.587  1.00141.18     0.019 A 
HETATM    8  C14 MIQ B 502     -18.989   2.035 -17.866  1.00138.77     0.033 A 
HETATM    9  C15 MIQ B 502     -18.046   2.917 -16.984  1.00142.10     0.195 A 
HETATM   10  N17 MIQ B 502     -17.213   3.512 -17.822  1.00139.42    -0.288 N 
HETATM   11  O16 MIQ B 502     -18.082   3.048 -15.595  1.00148.93    -0.171 OA
ENDROOT
BRANCH  10  12
HETATM   12  C18 MIQ B 502     -16.194   4.432 -17.352  1.00139.82     0.187 C 
HETATM   13  C19 MIQ B 502     -16.478   5.803 -17.976  1.00140.06     0.247 C 
HETATM   14  O25 MIQ B 502     -17.560   6.264 -17.888  1.00143.95    -0.271 OA
HETATM   15  N20 MIQ B 502     -15.451   6.555 -18.668  1.00140.02    -0.296 N 
HETATM   16  H13 MIQ B 502     -15.650   7.447 -19.077  1.00142.77     0.171 HD
HETATM   17  C21 MIQ B 502     -14.140   5.968 -18.772  1.00142.22     0.224 C 
HETATM   18  C22 MIQ B 502     -14.077   4.458 -18.893  1.00139.52     0.106 C 
HETATM   19  O24 MIQ B 502     -13.162   6.632 -18.757  1.00146.13    -0.273 OA
HETATM   20  C23 MIQ B 502     -14.802   3.897 -17.683  1.00139.15     0.045 C 
ENDBRANCH  10  12
BRANCH   5  21
HETATM   21  N6  MIQ B 502     -21.009  -0.005 -21.127  1.00140.95    -0.377 N 
HETATM   22  C7  MIQ B 502     -21.662  -1.278 -20.875  1.00142.12     0.149 C 
HETATM   23  C8  MIQ B 502     -21.736  -2.137 -22.131  1.00144.10     0.187 C 
HETATM   24  O9  MIQ B 502     -22.206  -1.435 -23.243  1.00148.65    -0.388 OA
HETATM   25  C10 MIQ B 502     -22.347  -0.046 -23.195  1.00147.44     0.187 C 
HETATM   26  C11 MIQ B 502     -21.403   0.753 -22.302  1.00144.08     0.149 C 
ENDBRANCH   5  21
TORSDOF 2
ENDMDL
MODEL 9
REMARK VINA RESULT:      -6.1      3.923      7.087
REMARK  2 active torsions:
REMARK  status: ('A' for Active; 'I' for Inactive)
REMARK    1  A    between atoms: C5_5  and  N6_21 
REMARK    2  A    between atoms: C18_14  and  N17_19 
ROOT
HETATM    1  O1  MIQ B 502     -19.145   3.262 -17.040  1.00142.91    -0.171 OA
HETATM    2  C2  MIQ B 502     -18.516   4.500 -17.192  1.00141.17     0.195 A 
HETATM    3  C3  MIQ B 502     -18.926   5.835 -16.492  1.00141.71     0.035 A 
HETATM    4  C4  MIQ B 502     -19.999   6.196 -15.535  1.00142.86     0.046 A 
HETATM    5  C5  MIQ B 502     -20.121   7.527 -15.064  1.00139.53     0.031 A 
HETATM    6  C12 MIQ B 502     -19.186   8.545 -15.523  1.00139.38     0.030 A 
HETATM    7  C13 MIQ B 502     -18.156   8.198 -16.439  1.00141.18     0.019 A 
HETATM    8  C14 MIQ B 502     -18.032   6.798 -16.928  1.00138.77     0.033 A 
HETATM    9  C15 MIQ B 502     -17.061   6.057 -17.905  1.00142.10     0.195 A 
HETATM   10  N17 MIQ B 502     -17.464   4.798 -17.936  1.00139.42    -0.288 N 
HETATM   11  O16 MIQ B 502     -15.988   6.617 -18.601  1.00148.93    -0.171 OA
ENDROOT
BRANCH  10  12
HETATM   12  C18 MIQ B 502     -16.797   3.809 -18.761  1.00139.82     0.187 C 
HETATM   13  C19 MIQ B 502     -17.863   3.123 -19.624  1.00140.06     0.247 C 
HETATM   14  O25 MIQ B 502     -18.611   3.787 -20.250  1.00143.95    -0.271 OA
HETATM   15  N20 MIQ B 502     -17.975   1.681 -19.697  1.00140.02    -0.296 N 
HETATM   16  H13 MIQ B 502     -18.680   1.246 -20.259  1.00142.77     0.171 HD
HETATM   17  C21 MIQ B 502     -17.057   0.893 -18.916  1.00142.22     0.224 C 
HETATM   18  C22 MIQ B 502     -16.621   1.475 -17.586  1.00139.52     0.106 C 
HETATM   19  O24 MIQ B 502     -16.662  -0.154 -19.297  1.00146.13    -0.273 OA
HETATM   20  C23 MIQ B 502     -16.010   2.832 -17.889  1.00139.15     0.045 C 
ENDBRANCH  10  12
BRANCH   5  21
HETATM   21  N6  MIQ B 502     -21.185   7.870 -14.138  1.00140.95    -0.377 N 
HETATM   22  C7  MIQ B 502     -22.085   6.819 -13.695  1.00142.12     0.149 C 
HETATM   23  C8  MIQ B 502     -23.450   7.369 -13.300  1.00144.10     0.187 C 
HETATM   24  O9  MIQ B 502     -23.366   8.478 -12.456  1.00148.65    -0.388 OA
HETATM   25  C10 MIQ B 502     -22.137   9.104 -12.232  1.00147.44     0.187 C 
HETATM   26  C11 MIQ B 502     -21.093   9.081 -13.342  1.00144.08     0.149 C 
ENDBRANCH   5  21
TORSDOF 2
ENDMDL
