MODEL 1
REMARK VINA RESULT:      -6.4      0.000      0.000
REMARK  2 active torsions:
REMARK  status: ('A' for Active; 'I' for Inactive)
REMARK    1  A    between atoms: C5_5  and  N6_21 
REMARK    2  A    between atoms: C18_14  and  N17_19 
ROOT
HETATM    1  O1  MIQ B 502      25.157  -4.852   3.183  1.00142.91    -0.171 OA
HETATM    2  C2  MIQ B 502      25.944  -5.144   4.300  1.00141.17     0.195 A 
HETATM    3  C3  MIQ B 502      25.594  -6.159   5.435  1.00141.71     0.035 A 
HETATM    4  C4  MIQ B 502      24.439  -7.055   5.679  1.00142.86     0.046 A 
HETATM    5  C5  MIQ B 502      24.406  -7.884   6.829  1.00139.53     0.031 A 
HETATM    6  C12 MIQ B 502      25.513  -7.853   7.774  1.00139.38     0.030 A 
HETATM    7  C13 MIQ B 502      26.621  -6.994   7.539  1.00141.18     0.019 A 
HETATM    8  C14 MIQ B 502      26.651  -6.128   6.329  1.00138.77     0.033 A 
HETATM    9  C15 MIQ B 502      27.664  -5.089   5.746  1.00142.10     0.195 A 
HETATM   10  N17 MIQ B 502      27.123  -4.642   4.625  1.00139.42    -0.288 N 
HETATM   11  O16 MIQ B 502      28.887  -4.712   6.302  1.00148.93    -0.171 OA
ENDROOT
BRANCH  10  12
HETATM   12  C18 MIQ B 502      27.785  -3.639   3.812  1.00139.82     0.187 C 
HETATM   13  C19 MIQ B 502      29.187  -4.161   3.475  1.00140.06     0.247 C 
HETATM   14  O25 MIQ B 502      29.305  -5.244   3.021  1.00143.95    -0.271 OA
HETATM   15  N20 MIQ B 502      30.374  -3.360   3.693  1.00140.02    -0.296 N 
HETATM   16  H13 MIQ B 502      31.284  -3.715   3.475  1.00142.77     0.171 HD
HETATM   17  C21 MIQ B 502      30.206  -2.046   4.258  1.00142.22     0.224 C 
HETATM   18  C22 MIQ B 502      29.074  -1.871   5.252  1.00139.52     0.106 C 
HETATM   19  O24 MIQ B 502      30.913  -1.148   3.956  1.00146.13    -0.273 OA
HETATM   20  C23 MIQ B 502      27.803  -2.294   4.537  1.00139.15     0.045 C 
ENDBRANCH  10  12
BRANCH   5  21
HETATM   21  N6  MIQ B 502      23.262  -8.746   7.064  1.00140.95    -0.377 N 
HETATM   22  C7  MIQ B 502      22.588  -9.333   5.918  1.00142.12     0.149 C 
HETATM   23  C8  MIQ B 502      21.126  -9.640   6.215  1.00144.10     0.187 C 
HETATM   24  O9  MIQ B 502      20.947 -10.316   7.423  1.00148.65    -0.388 OA
HETATM   25  C10 MIQ B 502      22.008 -10.452   8.322  1.00147.44     0.187 C 
HETATM   26  C11 MIQ B 502      23.071  -9.360   8.366  1.00144.08     0.149 C 
ENDBRANCH   5  21
TORSDOF 2
ENDMDL
MODEL 2
REMARK VINA RESULT:      -6.4     13.171     15.172
REMARK  2 active torsions:
REMARK  status: ('A' for Active; 'I' for Inactive)
REMARK    1  A    between atoms: C5_5  and  N6_21 
REMARK    2  A    between atoms: C18_14  and  N17_19 
ROOT
HETATM    1  O1  MIQ B 502      26.626   6.714  12.046  1.00142.91    -0.171 OA
HETATM    2  C2  MIQ B 502      25.304   6.327  12.275  1.00141.17     0.195 A 
HETATM    3  C3  MIQ B 502      24.632   6.119  13.669  1.00141.71     0.035 A 
HETATM    4  C4  MIQ B 502      25.117   6.250  15.064  1.00142.86     0.046 A 
HETATM    5  C5  MIQ B 502      24.248   5.988  16.152  1.00139.53     0.031 A 
HETATM    6  C12 MIQ B 502      22.871   5.588  15.898  1.00139.38     0.030 A 
HETATM    7  C13 MIQ B 502      22.405   5.463  14.561  1.00141.18     0.019 A 
HETATM    8  C14 MIQ B 502      23.322   5.742  13.422  1.00138.77     0.033 A 
HETATM    9  C15 MIQ B 502      23.179   5.717  11.865  1.00142.10     0.195 A 
HETATM   10  N17 MIQ B 502      24.361   6.067  11.385  1.00139.42    -0.288 N 
HETATM   11  O16 MIQ B 502      22.035   5.389  11.136  1.00148.93    -0.171 OA
ENDROOT
BRANCH  10  12
HETATM   12  C18 MIQ B 502      24.607   6.137   9.956  1.00139.82     0.187 C 
HETATM   13  C19 MIQ B 502      25.739   5.156   9.628  1.00140.06     0.247 C 
HETATM   14  O25 MIQ B 502      25.663   4.042  10.007  1.00143.95    -0.271 OA
HETATM   15  N20 MIQ B 502      26.899   5.557   8.858  1.00140.02    -0.296 N 
HETATM   16  H13 MIQ B 502      27.634   4.909   8.656  1.00142.77     0.171 HD
HETATM   17  C21 MIQ B 502      26.973   6.926   8.415  1.00142.22     0.224 C 
HETATM   18  C22 MIQ B 502      26.368   7.972   9.331  1.00139.52     0.106 C 
HETATM   19  O24 MIQ B 502      27.478   7.216   7.387  1.00146.13    -0.273 OA
HETATM   20  C23 MIQ B 502      24.918   7.574   9.541  1.00139.15     0.045 C 
ENDBRANCH  10  12
BRANCH   5  21
HETATM   21  N6  MIQ B 502      24.740   6.106  17.513  1.00140.95    -0.377 N 
HETATM   22  C7  MIQ B 502      24.409   5.059  18.465  1.00142.12     0.149 C 
HETATM   23  C8  MIQ B 502      24.402   5.576  19.898  1.00144.10     0.187 C 
HETATM   24  O9  MIQ B 502      25.535   6.330  20.210  1.00148.65    -0.388 OA
HETATM   25  C10 MIQ B 502      26.420   6.726  19.204  1.00147.44     0.187 C 
HETATM   26  C11 MIQ B 502      25.870   6.971  17.803  1.00144.08     0.149 C 
ENDBRANCH   5  21
TORSDOF 2
ENDMDL
MODEL 3
REMARK VINA RESULT:      -6.3     14.053     16.763
REMARK  2 active torsions:
REMARK  status: ('A' for Active; 'I' for Inactive)
REMARK    1  A    between atoms: C5_5  and  N6_21 
REMARK    2  A    between atoms: C18_14  and  N17_19 
ROOT
HETATM    1  O1  MIQ B 502      26.573   7.432  15.667  1.00142.91    -0.171 OA
HETATM    2  C2  MIQ B 502      25.408   6.718  15.378  1.00141.17     0.195 A 
HETATM    3  C3  MIQ B 502      24.822   6.447  13.955  1.00141.71     0.035 A 
HETATM    4  C4  MIQ B 502      25.259   6.813  12.587  1.00142.86     0.046 A 
HETATM    5  C5  MIQ B 502      24.498   6.411  11.460  1.00139.53     0.031 A 
HETATM    6  C12 MIQ B 502      23.282   5.633  11.650  1.00139.38     0.030 A 
HETATM    7  C13 MIQ B 502      22.863   5.282  12.962  1.00141.18     0.019 A 
HETATM    8  C14 MIQ B 502      23.667   5.705  14.140  1.00138.77     0.033 A 
HETATM    9  C15 MIQ B 502      23.536   5.513  15.687  1.00142.10     0.195 A 
HETATM   10  N17 MIQ B 502      24.577   6.130  16.221  1.00139.42    -0.288 N 
HETATM   11  O16 MIQ B 502      22.522   4.831  16.361  1.00148.93    -0.171 OA
ENDROOT
BRANCH  10  12
HETATM   12  C18 MIQ B 502      24.776   6.174  17.658  1.00139.82     0.187 C 
HETATM   13  C19 MIQ B 502      24.633   4.743  18.193  1.00140.06     0.247 C 
HETATM   14  O25 MIQ B 502      25.252   3.875  17.688  1.00143.95    -0.271 OA
HETATM   15  N20 MIQ B 502      23.763   4.428  19.307  1.00140.02    -0.296 N 
HETATM   16  H13 MIQ B 502      23.673   3.490  19.642  1.00142.77     0.171 HD
HETATM   17  C21 MIQ B 502      23.010   5.503  19.899  1.00142.22     0.224 C 
HETATM   18  C22 MIQ B 502      22.551   6.608  18.967  1.00139.52     0.106 C 
HETATM   19  O24 MIQ B 502      22.767   5.524  21.056  1.00146.13    -0.273 OA
HETATM   20  C23 MIQ B 502      23.800   7.157  18.301  1.00139.15     0.045 C 
ENDBRANCH  10  12
BRANCH   5  21
HETATM   21  N6  MIQ B 502      24.929   6.789  10.127  1.00140.95    -0.377 N 
HETATM   22  C7  MIQ B 502      26.353   6.902   9.863  1.00142.12     0.149 C 
HETATM   23  C8  MIQ B 502      26.646   7.876   8.729  1.00144.10     0.187 C 
HETATM   24  O9  MIQ B 502      25.847   7.657   7.605  1.00148.65    -0.388 OA
HETATM   25  C10 MIQ B 502      24.760   6.782   7.669  1.00147.44     0.187 C 
HETATM   26  C11 MIQ B 502      24.030   6.622   8.999  1.00144.08     0.149 C 
ENDBRANCH   5  21
TORSDOF 2
ENDMDL
MODEL 4
REMARK VINA RESULT:      -6.3     14.223     16.088
REMARK  2 active torsions:
REMARK  status: ('A' for Active; 'I' for Inactive)
REMARK    1  A    between atoms: C5_5  and  N6_21 
REMARK    2  A    between atoms: C18_14  and  N17_19 
ROOT
HETATM    1  O1  MIQ B 502      26.881   8.125  13.984  1.00142.91    -0.171 OA
HETATM    2  C2  MIQ B 502      25.746   7.322  13.847  1.00141.17     0.195 A 
HETATM    3  C3  MIQ B 502      24.960   6.630  15.006  1.00141.71     0.035 A 
HETATM    4  C4  MIQ B 502      25.133   6.599  16.478  1.00142.86     0.046 A 
HETATM    5  C5  MIQ B 502      24.233   5.864  17.290  1.00139.53     0.031 A 
HETATM    6  C12 MIQ B 502      23.133   5.136  16.673  1.00139.38     0.030 A 
HETATM    7  C13 MIQ B 502      22.966   5.167  15.262  1.00141.18     0.019 A 
HETATM    8  C14 MIQ B 502      23.913   5.943  14.415  1.00138.77     0.033 A 
HETATM    9  C15 MIQ B 502      24.049   6.209  12.880  1.00142.10     0.195 A 
HETATM   10  N17 MIQ B 502      25.108   6.989  12.738  1.00139.42    -0.288 N 
HETATM   11  O16 MIQ B 502      23.220   5.719  11.870  1.00148.93    -0.171 OA
ENDROOT
BRANCH  10  12
HETATM   12  C18 MIQ B 502      25.551   7.433  11.429  1.00139.82     0.187 C 
HETATM   13  C19 MIQ B 502      24.353   8.080  10.724  1.00140.06     0.247 C 
HETATM   14  O25 MIQ B 502      23.735   8.913  11.286  1.00143.95    -0.271 OA
HETATM   15  N20 MIQ B 502      23.960   7.700   9.383  1.00140.02    -0.296 N 
HETATM   16  H13 MIQ B 502      23.172   8.125   8.936  1.00142.77     0.171 HD
HETATM   17  C21 MIQ B 502      24.723   6.673   8.722  1.00142.22     0.224 C 
HETATM   18  C22 MIQ B 502      25.294   5.576   9.600  1.00139.52     0.106 C 
HETATM   19  O24 MIQ B 502      24.898   6.689   7.553  1.00146.13    -0.273 OA
HETATM   20  C23 MIQ B 502      26.151   6.265  10.647  1.00139.15     0.045 C 
ENDBRANCH  10  12
BRANCH   5  21
HETATM   21  N6  MIQ B 502      24.423   5.830  18.728  1.00140.95    -0.377 N 
HETATM   22  C7  MIQ B 502      23.676   4.856  19.505  1.00142.12     0.149 C 
HETATM   23  C8  MIQ B 502      23.457   5.319  20.940  1.00144.10     0.187 C 
HETATM   24  O9  MIQ B 502      24.624   5.794  21.541  1.00148.65    -0.388 OA
HETATM   25  C10 MIQ B 502      25.774   6.013  20.780  1.00147.44     0.187 C 
HETATM   26  C11 MIQ B 502      25.615   6.415  19.317  1.00144.08     0.149 C 
ENDBRANCH   5  21
TORSDOF 2
ENDMDL
MODEL 5
REMARK VINA RESULT:      -6.3      8.346     14.426
REMARK  2 active torsions:
REMARK  status: ('A' for Active; 'I' for Inactive)
REMARK    1  A    between atoms: C5_5  and  N6_21 
REMARK    2  A    between atoms: C18_14  and  N17_19 
ROOT
HETATM    1  O1  MIQ B 502      15.229 -11.531  12.548  1.00142.91    -0.171 OA
HETATM    2  C2  MIQ B 502      15.681 -10.235  12.807  1.00141.17     0.195 A 
HETATM    3  C3  MIQ B 502      17.025  -9.611  12.312  1.00141.71     0.035 A 
HETATM    4  C4  MIQ B 502      18.146 -10.125  11.490  1.00142.86     0.046 A 
HETATM    5  C5  MIQ B 502      19.260  -9.299  11.200  1.00139.53     0.031 A 
HETATM    6  C12 MIQ B 502      19.303  -7.937  11.712  1.00139.38     0.030 A 
HETATM    7  C13 MIQ B 502      18.228  -7.442  12.500  1.00141.18     0.019 A 
HETATM    8  C14 MIQ B 502      17.059  -8.314  12.799  1.00138.77     0.033 A 
HETATM    9  C15 MIQ B 502      15.729  -8.132  13.600  1.00142.10     0.195 A 
HETATM   10  N17 MIQ B 502      15.083  -9.283  13.503  1.00139.42    -0.288 N 
HETATM   11  O16 MIQ B 502      15.313  -6.986  14.281  1.00148.93    -0.171 OA
ENDROOT
BRANCH  10  12
HETATM   12  C18 MIQ B 502      13.799  -9.488  14.146  1.00139.82     0.187 C 
HETATM   13  C19 MIQ B 502      12.874  -8.341  13.720  1.00140.06     0.247 C 
HETATM   14  O25 MIQ B 502      12.757  -8.091  12.573  1.00143.95    -0.271 OA
HETATM   15  N20 MIQ B 502      12.134  -7.557  14.687  1.00140.02    -0.296 N 
HETATM   16  H13 MIQ B 502      11.538  -6.807  14.396  1.00142.77     0.171 HD
HETATM   17  C21 MIQ B 502      12.301  -7.874  16.082  1.00142.22     0.224 C 
HETATM   18  C22 MIQ B 502      13.670  -8.367  16.509  1.00139.52     0.106 C 
HETATM   19  O24 MIQ B 502      11.412  -7.760  16.852  1.00146.13    -0.273 OA
HETATM   20  C23 MIQ B 502      13.973  -9.588  15.661  1.00139.15     0.045 C 
ENDBRANCH  10  12
BRANCH   5  21
HETATM   21  N6  MIQ B 502      20.358  -9.821  10.406  1.00140.95    -0.377 N 
HETATM   22  C7  MIQ B 502      20.415 -11.250  10.155  1.00142.12     0.149 C 
HETATM   23  C8  MIQ B 502      21.841 -11.729   9.913  1.00144.10     0.187 C 
HETATM   24  O9  MIQ B 502      22.532 -10.934   8.997  1.00148.65    -0.388 OA
HETATM   25  C10 MIQ B 502      21.997  -9.716   8.570  1.00147.44     0.187 C 
HETATM   26  C11 MIQ B 502      21.105  -8.935   9.530  1.00144.08     0.149 C 
ENDBRANCH   5  21
TORSDOF 2
ENDMDL
MODEL 6
REMARK VINA RESULT:      -6.2     13.449     16.270
REMARK  2 active torsions:
REMARK  status: ('A' for Active; 'I' for Inactive)
REMARK    1  A    between atoms: C5_5  and  N6_21 
REMARK    2  A    between atoms: C18_14  and  N17_19 
ROOT
HETATM    1  O1  MIQ B 502      22.236   4.732  13.120  1.00142.91    -0.171 OA
HETATM    2  C2  MIQ B 502      23.381   5.418  13.531  1.00141.17     0.195 A 
HETATM    3  C3  MIQ B 502      24.436   6.093  12.598  1.00141.71     0.035 A 
HETATM    4  C4  MIQ B 502      24.562   6.220  11.126  1.00142.86     0.046 A 
HETATM    5  C5  MIQ B 502      25.662   6.911  10.558  1.00139.53     0.031 A 
HETATM    6  C12 MIQ B 502      26.672   7.499  11.426  1.00139.38     0.030 A 
HETATM    7  C13 MIQ B 502      26.551   7.378  12.837  1.00141.18     0.019 A 
HETATM    8  C14 MIQ B 502      25.393   6.654  13.428  1.00138.77     0.033 A 
HETATM    9  C15 MIQ B 502      24.929   6.326  14.884  1.00142.10     0.195 A 
HETATM   10  N17 MIQ B 502      23.802   5.643  14.764  1.00139.42    -0.288 N 
HETATM   11  O16 MIQ B 502      25.577   6.682  16.068  1.00148.93    -0.171 OA
ENDROOT
BRANCH  10  12
HETATM   12  C18 MIQ B 502      23.086   5.152  15.926  1.00139.82     0.187 C 
HETATM   13  C19 MIQ B 502      22.796   6.351  16.837  1.00140.06     0.247 C 
HETATM   14  O25 MIQ B 502      22.287   7.312  16.380  1.00143.95    -0.271 OA
HETATM   15  N20 MIQ B 502      23.124   6.335  18.248  1.00140.02    -0.296 N 
HETATM   16  H13 MIQ B 502      22.935   7.127  18.831  1.00142.77     0.171 HD
HETATM   17  C21 MIQ B 502      23.754   5.155  18.781  1.00142.22     0.224 C 
HETATM   18  C22 MIQ B 502      24.693   4.407  17.854  1.00139.52     0.106 C 
HETATM   19  O24 MIQ B 502      23.543   4.786  19.884  1.00146.13    -0.273 OA
HETATM   20  C23 MIQ B 502      23.887   4.051  16.618  1.00139.15     0.045 C 
ENDBRANCH  10  12
BRANCH   5  21
HETATM   21  N6  MIQ B 502      25.780   7.015   9.115  1.00140.95    -0.377 N 
HETATM   22  C7  MIQ B 502      24.843   7.864   8.401  1.00142.12     0.149 C 
HETATM   23  C8  MIQ B 502      24.646   7.408   6.961  1.00144.10     0.187 C 
HETATM   24  O9  MIQ B 502      25.850   7.160   6.299  1.00148.65    -0.388 OA
HETATM   25  C10 MIQ B 502      27.053   7.124   7.009  1.00147.44     0.187 C 
HETATM   26  C11 MIQ B 502      27.029   6.662   8.463  1.00144.08     0.149 C 
ENDBRANCH   5  21
TORSDOF 2
ENDMDL
MODEL 7
REMARK VINA RESULT:      -6.2      1.608      2.223
REMARK  2 active torsions:
REMARK  status: ('A' for Active; 'I' for Inactive)
REMARK    1  A    between atoms: C5_5  and  N6_21 
REMARK    2  A    between atoms: C18_14  and  N17_19 
ROOT
HETATM    1  O1  MIQ B 502      25.582  -5.243   3.672  1.00142.91    -0.171 OA
HETATM    2  C2  MIQ B 502      26.147  -5.648   4.884  1.00141.17     0.195 A 
HETATM    3  C3  MIQ B 502      25.534  -6.675   5.889  1.00141.71     0.035 A 
HETATM    4  C4  MIQ B 502      24.289  -7.479   5.892  1.00142.86     0.046 A 
HETATM    5  C5  MIQ B 502      24.000  -8.348   6.974  1.00139.53     0.031 A 
HETATM    6  C12 MIQ B 502      24.934  -8.452   8.087  1.00139.38     0.030 A 
HETATM    7  C13 MIQ B 502      26.129  -7.683   8.083  1.00141.18     0.019 A 
HETATM    8  C14 MIQ B 502      26.427  -6.773   6.943  1.00138.77     0.033 A 
HETATM    9  C15 MIQ B 502      27.601  -5.802   6.591  1.00142.10     0.195 A 
HETATM   10  N17 MIQ B 502      27.291  -5.264   5.423  1.00139.42    -0.288 N 
HETATM   11  O16 MIQ B 502      28.741  -5.555   7.358  1.00148.93    -0.171 OA
ENDROOT
BRANCH  10  12
HETATM   12  C18 MIQ B 502      28.156  -4.289   4.785  1.00139.82     0.187 C 
HETATM   13  C19 MIQ B 502      27.287  -3.096   4.366  1.00140.06     0.247 C 
HETATM   14  O25 MIQ B 502      26.572  -2.597   5.161  1.00143.95    -0.271 OA
HETATM   15  N20 MIQ B 502      27.324  -2.560   3.021  1.00140.02    -0.296 N 
HETATM   16  H13 MIQ B 502      26.747  -1.785   2.759  1.00142.77     0.171 HD
HETATM   17  C21 MIQ B 502      28.197  -3.192   2.066  1.00142.22     0.224 C 
HETATM   18  C22 MIQ B 502      28.391  -4.689   2.208  1.00139.52     0.106 C 
HETATM   19  O24 MIQ B 502      28.739  -2.571   1.219  1.00146.13    -0.273 OA
HETATM   20  C23 MIQ B 502      28.905  -4.926   3.616  1.00139.15     0.045 C 
ENDBRANCH  10  12
BRANCH   5  21
HETATM   21  N6  MIQ B 502      22.770  -9.118   6.972  1.00140.95    -0.377 N 
HETATM   22  C7  MIQ B 502      21.967  -9.149   8.183  1.00142.12     0.149 C 
HETATM   23  C8  MIQ B 502      21.130 -10.418   8.278  1.00144.10     0.187 C 
HETATM   24  O9  MIQ B 502      20.441 -10.705   7.098  1.00148.65    -0.388 OA
HETATM   25  C10 MIQ B 502      20.720  -9.997   5.926  1.00147.44     0.187 C 
HETATM   26  C11 MIQ B 502      22.134  -9.466   5.713  1.00144.08     0.149 C 
ENDBRANCH   5  21
TORSDOF 2
ENDMDL
MODEL 8
REMARK VINA RESULT:      -6.2      7.719     13.377
REMARK  2 active torsions:
REMARK  status: ('A' for Active; 'I' for Inactive)
REMARK    1  A    between atoms: C5_5  and  N6_21 
REMARK    2  A    between atoms: C18_14  and  N17_19 
ROOT
HETATM    1  O1  MIQ B 502      18.211  -6.806  12.376  1.00142.91    -0.171 OA
HETATM    2  C2  MIQ B 502      17.718  -8.112  12.323  1.00141.17     0.195 A 
HETATM    3  C3  MIQ B 502      18.425  -9.339  11.664  1.00141.71     0.035 A 
HETATM    4  C4  MIQ B 502      19.715  -9.512  10.956  1.00142.86     0.046 A 
HETATM    5  C5  MIQ B 502      20.094 -10.785  10.457  1.00139.53     0.031 A 
HETATM    6  C12 MIQ B 502      19.210 -11.926  10.644  1.00139.38     0.030 A 
HETATM    7  C13 MIQ B 502      17.973 -11.761  11.325  1.00141.18     0.019 A 
HETATM    8  C14 MIQ B 502      17.582 -10.423  11.848  1.00138.77     0.033 A 
HETATM    9  C15 MIQ B 502      16.345  -9.866  12.625  1.00142.10     0.195 A 
HETATM   10  N17 MIQ B 502      16.580  -8.577  12.810  1.00139.42    -0.288 N 
HETATM   11  O16 MIQ B 502      15.222 -10.586  13.036  1.00148.93    -0.171 OA
ENDROOT
BRANCH  10  12
HETATM   12  C18 MIQ B 502      15.626  -7.724  13.493  1.00139.82     0.187 C 
HETATM   13  C19 MIQ B 502      15.260  -8.399  14.821  1.00140.06     0.247 C 
HETATM   14  O25 MIQ B 502      16.123  -8.760  15.540  1.00143.95    -0.271 OA
HETATM   15  N20 MIQ B 502      13.883  -8.603  15.220  1.00140.02    -0.296 N 
HETATM   16  H13 MIQ B 502      13.657  -9.052  16.086  1.00142.77     0.171 HD
HETATM   17  C21 MIQ B 502      12.848  -8.164  14.319  1.00142.22     0.224 C 
HETATM   18  C22 MIQ B 502      13.149  -8.261  12.836  1.00139.52     0.106 C 
HETATM   19  O24 MIQ B 502      11.818  -7.745  14.719  1.00146.13    -0.273 OA
HETATM   20  C23 MIQ B 502      14.415  -7.459  12.600  1.00139.15     0.045 C 
ENDBRANCH  10  12
BRANCH   5  21
HETATM   21  N6  MIQ B 502      21.353 -10.937   9.752  1.00140.95    -0.377 N 
HETATM   22  C7  MIQ B 502      21.805 -12.277   9.419  1.00142.12     0.149 C 
HETATM   23  C8  MIQ B 502      23.322 -12.352   9.299  1.00144.10     0.187 C 
HETATM   24  O9  MIQ B 502      23.856 -11.329   8.512  1.00148.65    -0.388 OA
HETATM   25  C10 MIQ B 502      23.057 -10.256   8.109  1.00147.44     0.187 C 
HETATM   26  C11 MIQ B 502      21.913  -9.816   9.017  1.00144.08     0.149 C 
ENDBRANCH   5  21
TORSDOF 2
ENDMDL
MODEL 9
REMARK VINA RESULT:      -6.1     13.975     16.626
REMARK  2 active torsions:
REMARK  status: ('A' for Active; 'I' for Inactive)
REMARK    1  A    between atoms: C5_5  and  N6_21 
REMARK    2  A    between atoms: C18_14  and  N17_19 
ROOT
HETATM    1  O1  MIQ B 502      26.485   7.507  15.403  1.00142.91    -0.171 OA
HETATM    2  C2  MIQ B 502      25.321   6.801  15.091  1.00141.17     0.195 A 
HETATM    3  C3  MIQ B 502      24.819   6.437  13.657  1.00141.71     0.035 A 
HETATM    4  C4  MIQ B 502      25.352   6.687  12.297  1.00142.86     0.046 A 
HETATM    5  C5  MIQ B 502      24.654   6.218  11.156  1.00139.53     0.031 A 
HETATM    6  C12 MIQ B 502      23.406   5.486  11.323  1.00139.38     0.030 A 
HETATM    7  C13 MIQ B 502      22.895   5.246  12.627  1.00141.18     0.019 A 
HETATM    8  C14 MIQ B 502      23.634   5.738  13.821  1.00138.77     0.033 A 
HETATM    9  C15 MIQ B 502      23.399   5.668  15.365  1.00142.10     0.195 A 
HETATM   10  N17 MIQ B 502      24.421   6.299  15.919  1.00139.42    -0.288 N 
HETATM   11  O16 MIQ B 502      22.325   5.063  16.021  1.00148.93    -0.171 OA
ENDROOT
BRANCH  10  12
HETATM   12  C18 MIQ B 502      24.530   6.447  17.359  1.00139.82     0.187 C 
HETATM   13  C19 MIQ B 502      24.672   7.942  17.666  1.00140.06     0.247 C 
HETATM   14  O25 MIQ B 502      23.897   8.702  17.203  1.00143.95    -0.271 OA
HETATM   15  N20 MIQ B 502      25.729   8.451  18.516  1.00140.02    -0.296 N 
HETATM   16  H13 MIQ B 502      25.815   9.430  18.703  1.00142.77     0.171 HD
HETATM   17  C21 MIQ B 502      26.670   7.505  19.061  1.00142.22     0.224 C 
HETATM   18  C22 MIQ B 502      27.007   6.305  18.198  1.00139.52     0.106 C 
HETATM   19  O24 MIQ B 502      27.149   7.658  20.130  1.00146.13    -0.273 OA
HETATM   20  C23 MIQ B 502      25.692   5.610  17.893  1.00139.15     0.045 C 
ENDBRANCH  10  12
BRANCH   5  21
HETATM   21  N6  MIQ B 502      25.180   6.483   9.829  1.00140.95    -0.377 N 
HETATM   22  C7  MIQ B 502      24.430   7.360   8.947  1.00142.12     0.149 C 
HETATM   23  C8  MIQ B 502      24.696   7.054   7.479  1.00144.10     0.187 C 
HETATM   24  O9  MIQ B 502      26.056   6.934   7.187  1.00148.65    -0.388 OA
HETATM   25  C10 MIQ B 502      26.999   6.878   8.216  1.00147.44     0.187 C 
HETATM   26  C11 MIQ B 502      26.588   6.261   9.549  1.00144.08     0.149 C 
ENDBRANCH   5  21
TORSDOF 2
ENDMDL
