MODEL 1
REMARK VINA RESULT:      -6.7      0.000      0.000
REMARK  2 active torsions:
REMARK  status: ('A' for Active; 'I' for Inactive)
REMARK    1  A    between atoms: C5_5  and  N6_21 
REMARK    2  A    between atoms: C18_14  and  N17_19 
ROOT
HETATM    1  O1  MIQ B 502     -17.083 -18.710  -8.267  1.00142.91    -0.171 OA
HETATM    2  C2  MIQ B 502     -17.817 -17.833  -7.466  1.00141.17     0.195 A 
HETATM    3  C3  MIQ B 502     -18.489 -16.502  -7.931  1.00141.71     0.035 A 
HETATM    4  C4  MIQ B 502     -18.567 -15.802  -9.235  1.00142.86     0.046 A 
HETATM    5  C5  MIQ B 502     -19.270 -14.575  -9.349  1.00139.53     0.031 A 
HETATM    6  C12 MIQ B 502     -19.918 -14.002  -8.178  1.00139.38     0.030 A 
HETATM    7  C13 MIQ B 502     -19.843 -14.674  -6.928  1.00141.18     0.019 A 
HETATM    8  C14 MIQ B 502     -19.106 -15.962  -6.815  1.00138.77     0.033 A 
HETATM    9  C15 MIQ B 502     -18.817 -16.964  -5.650  1.00142.10     0.195 A 
HETATM   10  N17 MIQ B 502     -18.097 -17.940  -6.178  1.00139.42    -0.288 N 
HETATM   11  O16 MIQ B 502     -19.233 -16.845  -4.323  1.00148.93    -0.171 OA
ENDROOT
BRANCH  10  12
HETATM   12  C18 MIQ B 502     -17.626 -19.054  -5.376  1.00139.82     0.187 C 
HETATM   13  C19 MIQ B 502     -18.840 -19.660  -4.660  1.00140.06     0.247 C 
HETATM   14  O25 MIQ B 502     -19.797 -19.943  -5.288  1.00143.95    -0.271 OA
HETATM   15  N20 MIQ B 502     -18.842 -19.900  -3.231  1.00140.02    -0.296 N 
HETATM   16  H13 MIQ B 502     -19.643 -20.290  -2.775  1.00142.77     0.171 HD
HETATM   17  C21 MIQ B 502     -17.666 -19.536  -2.484  1.00142.22     0.224 C 
HETATM   18  C22 MIQ B 502     -16.900 -18.320  -2.969  1.00139.52     0.106 C 
HETATM   19  O24 MIQ B 502     -17.314 -20.159  -1.543  1.00146.13    -0.273 OA
HETATM   20  C23 MIQ B 502     -16.531 -18.592  -4.416  1.00139.15     0.045 C 
ENDBRANCH  10  12
BRANCH   5  21
HETATM   21  N6  MIQ B 502     -19.327 -13.893 -10.629  1.00140.95    -0.377 N 
HETATM   22  C7  MIQ B 502     -20.512 -13.117 -10.951  1.00142.12     0.149 C 
HETATM   23  C8  MIQ B 502     -20.734 -13.015 -12.454  1.00144.10     0.187 C 
HETATM   24  O9  MIQ B 502     -19.579 -12.657 -13.151  1.00148.65    -0.388 OA
HETATM   25  C10 MIQ B 502     -18.339 -12.642 -12.507  1.00147.44     0.187 C 
HETATM   26  C11 MIQ B 502     -18.102 -13.618 -11.360  1.00144.08     0.149 C 
ENDBRANCH   5  21
TORSDOF 2
ENDMDL
MODEL 2
REMARK VINA RESULT:      -6.6      3.043      4.815
REMARK  2 active torsions:
REMARK  status: ('A' for Active; 'I' for Inactive)
REMARK    1  A    between atoms: C5_5  and  N6_21 
REMARK    2  A    between atoms: C18_14  and  N17_19 
ROOT
HETATM    1  O1  MIQ B 502     -18.183 -14.615  -9.396  1.00142.91    -0.171 OA
HETATM    2  C2  MIQ B 502     -19.478 -14.208  -9.067  1.00141.17     0.195 A 
HETATM    3  C3  MIQ B 502     -20.186 -12.903  -9.551  1.00141.71     0.035 A 
HETATM    4  C4  MIQ B 502     -19.769 -11.783 -10.428  1.00142.86     0.046 A 
HETATM    5  C5  MIQ B 502     -20.657 -10.709 -10.690  1.00139.53     0.031 A 
HETATM    6  C12 MIQ B 502     -21.985 -10.708 -10.095  1.00139.38     0.030 A 
HETATM    7  C13 MIQ B 502     -22.386 -11.782  -9.255  1.00141.18     0.019 A 
HETATM    8  C14 MIQ B 502     -21.450 -12.908  -8.985  1.00138.77     0.033 A 
HETATM    9  C15 MIQ B 502     -21.528 -14.224  -8.145  1.00142.10     0.195 A 
HETATM   10  N17 MIQ B 502     -20.360 -14.826  -8.300  1.00139.42    -0.288 N 
HETATM   11  O16 MIQ B 502     -22.612 -14.668  -7.385  1.00148.93    -0.171 OA
ENDROOT
BRANCH  10  12
HETATM   12  C18 MIQ B 502     -20.064 -16.085  -7.642  1.00139.82     0.187 C 
HETATM   13  C19 MIQ B 502     -18.878 -15.852  -6.699  1.00140.06     0.247 C 
HETATM   14  O25 MIQ B 502     -18.918 -14.955  -5.934  1.00143.95    -0.271 OA
HETATM   15  N20 MIQ B 502     -17.709 -16.708  -6.715  1.00140.02    -0.296 N 
HETATM   16  H13 MIQ B 502     -16.938 -16.542  -6.099  1.00142.77     0.171 HD
HETATM   17  C21 MIQ B 502     -17.679 -17.790  -7.665  1.00142.22     0.224 C 
HETATM   18  C22 MIQ B 502     -18.365 -17.548  -8.996  1.00139.52     0.106 C 
HETATM   19  O24 MIQ B 502     -17.150 -18.817  -7.415  1.00146.13    -0.273 OA
HETATM   20  C23 MIQ B 502     -19.802 -17.177  -8.679  1.00139.15     0.045 C 
ENDBRANCH  10  12
BRANCH   5  21
HETATM   21  N6  MIQ B 502     -20.230  -9.612 -11.539  1.00140.95    -0.377 N 
HETATM   22  C7  MIQ B 502     -20.818  -8.300 -11.327  1.00142.12     0.149 C 
HETATM   23  C8  MIQ B 502     -20.805  -7.459 -12.597  1.00144.10     0.187 C 
HETATM   24  O9  MIQ B 502     -19.564  -7.460 -13.237  1.00148.65    -0.388 OA
HETATM   25  C10 MIQ B 502     -18.561  -8.345 -12.834  1.00147.44     0.187 C 
HETATM   26  C11 MIQ B 502     -18.969  -9.696 -12.254  1.00144.08     0.149 C 
ENDBRANCH   5  21
TORSDOF 2
ENDMDL
MODEL 3
REMARK VINA RESULT:      -6.4      2.035      8.271
REMARK  2 active torsions:
REMARK  status: ('A' for Active; 'I' for Inactive)
REMARK    1  A    between atoms: C5_5  and  N6_21 
REMARK    2  A    between atoms: C18_14  and  N17_19 
ROOT
HETATM    1  O1  MIQ B 502     -18.217 -15.859  -7.430  1.00142.91    -0.171 OA
HETATM    2  C2  MIQ B 502     -19.134 -16.902  -7.282  1.00141.17     0.195 A 
HETATM    3  C3  MIQ B 502     -19.089 -18.023  -6.195  1.00141.71     0.035 A 
HETATM    4  C4  MIQ B 502     -18.163 -18.321  -5.077  1.00142.86     0.046 A 
HETATM    5  C5  MIQ B 502     -18.392 -19.439  -4.236  1.00139.53     0.031 A 
HETATM    6  C12 MIQ B 502     -19.543 -20.299  -4.473  1.00139.38     0.030 A 
HETATM    7  C13 MIQ B 502     -20.431 -20.012  -5.545  1.00141.18     0.019 A 
HETATM    8  C14 MIQ B 502     -20.188 -18.835  -6.422  1.00138.77     0.033 A 
HETATM    9  C15 MIQ B 502     -20.919 -18.216  -7.658  1.00142.10     0.195 A 
HETATM   10  N17 MIQ B 502     -20.210 -17.155  -8.008  1.00139.42    -0.288 N 
HETATM   11  O16 MIQ B 502     -22.082 -18.691  -8.266  1.00148.93    -0.171 OA
ENDROOT
BRANCH  10  12
HETATM   12  C18 MIQ B 502     -20.588 -16.331  -9.141  1.00139.82     0.187 C 
HETATM   13  C19 MIQ B 502     -19.354 -16.174 -10.037  1.00140.06     0.247 C 
HETATM   14  O25 MIQ B 502     -18.758 -17.135 -10.371  1.00143.95    -0.271 OA
HETATM   15  N20 MIQ B 502     -18.900 -14.875 -10.491  1.00140.02    -0.296 N 
HETATM   16  H13 MIQ B 502     -18.089 -14.785 -11.070  1.00142.77     0.171 HD
HETATM   17  C21 MIQ B 502     -19.638 -13.715 -10.061  1.00142.22     0.224 C 
HETATM   18  C22 MIQ B 502     -20.257 -13.775  -8.678  1.00139.52     0.106 C 
HETATM   19  O24 MIQ B 502     -19.758 -12.767 -10.756  1.00146.13    -0.273 OA
HETATM   20  C23 MIQ B 502     -21.158 -14.997  -8.662  1.00139.15     0.045 C 
ENDBRANCH  10  12
BRANCH   5  21
HETATM   21  N6  MIQ B 502     -17.469 -19.728  -3.154  1.00140.95    -0.377 N 
HETATM   22  C7  MIQ B 502     -16.112 -20.129  -3.486  1.00142.12     0.149 C 
HETATM   23  C8  MIQ B 502     -15.489 -20.987  -2.392  1.00144.10     0.187 C 
HETATM   24  O9  MIQ B 502     -15.656 -20.446  -1.116  1.00148.65    -0.388 OA
HETATM   25  C10 MIQ B 502     -16.513 -19.362  -0.913  1.00147.44     0.187 C 
HETATM   26  C11 MIQ B 502     -17.730 -19.214  -1.820  1.00144.08     0.149 C 
ENDBRANCH   5  21
TORSDOF 2
ENDMDL
MODEL 4
REMARK VINA RESULT:      -6.4      2.310      8.800
REMARK  2 active torsions:
REMARK  status: ('A' for Active; 'I' for Inactive)
REMARK    1  A    between atoms: C5_5  and  N6_21 
REMARK    2  A    between atoms: C18_14  and  N17_19 
ROOT
HETATM    1  O1  MIQ B 502     -20.080 -16.806  -3.878  1.00142.91    -0.171 OA
HETATM    2  C2  MIQ B 502     -19.129 -17.392  -4.715  1.00141.17     0.195 A 
HETATM    3  C3  MIQ B 502     -17.943 -18.305  -4.267  1.00141.71     0.035 A 
HETATM    4  C4  MIQ B 502     -17.483 -18.803  -2.950  1.00142.86     0.046 A 
HETATM    5  C5  MIQ B 502     -16.342 -19.641  -2.859  1.00139.53     0.031 A 
HETATM    6  C12 MIQ B 502     -15.621 -20.013  -4.068  1.00139.38     0.030 A 
HETATM    7  C13 MIQ B 502     -16.063 -19.536  -5.331  1.00141.18     0.019 A 
HETATM    8  C14 MIQ B 502     -17.262 -18.658  -5.420  1.00138.77     0.033 A 
HETATM    9  C15 MIQ B 502     -18.029 -17.962  -6.591  1.00142.10     0.195 A 
HETATM   10  N17 MIQ B 502     -19.033 -17.306  -6.031  1.00139.42    -0.288 N 
HETATM   11  O16 MIQ B 502     -17.714 -18.021  -7.950  1.00148.93    -0.171 OA
ENDROOT
BRANCH  10  12
HETATM   12  C18 MIQ B 502     -19.960 -16.520  -6.823  1.00139.82     0.187 C 
HETATM   13  C19 MIQ B 502     -20.510 -17.425  -7.933  1.00140.06     0.247 C 
HETATM   14  O25 MIQ B 502     -20.958 -18.478  -7.648  1.00143.95    -0.271 OA
HETATM   15  N20 MIQ B 502     -20.502 -17.019  -9.323  1.00140.02    -0.296 N 
HETATM   16  H13 MIQ B 502     -20.858 -17.621 -10.039  1.00142.77     0.171 HD
HETATM   17  C21 MIQ B 502     -19.941 -15.733  -9.647  1.00142.22     0.224 C 
HETATM   18  C22 MIQ B 502     -18.780 -15.261  -8.793  1.00139.52     0.106 C 
HETATM   19  O24 MIQ B 502     -20.370 -15.077 -10.532  1.00146.13    -0.273 OA
HETATM   20  C23 MIQ B 502     -19.272 -15.265  -7.357  1.00139.15     0.045 C 
ENDBRANCH  10  12
BRANCH   5  21
HETATM   21  N6  MIQ B 502     -15.894 -20.110  -1.561  1.00140.95    -0.377 N 
HETATM   22  C7  MIQ B 502     -16.529 -19.571  -0.370  1.00142.12     0.149 C 
HETATM   23  C8  MIQ B 502     -15.603 -19.618   0.839  1.00144.10     0.187 C 
HETATM   24  O9  MIQ B 502     -14.985 -20.859   1.002  1.00148.65    -0.388 OA
HETATM   25  C10 MIQ B 502     -15.066 -21.828  -0.002  1.00147.44     0.187 C 
HETATM   26  C11 MIQ B 502     -15.177 -21.369  -1.452  1.00144.08     0.149 C 
ENDBRANCH   5  21
TORSDOF 2
ENDMDL
MODEL 5
REMARK VINA RESULT:      -6.3      1.637      2.221
REMARK  2 active torsions:
REMARK  status: ('A' for Active; 'I' for Inactive)
REMARK    1  A    between atoms: C5_5  and  N6_21 
REMARK    2  A    between atoms: C18_14  and  N17_19 
ROOT
HETATM    1  O1  MIQ B 502     -18.058 -16.044  -5.362  1.00142.91    -0.171 OA
HETATM    2  C2  MIQ B 502     -19.006 -16.665  -6.177  1.00141.17     0.195 A 
HETATM    3  C3  MIQ B 502     -19.590 -16.098  -7.510  1.00141.71     0.035 A 
HETATM    4  C4  MIQ B 502     -19.358 -14.850  -8.275  1.00142.86     0.046 A 
HETATM    5  C5  MIQ B 502     -20.056 -14.610  -9.485  1.00139.53     0.031 A 
HETATM    6  C12 MIQ B 502     -21.005 -15.597  -9.980  1.00139.38     0.030 A 
HETATM    7  C13 MIQ B 502     -21.227 -16.795  -9.248  1.00141.18     0.019 A 
HETATM    8  C14 MIQ B 502     -20.490 -17.042  -7.979  1.00138.77     0.033 A 
HETATM    9  C15 MIQ B 502     -20.464 -18.202  -6.931  1.00142.10     0.195 A 
HETATM   10  N17 MIQ B 502     -19.593 -17.838  -6.004  1.00139.42    -0.288 N 
HETATM   11  O16 MIQ B 502     -21.212 -19.380  -6.969  1.00148.93    -0.171 OA
ENDROOT
BRANCH  10  12
HETATM   12  C18 MIQ B 502     -19.318 -18.675  -4.851  1.00139.82     0.187 C 
HETATM   13  C19 MIQ B 502     -19.512 -17.819  -3.594  1.00140.06     0.247 C 
HETATM   14  O25 MIQ B 502     -20.511 -17.205  -3.464  1.00143.95    -0.271 OA
HETATM   15  N20 MIQ B 502     -18.505 -17.747  -2.556  1.00140.02    -0.296 N 
HETATM   16  H13 MIQ B 502     -18.641 -17.179  -1.743  1.00142.77     0.171 HD
HETATM   17  C21 MIQ B 502     -17.290 -18.497  -2.742  1.00142.22     0.224 C 
HETATM   18  C22 MIQ B 502     -16.791 -18.643  -4.167  1.00139.52     0.106 C 
HETATM   19  O24 MIQ B 502     -16.715 -18.979  -1.829  1.00146.13    -0.273 OA
HETATM   20  C23 MIQ B 502     -17.920 -19.282  -4.956  1.00139.15     0.045 C 
ENDBRANCH  10  12
BRANCH   5  21
HETATM   21  N6  MIQ B 502     -19.830 -13.376 -10.216  1.00140.95    -0.377 N 
HETATM   22  C7  MIQ B 502     -20.373 -12.141  -9.678  1.00142.12     0.149 C 
HETATM   23  C8  MIQ B 502     -20.638 -11.113 -10.770  1.00144.10     0.187 C 
HETATM   24  O9  MIQ B 502     -19.560 -10.960 -11.645  1.00148.65    -0.388 OA
HETATM   25  C10 MIQ B 502     -18.485 -11.852 -11.607  1.00147.44     0.187 C 
HETATM   26  C11 MIQ B 502     -18.748 -13.293 -11.181  1.00144.08     0.149 C 
ENDBRANCH   5  21
TORSDOF 2
ENDMDL
MODEL 6
REMARK VINA RESULT:      -6.3      2.231      8.195
REMARK  2 active torsions:
REMARK  status: ('A' for Active; 'I' for Inactive)
REMARK    1  A    between atoms: C5_5  and  N6_21 
REMARK    2  A    between atoms: C18_14  and  N17_19 
ROOT
HETATM    1  O1  MIQ B 502     -19.884 -14.798  -7.121  1.00142.91    -0.171 OA
HETATM    2  C2  MIQ B 502     -19.121 -15.946  -7.350  1.00141.17     0.195 A 
HETATM    3  C3  MIQ B 502     -18.343 -16.766  -6.272  1.00141.71     0.035 A 
HETATM    4  C4  MIQ B 502     -18.174 -16.620  -4.807  1.00142.86     0.046 A 
HETATM    5  C5  MIQ B 502     -17.386 -17.549  -4.081  1.00139.53     0.031 A 
HETATM    6  C12 MIQ B 502     -16.741 -18.652  -4.780  1.00139.38     0.030 A 
HETATM    7  C13 MIQ B 502     -16.905 -18.792  -6.184  1.00141.18     0.019 A 
HETATM    8  C14 MIQ B 502     -17.735 -17.815  -6.941  1.00138.77     0.033 A 
HETATM    9  C15 MIQ B 502     -18.138 -17.646  -8.442  1.00142.10     0.195 A 
HETATM   10  N17 MIQ B 502     -18.905 -16.570  -8.495  1.00139.42    -0.288 N 
HETATM   11  O16 MIQ B 502     -17.760 -18.466  -9.507  1.00148.93    -0.171 OA
ENDROOT
BRANCH  10  12
HETATM   12  C18 MIQ B 502     -19.457 -16.095  -9.750  1.00139.82     0.187 C 
HETATM   13  C19 MIQ B 502     -19.050 -14.625  -9.914  1.00140.06     0.247 C 
HETATM   14  O25 MIQ B 502     -17.916 -14.325  -9.790  1.00143.95    -0.271 OA
HETATM   15  N20 MIQ B 502     -20.019 -13.594 -10.222  1.00140.02    -0.296 N 
HETATM   16  H13 MIQ B 502     -19.742 -12.637 -10.320  1.00142.77     0.171 HD
HETATM   17  C21 MIQ B 502     -21.399 -13.984 -10.358  1.00142.22     0.224 C 
HETATM   18  C22 MIQ B 502     -21.875 -15.124  -9.479  1.00139.52     0.106 C 
HETATM   19  O24 MIQ B 502     -22.122 -13.444 -11.122  1.00146.13    -0.273 OA
HETATM   20  C23 MIQ B 502     -20.970 -16.306  -9.779  1.00139.15     0.045 C 
ENDBRANCH  10  12
BRANCH   5  21
HETATM   21  N6  MIQ B 502     -17.216 -17.386  -2.649  1.00140.95    -0.377 N 
HETATM   22  C7  MIQ B 502     -17.704 -16.167  -2.026  1.00142.12     0.149 C 
HETATM   23  C8  MIQ B 502     -16.936 -15.831  -0.754  1.00144.10     0.187 C 
HETATM   24  O9  MIQ B 502     -16.798 -16.925   0.102  1.00148.65    -0.388 OA
HETATM   25  C10 MIQ B 502     -17.142 -18.209  -0.329  1.00147.44     0.187 C 
HETATM   26  C11 MIQ B 502     -16.989 -18.548  -1.808  1.00144.08     0.149 C 
ENDBRANCH   5  21
TORSDOF 2
ENDMDL
MODEL 7
REMARK VINA RESULT:      -6.3      1.608      2.677
REMARK  2 active torsions:
REMARK  status: ('A' for Active; 'I' for Inactive)
REMARK    1  A    between atoms: C5_5  and  N6_21 
REMARK    2  A    between atoms: C18_14  and  N17_19 
ROOT
HETATM    1  O1  MIQ B 502     -19.566 -15.818  -4.373  1.00142.91    -0.171 OA
HETATM    2  C2  MIQ B 502     -19.022 -16.309  -5.562  1.00141.17     0.195 A 
HETATM    3  C3  MIQ B 502     -19.135 -15.644  -6.971  1.00141.71     0.035 A 
HETATM    4  C4  MIQ B 502     -19.782 -14.405  -7.464  1.00142.86     0.046 A 
HETATM    5  C5  MIQ B 502     -19.709 -14.057  -8.837  1.00139.53     0.031 A 
HETATM    6  C12 MIQ B 502     -18.994 -14.921  -9.765  1.00139.38     0.030 A 
HETATM    7  C13 MIQ B 502     -18.373 -16.108  -9.292  1.00141.18     0.019 A 
HETATM    8  C14 MIQ B 502     -18.450 -16.468  -7.849  1.00138.77     0.033 A 
HETATM    9  C15 MIQ B 502     -17.909 -17.650  -6.981  1.00142.10     0.195 A 
HETATM   10  N17 MIQ B 502     -18.310 -17.408  -5.744  1.00139.42    -0.288 N 
HETATM   11  O16 MIQ B 502     -17.158 -18.739  -7.426  1.00148.93    -0.171 OA
ENDROOT
BRANCH  10  12
HETATM   12  C18 MIQ B 502     -18.000 -18.315  -4.655  1.00139.82     0.187 C 
HETATM   13  C19 MIQ B 502     -19.319 -18.692  -3.970  1.00140.06     0.247 C 
HETATM   14  O25 MIQ B 502     -20.218 -19.083  -4.626  1.00143.95    -0.271 OA
HETATM   15  N20 MIQ B 502     -19.491 -18.588  -2.535  1.00140.02    -0.296 N 
HETATM   16  H13 MIQ B 502     -20.360 -18.830  -2.101  1.00142.77     0.171 HD
HETATM   17  C21 MIQ B 502     -18.383 -18.098  -1.757  1.00142.22     0.224 C 
HETATM   18  C22 MIQ B 502     -17.495 -17.059  -2.414  1.00139.52     0.106 C 
HETATM   19  O24 MIQ B 502     -18.175 -18.493  -0.662  1.00146.13    -0.273 OA
HETATM   20  C23 MIQ B 502     -16.988 -17.679  -3.704  1.00139.15     0.045 C 
ENDBRANCH  10  12
BRANCH   5  21
HETATM   21  N6  MIQ B 502     -20.360 -12.849  -9.309  1.00140.95    -0.377 N 
HETATM   22  C7  MIQ B 502     -19.764 -12.127 -10.420  1.00142.12     0.149 C 
HETATM   23  C8  MIQ B 502     -20.117 -10.646 -10.392  1.00144.10     0.187 C 
HETATM   24  O9  MIQ B 502     -21.480 -10.416 -10.194  1.00148.65    -0.388 OA
HETATM   25  C10 MIQ B 502     -22.330 -11.465  -9.833  1.00147.44     0.187 C 
HETATM   26  C11 MIQ B 502     -21.761 -12.612  -9.004  1.00144.08     0.149 C 
ENDBRANCH   5  21
TORSDOF 2
ENDMDL
MODEL 8
REMARK VINA RESULT:      -6.2      1.974      8.443
REMARK  2 active torsions:
REMARK  status: ('A' for Active; 'I' for Inactive)
REMARK    1  A    between atoms: C5_5  and  N6_21 
REMARK    2  A    between atoms: C18_14  and  N17_19 
ROOT
HETATM    1  O1  MIQ B 502     -20.795 -15.858  -5.076  1.00142.91    -0.171 OA
HETATM    2  C2  MIQ B 502     -19.887 -16.430  -5.971  1.00141.17     0.195 A 
HETATM    3  C3  MIQ B 502     -18.759 -17.449  -5.615  1.00141.71     0.035 A 
HETATM    4  C4  MIQ B 502     -18.322 -18.085  -4.349  1.00142.86     0.046 A 
HETATM    5  C5  MIQ B 502     -17.236 -18.996  -4.342  1.00139.53     0.031 A 
HETATM    6  C12 MIQ B 502     -16.548 -19.309  -5.586  1.00139.38     0.030 A 
HETATM    7  C13 MIQ B 502     -16.967 -18.701  -6.800  1.00141.18     0.019 A 
HETATM    8  C14 MIQ B 502     -18.109 -17.747  -6.802  1.00138.77     0.033 A 
HETATM    9  C15 MIQ B 502     -18.839 -16.908  -7.901  1.00142.10     0.195 A 
HETATM   10  N17 MIQ B 502     -19.795 -16.240  -7.276  1.00139.42    -0.288 N 
HETATM   11  O16 MIQ B 502     -18.537 -16.873  -9.263  1.00148.93    -0.171 OA
ENDROOT
BRANCH  10  12
HETATM   12  C18 MIQ B 502     -20.676 -15.335  -7.989  1.00139.82     0.187 C 
HETATM   13  C19 MIQ B 502     -21.180 -16.062  -9.242  1.00140.06     0.247 C 
HETATM   14  O25 MIQ B 502     -21.649 -17.139  -9.133  1.00143.95    -0.271 OA
HETATM   15  N20 MIQ B 502     -21.101 -15.460 -10.557  1.00140.02    -0.296 N 
HETATM   16  H13 MIQ B 502     -21.427 -15.948 -11.368  1.00142.77     0.171 HD
HETATM   17  C21 MIQ B 502     -20.515 -14.150 -10.666  1.00142.22     0.224 C 
HETATM   18  C22 MIQ B 502     -19.392 -13.823  -9.699  1.00139.52     0.106 C 
HETATM   19  O24 MIQ B 502     -20.894 -13.367 -11.466  1.00146.13    -0.273 OA
HETATM   20  C23 MIQ B 502     -19.953 -14.026  -8.303  1.00139.15     0.045 C 
ENDBRANCH  10  12
BRANCH   5  21
HETATM   21  N6  MIQ B 502     -16.809 -19.599  -3.093  1.00140.95    -0.377 N 
HETATM   22  C7  MIQ B 502     -15.644 -20.467  -3.103  1.00142.12     0.149 C 
HETATM   23  C8  MIQ B 502     -15.687 -21.491  -1.976  1.00144.10     0.187 C 
HETATM   24  O9  MIQ B 502     -15.999 -20.925  -0.739  1.00148.65    -0.388 OA
HETATM   25  C10 MIQ B 502     -16.443 -19.603  -0.657  1.00147.44     0.187 C 
HETATM   26  C11 MIQ B 502     -17.231 -19.024  -1.828  1.00144.08     0.149 C 
ENDBRANCH   5  21
TORSDOF 2
ENDMDL
MODEL 9
REMARK VINA RESULT:      -6.2      3.834      9.107
REMARK  2 active torsions:
REMARK  status: ('A' for Active; 'I' for Inactive)
REMARK    1  A    between atoms: C5_5  and  N6_21 
REMARK    2  A    between atoms: C18_14  and  N17_19 
ROOT
HETATM    1  O1  MIQ B 502     -22.409 -13.537 -11.209  1.00142.91    -0.171 OA
HETATM    2  C2  MIQ B 502     -21.115 -13.947 -10.877  1.00141.17     0.195 A 
HETATM    3  C3  MIQ B 502     -20.734 -15.218 -10.053  1.00141.71     0.035 A 
HETATM    4  C4  MIQ B 502     -21.527 -16.298  -9.420  1.00142.86     0.046 A 
HETATM    5  C5  MIQ B 502     -20.879 -17.348  -8.721  1.00139.53     0.031 A 
HETATM    6  C12 MIQ B 502     -19.427 -17.364  -8.627  1.00139.38     0.030 A 
HETATM    7  C13 MIQ B 502     -18.666 -16.330  -9.234  1.00141.18     0.019 A 
HETATM    8  C14 MIQ B 502     -19.351 -15.231  -9.968  1.00138.77     0.033 A 
HETATM    9  C15 MIQ B 502     -18.872 -13.961 -10.745  1.00142.10     0.195 A 
HETATM   10  N17 MIQ B 502     -19.968 -13.366 -11.184  1.00139.42    -0.288 N 
HETATM   11  O16 MIQ B 502     -17.553 -13.544 -10.930  1.00148.93    -0.171 OA
ENDROOT
BRANCH  10  12
HETATM   12  C18 MIQ B 502     -19.907 -12.131 -11.943  1.00139.82     0.187 C 
HETATM   13  C19 MIQ B 502     -20.841 -11.120 -11.267  1.00140.06     0.247 C 
HETATM   14  O25 MIQ B 502     -20.740 -10.929 -10.108  1.00143.95    -0.271 OA
HETATM   15  N20 MIQ B 502     -21.841 -10.386 -12.015  1.00140.02    -0.296 N 
HETATM   16  H13 MIQ B 502     -22.449  -9.733 -11.560  1.00142.77     0.171 HD
HETATM   17  C21 MIQ B 502     -21.952 -10.644 -13.427  1.00142.22     0.224 C 
HETATM   18  C22 MIQ B 502     -21.662 -12.060 -13.886  1.00139.52     0.106 C 
HETATM   19  O24 MIQ B 502     -22.249  -9.791 -14.190  1.00146.13    -0.273 OA
HETATM   20  C23 MIQ B 502     -20.260 -12.389 -13.408  1.00139.15     0.045 C 
ENDBRANCH  10  12
BRANCH   5  21
HETATM   21  N6  MIQ B 502     -21.670 -18.391  -8.094  1.00140.95    -0.377 N 
HETATM   22  C7  MIQ B 502     -21.199 -18.961  -6.843  1.00142.12     0.149 C 
HETATM   23  C8  MIQ B 502     -21.699 -20.387  -6.644  1.00144.10     0.187 C 
HETATM   24  O9  MIQ B 502     -23.068 -20.521  -6.884  1.00148.65    -0.388 OA
HETATM   25  C10 MIQ B 502     -23.790 -19.477  -7.467  1.00147.44     0.187 C 
HETATM   26  C11 MIQ B 502     -23.072 -18.547  -8.440  1.00144.08     0.149 C 
ENDBRANCH   5  21
TORSDOF 2
ENDMDL
