MODEL 1
REMARK VINA RESULT:      -6.6      0.000      0.000
REMARK  2 active torsions:
REMARK  status: ('A' for Active; 'I' for Inactive)
REMARK    1  A    between atoms: C5_5  and  N6_21 
REMARK    2  A    between atoms: C18_14  and  N17_19 
ROOT
HETATM    1  O1  MIQ B 502     -20.065   1.102  -6.343  1.00142.91    -0.171 OA
HETATM    2  C2  MIQ B 502     -20.329   1.430  -5.011  1.00141.17     0.195 A 
HETATM    3  C3  MIQ B 502     -21.736   1.702  -4.390  1.00141.71     0.035 A 
HETATM    4  C4  MIQ B 502     -23.111   1.701  -4.942  1.00142.86     0.046 A 
HETATM    5  C5  MIQ B 502     -24.219   1.993  -4.107  1.00139.53     0.031 A 
HETATM    6  C12 MIQ B 502     -24.003   2.294  -2.699  1.00139.38     0.030 A 
HETATM    7  C13 MIQ B 502     -22.685   2.294  -2.169  1.00141.18     0.019 A 
HETATM    8  C14 MIQ B 502     -21.525   1.984  -3.050  1.00138.77     0.033 A 
HETATM    9  C15 MIQ B 502     -19.979   1.887  -2.838  1.00142.10     0.195 A 
HETATM   10  N17 MIQ B 502     -19.469   1.570  -4.017  1.00139.42    -0.288 N 
HETATM   11  O16 MIQ B 502     -19.284   2.095  -1.646  1.00148.93    -0.171 OA
ENDROOT
BRANCH  10  12
HETATM   12  C18 MIQ B 502     -18.039   1.409  -4.204  1.00139.82     0.187 C 
HETATM   13  C19 MIQ B 502     -17.626   2.263  -5.409  1.00140.06     0.247 C 
HETATM   14  O25 MIQ B 502     -17.950   3.397  -5.449  1.00143.95    -0.271 OA
HETATM   15  N20 MIQ B 502     -16.842   1.719  -6.498  1.00140.02    -0.296 N 
HETATM   16  H13 MIQ B 502     -16.584   2.286  -7.282  1.00142.77     0.171 HD
HETATM   17  C21 MIQ B 502     -16.467   0.330  -6.431  1.00142.22     0.224 C 
HETATM   18  C22 MIQ B 502     -17.453  -0.610  -5.765  1.00139.52     0.106 C 
HETATM   19  O24 MIQ B 502     -15.439  -0.054  -6.869  1.00146.13    -0.273 OA
HETATM   20  C23 MIQ B 502     -17.687  -0.069  -4.366  1.00139.15     0.045 C 
ENDBRANCH  10  12
BRANCH   5  21
HETATM   21  N6  MIQ B 502     -25.559   2.003  -4.664  1.00140.95    -0.377 N 
HETATM   22  C7  MIQ B 502     -25.790   1.327  -5.930  1.00142.12     0.149 C 
HETATM   23  C8  MIQ B 502     -26.967   1.927  -6.688  1.00144.10     0.187 C 
HETATM   24  O9  MIQ B 502     -28.098   2.099  -5.888  1.00148.65    -0.388 OA
HETATM   25  C10 MIQ B 502     -28.016   1.940  -4.502  1.00147.44     0.187 C 
HETATM   26  C11 MIQ B 502     -26.700   2.272  -3.807  1.00144.08     0.149 C 
ENDBRANCH   5  21
TORSDOF 2
ENDMDL
MODEL 2
REMARK VINA RESULT:      -6.6      1.840      3.099
REMARK  2 active torsions:
REMARK  status: ('A' for Active; 'I' for Inactive)
REMARK    1  A    between atoms: C5_5  and  N6_21 
REMARK    2  A    between atoms: C18_14  and  N17_19 
ROOT
HETATM    1  O1  MIQ B 502     -19.145   2.039  -1.627  1.00142.91    -0.171 OA
HETATM    2  C2  MIQ B 502     -19.843   1.845  -2.821  1.00141.17     0.195 A 
HETATM    3  C3  MIQ B 502     -21.392   1.923  -3.007  1.00141.71     0.035 A 
HETATM    4  C4  MIQ B 502     -22.516   2.203  -2.082  1.00142.86     0.046 A 
HETATM    5  C5  MIQ B 502     -23.852   2.206  -2.558  1.00139.53     0.031 A 
HETATM    6  C12 MIQ B 502     -24.119   1.933  -3.963  1.00139.38     0.030 A 
HETATM    7  C13 MIQ B 502     -23.041   1.666  -4.850  1.00141.18     0.019 A 
HETATM    8  C14 MIQ B 502     -21.641   1.667  -4.345  1.00138.77     0.033 A 
HETATM    9  C15 MIQ B 502     -20.238   1.429  -4.994  1.00142.10     0.195 A 
HETATM   10  N17 MIQ B 502     -19.356   1.566  -4.018  1.00139.42    -0.288 N 
HETATM   11  O16 MIQ B 502     -19.977   1.129  -6.332  1.00148.93    -0.171 OA
ENDROOT
BRANCH  10  12
HETATM   12  C18 MIQ B 502     -17.934   1.395  -4.253  1.00139.82     0.187 C 
HETATM   13  C19 MIQ B 502     -17.560   2.230  -5.484  1.00140.06     0.247 C 
HETATM   14  O25 MIQ B 502     -17.882   3.364  -5.530  1.00143.95    -0.271 OA
HETATM   15  N20 MIQ B 502     -16.817   1.666  -6.592  1.00140.02    -0.296 N 
HETATM   16  H13 MIQ B 502     -16.585   2.220  -7.393  1.00142.77     0.171 HD
HETATM   17  C21 MIQ B 502     -16.445   0.277  -6.517  1.00142.22     0.224 C 
HETATM   18  C22 MIQ B 502     -17.411  -0.649  -5.803  1.00139.52     0.106 C 
HETATM   19  O24 MIQ B 502     -15.435  -0.119  -6.985  1.00146.13    -0.273 OA
HETATM   20  C23 MIQ B 502     -17.594  -0.086  -4.405  1.00139.15     0.045 C 
ENDBRANCH  10  12
BRANCH   5  21
HETATM   21  N6  MIQ B 502     -24.944   2.466  -1.638  1.00140.95    -0.377 N 
HETATM   22  C7  MIQ B 502     -24.692   3.306  -0.480  1.00142.12     0.149 C 
HETATM   23  C8  MIQ B 502     -25.635   2.986   0.672  1.00144.10     0.187 C 
HETATM   24  O9  MIQ B 502     -26.971   2.904   0.273  1.00148.65    -0.388 OA
HETATM   25  C10 MIQ B 502     -27.306   2.893  -1.083  1.00147.44     0.187 C 
HETATM   26  C11 MIQ B 502     -26.318   2.284  -2.073  1.00144.08     0.149 C 
ENDBRANCH   5  21
TORSDOF 2
ENDMDL
MODEL 3
REMARK VINA RESULT:      -6.5      2.510      7.828
REMARK  2 active torsions:
REMARK  status: ('A' for Active; 'I' for Inactive)
REMARK    1  A    between atoms: C5_5  and  N6_21 
REMARK    2  A    between atoms: C18_14  and  N17_19 
ROOT
HETATM    1  O1  MIQ B 502     -22.647   1.666  -6.355  1.00142.91    -0.171 OA
HETATM    2  C2  MIQ B 502     -21.945   1.726  -5.149  1.00141.17     0.195 A 
HETATM    3  C3  MIQ B 502     -20.444   1.351  -4.937  1.00141.71     0.035 A 
HETATM    4  C4  MIQ B 502     -19.378   0.862  -5.843  1.00142.86     0.046 A 
HETATM    5  C5  MIQ B 502     -18.076   0.604  -5.344  1.00139.53     0.031 A 
HETATM    6  C12 MIQ B 502     -17.785   0.823  -3.935  1.00139.38     0.030 A 
HETATM    7  C13 MIQ B 502     -18.807   1.293  -3.066  1.00141.18     0.019 A 
HETATM    8  C14 MIQ B 502     -20.171   1.564  -3.595  1.00138.77     0.033 A 
HETATM    9  C15 MIQ B 502     -21.511   2.075  -2.972  1.00142.10     0.195 A 
HETATM   10  N17 MIQ B 502     -22.386   2.109  -3.963  1.00139.42    -0.288 N 
HETATM   11  O16 MIQ B 502     -21.733   2.420  -1.638  1.00148.93    -0.171 OA
ENDROOT
BRANCH  10  12
HETATM   12  C18 MIQ B 502     -23.759   2.526  -3.748  1.00139.82     0.187 C 
HETATM   13  C19 MIQ B 502     -23.730   3.869  -3.008  1.00140.06     0.247 C 
HETATM   14  O25 MIQ B 502     -23.066   4.746  -3.434  1.00143.95    -0.271 OA
HETATM   15  N20 MIQ B 502     -24.501   4.094  -1.803  1.00140.02    -0.296 N 
HETATM   16  H13 MIQ B 502     -24.468   4.974  -1.326  1.00142.77     0.171 HD
HETATM   17  C21 MIQ B 502     -25.296   3.005  -1.298  1.00142.22     0.224 C 
HETATM   18  C22 MIQ B 502     -24.745   1.607  -1.502  1.00139.52     0.106 C 
HETATM   19  O24 MIQ B 502     -26.329   3.194  -0.755  1.00146.13    -0.273 OA
HETATM   20  C23 MIQ B 502     -24.531   1.442  -2.996  1.00139.15     0.045 C 
ENDBRANCH  10  12
BRANCH   5  21
HETATM   21  N6  MIQ B 502     -17.045   0.111  -6.240  1.00140.95    -0.377 N 
HETATM   22  C7  MIQ B 502     -16.598   0.969  -7.323  1.00142.12     0.149 C 
HETATM   23  C8  MIQ B 502     -16.056   0.166  -8.499  1.00144.10     0.187 C 
HETATM   24  O9  MIQ B 502     -15.153  -0.825  -8.110  1.00148.65    -0.388 OA
HETATM   25  C10 MIQ B 502     -14.990  -1.144  -6.760  1.00147.44     0.187 C 
HETATM   26  C11 MIQ B 502     -16.183  -0.981  -5.823  1.00144.08     0.149 C 
ENDBRANCH   5  21
TORSDOF 2
ENDMDL
MODEL 4
REMARK VINA RESULT:      -6.4     18.469     23.589
REMARK  2 active torsions:
REMARK  status: ('A' for Active; 'I' for Inactive)
REMARK    1  A    between atoms: C5_5  and  N6_21 
REMARK    2  A    between atoms: C18_14  and  N17_19 
ROOT
HETATM    1  O1  MIQ B 502      -3.990  -4.016 -19.860  1.00142.91    -0.171 OA
HETATM    2  C2  MIQ B 502      -3.337  -5.000 -19.115  1.00141.17     0.195 A 
HETATM    3  C3  MIQ B 502      -3.670  -5.418 -17.647  1.00141.71     0.035 A 
HETATM    4  C4  MIQ B 502      -4.681  -4.964 -16.663  1.00142.86     0.046 A 
HETATM    5  C5  MIQ B 502      -4.740  -5.551 -15.374  1.00139.53     0.031 A 
HETATM    6  C12 MIQ B 502      -3.803  -6.606 -15.016  1.00139.38     0.030 A 
HETATM    7  C13 MIQ B 502      -2.835  -7.043 -15.960  1.00141.18     0.019 A 
HETATM    8  C14 MIQ B 502      -2.779  -6.424 -17.313  1.00138.77     0.033 A 
HETATM    9  C15 MIQ B 502      -1.888  -6.633 -18.581  1.00142.10     0.195 A 
HETATM   10  N17 MIQ B 502      -2.329  -5.771 -19.483  1.00139.42    -0.288 N 
HETATM   11  O16 MIQ B 502      -0.839  -7.543 -18.724  1.00148.93    -0.171 OA
ENDROOT
BRANCH  10  12
HETATM   12  C18 MIQ B 502      -1.718  -5.671 -20.795  1.00139.82     0.187 C 
HETATM   13  C19 MIQ B 502      -1.401  -4.192 -21.051  1.00140.06     0.247 C 
HETATM   14  O25 MIQ B 502      -0.801  -3.583 -20.239  1.00143.95    -0.271 OA
HETATM   15  N20 MIQ B 502      -1.813  -3.522 -22.268  1.00140.02    -0.296 N 
HETATM   16  H13 MIQ B 502      -1.606  -2.555 -22.420  1.00142.77     0.171 HD
HETATM   17  C21 MIQ B 502      -2.554  -4.285 -23.240  1.00142.22     0.224 C 
HETATM   18  C22 MIQ B 502      -3.485  -5.353 -22.702  1.00139.52     0.106 C 
HETATM   19  O24 MIQ B 502      -2.435  -4.088 -24.399  1.00146.13    -0.273 OA
HETATM   20  C23 MIQ B 502      -2.633  -6.282 -21.855  1.00139.15     0.045 C 
ENDBRANCH  10  12
BRANCH   5  21
HETATM   21  N6  MIQ B 502      -5.726  -5.086 -14.414  1.00140.95    -0.377 N 
HETATM   22  C7  MIQ B 502      -7.068  -4.789 -14.885  1.00142.12     0.149 C 
HETATM   23  C8  MIQ B 502      -7.763  -3.756 -14.008  1.00144.10     0.187 C 
HETATM   24  O9  MIQ B 502      -7.658  -4.041 -12.646  1.00148.65    -0.388 OA
HETATM   25  C10 MIQ B 502      -6.797  -5.045 -12.197  1.00147.44     0.187 C 
HETATM   26  C11 MIQ B 502      -5.530  -5.331 -12.996  1.00144.08     0.149 C 
ENDBRANCH   5  21
TORSDOF 2
ENDMDL
MODEL 5
REMARK VINA RESULT:      -6.4     13.080     14.549
REMARK  2 active torsions:
REMARK  status: ('A' for Active; 'I' for Inactive)
REMARK    1  A    between atoms: C5_5  and  N6_21 
REMARK    2  A    between atoms: C18_14  and  N17_19 
ROOT
HETATM    1  O1  MIQ B 502     -16.018  -0.836 -19.271  1.00142.91    -0.171 OA
HETATM    2  C2  MIQ B 502     -16.689  -1.835 -18.562  1.00141.17     0.195 A 
HETATM    3  C3  MIQ B 502     -18.148  -1.753 -18.012  1.00141.71     0.035 A 
HETATM    4  C4  MIQ B 502     -19.197  -0.707 -18.056  1.00142.86     0.046 A 
HETATM    5  C5  MIQ B 502     -20.459  -0.931 -17.451  1.00139.53     0.031 A 
HETATM    6  C12 MIQ B 502     -20.726  -2.197 -16.784  1.00139.38     0.030 A 
HETATM    7  C13 MIQ B 502     -19.722  -3.202 -16.743  1.00141.18     0.019 A 
HETATM    8  C14 MIQ B 502     -18.399  -2.961 -17.382  1.00138.77     0.033 A 
HETATM    9  C15 MIQ B 502     -17.088  -3.798 -17.542  1.00142.10     0.195 A 
HETATM   10  N17 MIQ B 502     -16.247  -3.032 -18.218  1.00139.42    -0.288 N 
HETATM   11  O16 MIQ B 502     -16.856  -5.089 -17.064  1.00148.93    -0.171 OA
ENDROOT
BRANCH  10  12
HETATM   12  C18 MIQ B 502     -14.906  -3.483 -18.542  1.00139.82     0.187 C 
HETATM   13  C19 MIQ B 502     -13.923  -2.404 -18.069  1.00140.06     0.247 C 
HETATM   14  O25 MIQ B 502     -13.998  -2.003 -16.963  1.00143.95    -0.271 OA
HETATM   15  N20 MIQ B 502     -12.900  -1.867 -18.943  1.00140.02    -0.296 N 
HETATM   16  H13 MIQ B 502     -12.269  -1.159 -18.624  1.00142.77     0.171 HD
HETATM   17  C21 MIQ B 502     -12.836  -2.366 -20.293  1.00142.22     0.224 C 
HETATM   18  C22 MIQ B 502     -14.153  -2.749 -20.940  1.00139.52     0.106 C 
HETATM   19  O24 MIQ B 502     -11.807  -2.475 -20.863  1.00146.13    -0.273 OA
HETATM   20  C23 MIQ B 502     -14.793  -3.786 -20.035  1.00139.15     0.045 C 
ENDBRANCH  10  12
BRANCH   5  21
HETATM   21  N6  MIQ B 502     -21.472   0.109 -17.488  1.00140.95    -0.377 N 
HETATM   22  C7  MIQ B 502     -21.242   1.272 -18.328  1.00142.12     0.149 C 
HETATM   23  C8  MIQ B 502     -21.982   2.500 -17.813  1.00144.10     0.187 C 
HETATM   24  O9  MIQ B 502     -23.320   2.239 -17.507  1.00148.65    -0.388 OA
HETATM   25  C10 MIQ B 502     -23.795   0.926 -17.475  1.00147.44     0.187 C 
HETATM   26  C11 MIQ B 502     -22.833  -0.189 -17.078  1.00144.08     0.149 C 
ENDBRANCH   5  21
TORSDOF 2
ENDMDL
MODEL 6
REMARK VINA RESULT:      -6.3      2.178      2.666
REMARK  2 active torsions:
REMARK  status: ('A' for Active; 'I' for Inactive)
REMARK    1  A    between atoms: C5_5  and  N6_21 
REMARK    2  A    between atoms: C18_14  and  N17_19 
ROOT
HETATM    1  O1  MIQ B 502     -19.560  -0.085  -6.890  1.00142.91    -0.171 OA
HETATM    2  C2  MIQ B 502     -19.665   1.267  -6.556  1.00141.17     0.195 A 
HETATM    3  C3  MIQ B 502     -20.989   2.051  -6.290  1.00141.71     0.035 A 
HETATM    4  C4  MIQ B 502     -22.421   1.666  -6.298  1.00142.86     0.046 A 
HETATM    5  C5  MIQ B 502     -23.423   2.626  -6.007  1.00139.53     0.031 A 
HETATM    6  C12 MIQ B 502     -23.042   3.997  -5.699  1.00139.38     0.030 A 
HETATM    7  C13 MIQ B 502     -21.670   4.366  -5.690  1.00141.18     0.019 A 
HETATM    8  C14 MIQ B 502     -20.622   3.354  -5.994  1.00138.77     0.033 A 
HETATM    9  C15 MIQ B 502     -19.061   3.378  -6.076  1.00142.10     0.195 A 
HETATM   10  N17 MIQ B 502     -18.693   2.148  -6.394  1.00139.42    -0.288 N 
HETATM   11  O16 MIQ B 502     -18.230   4.478  -5.860  1.00148.93    -0.171 OA
ENDROOT
BRANCH  10  12
HETATM   12  C18 MIQ B 502     -17.296   1.798  -6.573  1.00139.82     0.187 C 
HETATM   13  C19 MIQ B 502     -17.154   1.129  -7.946  1.00140.06     0.247 C 
HETATM   14  O25 MIQ B 502     -17.599   1.667  -8.897  1.00143.95    -0.271 OA
HETATM   15  N20 MIQ B 502     -16.482  -0.144  -8.110  1.00140.02    -0.296 N 
HETATM   16  H13 MIQ B 502     -16.402  -0.573  -9.011  1.00142.77     0.171 HD
HETATM   17  C21 MIQ B 502     -15.957  -0.786  -6.932  1.00142.22     0.224 C 
HETATM   18  C22 MIQ B 502     -16.731  -0.585  -5.644  1.00139.52     0.106 C 
HETATM   19  O24 MIQ B 502     -14.968  -1.432  -6.970  1.00146.13    -0.273 OA
HETATM   20  C23 MIQ B 502     -16.817   0.914  -5.422  1.00139.15     0.045 C 
ENDBRANCH  10  12
BRANCH   5  21
HETATM   21  N6  MIQ B 502     -24.821   2.239  -6.033  1.00140.95    -0.377 N 
HETATM   22  C7  MIQ B 502     -25.740   2.894  -5.118  1.00142.12     0.149 C 
HETATM   23  C8  MIQ B 502     -26.937   2.012  -4.785  1.00144.10     0.187 C 
HETATM   24  O9  MIQ B 502     -27.525   1.444  -5.917  1.00148.65    -0.388 OA
HETATM   25  C10 MIQ B 502     -26.892   1.526  -7.160  1.00147.44     0.187 C 
HETATM   26  C11 MIQ B 502     -25.368   1.572  -7.201  1.00144.08     0.149 C 
ENDBRANCH   5  21
TORSDOF 2
ENDMDL
MODEL 7
REMARK VINA RESULT:      -6.2      2.974      7.956
REMARK  2 active torsions:
REMARK  status: ('A' for Active; 'I' for Inactive)
REMARK    1  A    between atoms: C5_5  and  N6_21 
REMARK    2  A    between atoms: C18_14  and  N17_19 
ROOT
HETATM    1  O1  MIQ B 502     -19.505   2.239  -1.366  1.00142.91    -0.171 OA
HETATM    2  C2  MIQ B 502     -20.279   2.369  -2.521  1.00141.17     0.195 A 
HETATM    3  C3  MIQ B 502     -19.895   1.870  -3.950  1.00141.71     0.035 A 
HETATM    4  C4  MIQ B 502     -18.712   1.165  -4.499  1.00142.86     0.046 A 
HETATM    5  C5  MIQ B 502     -18.651   0.835  -5.877  1.00139.53     0.031 A 
HETATM    6  C12 MIQ B 502     -19.756   1.190  -6.755  1.00139.38     0.030 A 
HETATM    7  C13 MIQ B 502     -20.890   1.865  -6.229  1.00141.18     0.019 A 
HETATM    8  C14 MIQ B 502     -20.950   2.207  -4.781  1.00138.77     0.033 A 
HETATM    9  C15 MIQ B 502     -21.996   2.920  -3.863  1.00142.10     0.195 A 
HETATM   10  N17 MIQ B 502     -21.472   2.924  -2.648  1.00139.42    -0.288 N 
HETATM   11  O16 MIQ B 502     -23.229   3.445  -4.252  1.00148.93    -0.171 OA
ENDROOT
BRANCH  10  12
HETATM   12  C18 MIQ B 502     -22.168   3.526  -1.526  1.00139.82     0.187 C 
HETATM   13  C19 MIQ B 502     -23.605   2.991  -1.525  1.00140.06     0.247 C 
HETATM   14  O25 MIQ B 502     -23.787   1.827  -1.582  1.00143.95    -0.271 OA
HETATM   15  N20 MIQ B 502     -24.749   3.876  -1.449  1.00140.02    -0.296 N 
HETATM   16  H13 MIQ B 502     -25.683   3.515  -1.456  1.00142.77     0.171 HD
HETATM   17  C21 MIQ B 502     -24.502   5.294  -1.391  1.00142.22     0.224 C 
HETATM   18  C22 MIQ B 502     -23.293   5.807  -2.149  1.00139.52     0.106 C 
HETATM   19  O24 MIQ B 502     -25.206   6.019  -0.778  1.00146.13    -0.273 OA
HETATM   20  C23 MIQ B 502     -22.093   5.049  -1.609  1.00139.15     0.045 C 
ENDBRANCH  10  12
BRANCH   5  21
HETATM   21  N6  MIQ B 502     -17.480   0.157  -6.404  1.00140.95    -0.377 N 
HETATM   22  C7  MIQ B 502     -16.736   0.791  -7.479  1.00142.12     0.149 C 
HETATM   23  C8  MIQ B 502     -15.998  -0.228  -8.338  1.00144.10     0.187 C 
HETATM   24  O9  MIQ B 502     -15.281  -1.157  -7.582  1.00148.65    -0.388 OA
HETATM   25  C10 MIQ B 502     -15.456  -1.231  -6.198  1.00147.44     0.187 C 
HETATM   26  C11 MIQ B 502     -16.817  -0.866  -5.615  1.00144.08     0.149 C 
ENDBRANCH   5  21
TORSDOF 2
ENDMDL
MODEL 8
REMARK VINA RESULT:      -6.1      3.213      3.963
REMARK  2 active torsions:
REMARK  status: ('A' for Active; 'I' for Inactive)
REMARK    1  A    between atoms: C5_5  and  N6_21 
REMARK    2  A    between atoms: C18_14  and  N17_19 
ROOT
HETATM    1  O1  MIQ B 502     -20.238   0.470  -6.369  1.00142.91    -0.171 OA
HETATM    2  C2  MIQ B 502     -20.003   1.807  -6.697  1.00141.17     0.195 A 
HETATM    3  C3  MIQ B 502     -21.042   2.804  -7.302  1.00141.71     0.035 A 
HETATM    4  C4  MIQ B 502     -22.468   2.682  -7.686  1.00142.86     0.046 A 
HETATM    5  C5  MIQ B 502     -23.164   3.794  -8.223  1.00139.53     0.031 A 
HETATM    6  C12 MIQ B 502     -22.472   5.063  -8.397  1.00139.38     0.030 A 
HETATM    7  C13 MIQ B 502     -21.105   5.181  -8.028  1.00141.18     0.019 A 
HETATM    8  C14 MIQ B 502     -20.380   4.011  -7.462  1.00138.77     0.033 A 
HETATM    9  C15 MIQ B 502     -18.923   3.761  -6.953  1.00142.10     0.195 A 
HETATM   10  N17 MIQ B 502     -18.884   2.497  -6.564  1.00139.42    -0.288 N 
HETATM   11  O16 MIQ B 502     -17.879   4.687  -6.921  1.00148.93    -0.171 OA
ENDROOT
BRANCH  10  12
HETATM   12  C18 MIQ B 502     -17.667   1.904  -6.041  1.00139.82     0.187 C 
HETATM   13  C19 MIQ B 502     -17.399   0.616  -6.830  1.00140.06     0.247 C 
HETATM   14  O25 MIQ B 502     -17.400   0.652  -8.009  1.00143.95    -0.271 OA
HETATM   15  N20 MIQ B 502     -17.138  -0.645  -6.167  1.00140.02    -0.296 N 
HETATM   16  H13 MIQ B 502     -16.971  -1.480  -6.693  1.00142.77     0.171 HD
HETATM   17  C21 MIQ B 502     -17.153  -0.666  -4.727  1.00142.22     0.224 C 
HETATM   18  C22 MIQ B 502     -18.124   0.276  -4.042  1.00139.52     0.106 C 
HETATM   19  O24 MIQ B 502     -16.438  -1.378  -4.112  1.00146.13    -0.273 OA
HETATM   20  C23 MIQ B 502     -17.793   1.672  -4.536  1.00139.15     0.045 C 
ENDBRANCH  10  12
BRANCH   5  21
HETATM   21  N6  MIQ B 502     -24.556   3.656  -8.608  1.00140.95    -0.377 N 
HETATM   22  C7  MIQ B 502     -25.080   4.528  -9.645  1.00142.12     0.149 C 
HETATM   23  C8  MIQ B 502     -26.581   4.743  -9.504  1.00144.10     0.187 C 
HETATM   24  O9  MIQ B 502     -27.285   3.552  -9.314  1.00148.65    -0.388 OA
HETATM   25  C10 MIQ B 502     -26.603   2.360  -9.056  1.00147.44     0.187 C 
HETATM   26  C11 MIQ B 502     -25.273   2.428  -8.312  1.00144.08     0.149 C 
ENDBRANCH   5  21
TORSDOF 2
ENDMDL
MODEL 9
REMARK VINA RESULT:      -6.1      1.885      7.789
REMARK  2 active torsions:
REMARK  status: ('A' for Active; 'I' for Inactive)
REMARK    1  A    between atoms: C5_5  and  N6_21 
REMARK    2  A    between atoms: C18_14  and  N17_19 
ROOT
HETATM    1  O1  MIQ B 502     -23.543   1.674  -5.722  1.00142.91    -0.171 OA
HETATM    2  C2  MIQ B 502     -22.769   2.005  -4.608  1.00141.17     0.195 A 
HETATM    3  C3  MIQ B 502     -21.235   1.760  -4.445  1.00141.71     0.035 A 
HETATM    4  C4  MIQ B 502     -20.199   1.164  -5.322  1.00142.86     0.046 A 
HETATM    5  C5  MIQ B 502     -18.853   1.080  -4.886  1.00139.53     0.031 A 
HETATM    6  C12 MIQ B 502     -18.487   1.582  -3.570  1.00139.38     0.030 A 
HETATM    7  C13 MIQ B 502     -19.479   2.154  -2.729  1.00141.18     0.019 A 
HETATM    8  C14 MIQ B 502     -20.891   2.242  -3.193  1.00138.77     0.033 A 
HETATM    9  C15 MIQ B 502     -22.219   2.790  -2.575  1.00142.10     0.195 A 
HETATM   10  N17 MIQ B 502     -23.157   2.585  -3.485  1.00139.42    -0.288 N 
HETATM   11  O16 MIQ B 502     -22.377   3.374  -1.317  1.00148.93    -0.171 OA
ENDROOT
BRANCH  10  12
HETATM   12  C18 MIQ B 502     -24.538   2.959  -3.246  1.00139.82     0.187 C 
HETATM   13  C19 MIQ B 502     -25.407   1.717  -3.482  1.00140.06     0.247 C 
HETATM   14  O25 MIQ B 502     -25.125   0.706  -2.943  1.00143.95    -0.271 OA
HETATM   15  N20 MIQ B 502     -26.569   1.751  -4.346  1.00140.02    -0.296 N 
HETATM   16  H13 MIQ B 502     -27.124   0.932  -4.497  1.00142.77     0.171 HD
HETATM   17  C21 MIQ B 502     -26.887   2.994  -5.001  1.00142.22     0.224 C 
HETATM   18  C22 MIQ B 502     -25.717   3.873  -5.399  1.00139.52     0.106 C 
HETATM   19  O24 MIQ B 502     -28.005   3.313  -5.211  1.00146.13    -0.273 OA
HETATM   20  C23 MIQ B 502     -24.929   4.142  -4.130  1.00139.15     0.045 C 
ENDBRANCH  10  12
BRANCH   5  21
HETATM   21  N6  MIQ B 502     -17.852   0.480  -5.750  1.00140.95    -0.377 N 
HETATM   22  C7  MIQ B 502     -17.303   1.276  -6.834  1.00142.12     0.149 C 
HETATM   23  C8  MIQ B 502     -16.811   0.408  -7.985  1.00144.10     0.187 C 
HETATM   24  O9  MIQ B 502     -16.011  -0.654  -7.560  1.00148.65    -0.388 OA
HETATM   25  C10 MIQ B 502     -15.909  -0.965  -6.202  1.00147.44     0.187 C 
HETATM   26  C11 MIQ B 502     -17.103  -0.679  -5.297  1.00144.08     0.149 C 
ENDBRANCH   5  21
TORSDOF 2
ENDMDL
