MODEL 1
REMARK VINA RESULT:      -6.9      0.000      0.000
REMARK  2 active torsions:
REMARK  status: ('A' for Active; 'I' for Inactive)
REMARK    1  A    between atoms: C5_5  and  N6_21 
REMARK    2  A    between atoms: C18_14  and  N17_19 
ROOT
HETATM    1  O1  MIQ B 502      -6.637  19.484  14.582  1.00142.91    -0.171 OA
HETATM    2  C2  MIQ B 502      -6.613  19.220  13.210  1.00141.17     0.195 A 
HETATM    3  C3  MIQ B 502      -5.344  19.187  12.300  1.00141.71     0.035 A 
HETATM    4  C4  MIQ B 502      -3.900  19.398  12.557  1.00142.86     0.046 A 
HETATM    5  C5  MIQ B 502      -2.962  19.298  11.499  1.00139.53     0.031 A 
HETATM    6  C12 MIQ B 502      -3.421  18.986  10.153  1.00139.38     0.030 A 
HETATM    7  C13 MIQ B 502      -4.806  18.783   9.906  1.00141.18     0.019 A 
HETATM    8  C14 MIQ B 502      -5.786  18.887  11.022  1.00138.77     0.033 A 
HETATM    9  C15 MIQ B 502      -7.337  18.731  11.139  1.00142.10     0.195 A 
HETATM   10  N17 MIQ B 502      -7.630  18.944  12.412  1.00139.42    -0.288 N 
HETATM   11  O16 MIQ B 502      -8.228  18.432  10.107  1.00148.93    -0.171 OA
ENDROOT
BRANCH  10  12
HETATM   12  C18 MIQ B 502      -8.998  18.896  12.892  1.00139.82     0.187 C 
HETATM   13  C19 MIQ B 502      -9.665  17.657  12.283  1.00140.06     0.247 C 
HETATM   14  O25 MIQ B 502      -9.129  16.610  12.375  1.00143.95    -0.271 OA
HETATM   15  N20 MIQ B 502     -10.940  17.734  11.600  1.00140.02    -0.296 N 
HETATM   16  H13 MIQ B 502     -11.362  16.919  11.200  1.00142.77     0.171 HD
HETATM   17  C21 MIQ B 502     -11.570  19.025  11.491  1.00142.22     0.224 C 
HETATM   18  C22 MIQ B 502     -10.650  20.222  11.352  1.00139.52     0.106 C 
HETATM   19  O24 MIQ B 502     -12.746  19.142  11.513  1.00146.13    -0.273 OA
HETATM   20  C23 MIQ B 502      -9.726  20.197  12.556  1.00139.15     0.045 C 
ENDBRANCH  10  12
BRANCH   5  21
HETATM   21  N6  MIQ B 502      -1.552  19.522  11.762  1.00140.95    -0.377 N 
HETATM   22  C7  MIQ B 502      -1.113  20.866  12.097  1.00142.12     0.149 C 
HETATM   23  C8  MIQ B 502       0.345  21.098  11.719  1.00144.10     0.187 C 
HETATM   24  O9  MIQ B 502       1.188  20.071  12.145  1.00148.65    -0.388 OA
HETATM   25  C10 MIQ B 502       0.655  18.881  12.647  1.00147.44     0.187 C 
HETATM   26  C11 MIQ B 502      -0.695  18.406  12.119  1.00144.08     0.149 C 
ENDBRANCH   5  21
TORSDOF 2
ENDMDL
MODEL 2
REMARK VINA RESULT:      -6.8      1.652      8.409
REMARK  2 active torsions:
REMARK  status: ('A' for Active; 'I' for Inactive)
REMARK    1  A    between atoms: C5_5  and  N6_21 
REMARK    2  A    between atoms: C18_14  and  N17_19 
ROOT
HETATM    1  O1  MIQ B 502      -3.952  19.666  15.029  1.00142.91    -0.171 OA
HETATM    2  C2  MIQ B 502      -3.728  19.500  13.661  1.00141.17     0.195 A 
HETATM    3  C3  MIQ B 502      -4.801  19.126  12.588  1.00141.71     0.035 A 
HETATM    4  C4  MIQ B 502      -6.256  18.856  12.655  1.00142.86     0.046 A 
HETATM    5  C5  MIQ B 502      -6.980  18.535  11.479  1.00139.53     0.031 A 
HETATM    6  C12 MIQ B 502      -6.289  18.472  10.199  1.00139.38     0.030 A 
HETATM    7  C13 MIQ B 502      -4.893  18.733  10.135  1.00141.18     0.019 A 
HETATM    8  C14 MIQ B 502      -4.139  19.071  11.373  1.00138.77     0.033 A 
HETATM    9  C15 MIQ B 502      -2.647  19.413  11.692  1.00142.10     0.195 A 
HETATM   10  N17 MIQ B 502      -2.592  19.625  12.996  1.00139.42    -0.288 N 
HETATM   11  O16 MIQ B 502      -1.591  19.477  10.781  1.00148.93    -0.171 OA
ENDROOT
BRANCH  10  12
HETATM   12  C18 MIQ B 502      -1.343  19.955  13.658  1.00139.82     0.187 C 
HETATM   13  C19 MIQ B 502      -0.720  21.143  12.914  1.00140.06     0.247 C 
HETATM   14  O25 MIQ B 502      -1.376  22.102  12.708  1.00143.95    -0.271 OA
HETATM   15  N20 MIQ B 502       0.656  21.124  12.462  1.00140.02    -0.296 N 
HETATM   16  H13 MIQ B 502       1.049  21.904  11.972  1.00142.77     0.171 HD
HETATM   17  C21 MIQ B 502       1.434  19.939  12.717  1.00142.22     0.224 C 
HETATM   18  C22 MIQ B 502       0.690  18.618  12.690  1.00139.52     0.106 C 
HETATM   19  O24 MIQ B 502       2.593  19.997  12.940  1.00146.13    -0.273 OA
HETATM   20  C23 MIQ B 502      -0.429  18.732  13.710  1.00139.15     0.045 C 
ENDBRANCH  10  12
BRANCH   5  21
HETATM   21  N6  MIQ B 502      -8.403  18.258  11.561  1.00140.95    -0.377 N 
HETATM   22  C7  MIQ B 502      -9.295  18.922  10.626  1.00142.12     0.149 C 
HETATM   23  C8  MIQ B 502     -10.702  19.071  11.190  1.00144.10     0.187 C 
HETATM   24  O9  MIQ B 502     -11.193  17.887  11.745  1.00148.65    -0.388 OA
HETATM   25  C10 MIQ B 502     -10.346  16.793  11.941  1.00147.44     0.187 C 
HETATM   26  C11 MIQ B 502      -8.870  17.054  12.225  1.00144.08     0.149 C 
ENDBRANCH   5  21
TORSDOF 2
ENDMDL
MODEL 3
REMARK VINA RESULT:      -6.8      1.555      2.707
REMARK  2 active torsions:
REMARK  status: ('A' for Active; 'I' for Inactive)
REMARK    1  A    between atoms: C5_5  and  N6_21 
REMARK    2  A    between atoms: C18_14  and  N17_19 
ROOT
HETATM    1  O1  MIQ B 502      -5.130  18.326   9.427  1.00142.91    -0.171 OA
HETATM    2  C2  MIQ B 502      -5.385  18.735  10.738  1.00141.17     0.195 A 
HETATM    3  C3  MIQ B 502      -4.315  19.071  11.824  1.00141.71     0.035 A 
HETATM    4  C4  MIQ B 502      -2.833  19.072  11.829  1.00142.86     0.046 A 
HETATM    5  C5  MIQ B 502      -2.120  19.436  12.999  1.00139.53     0.031 A 
HETATM    6  C12 MIQ B 502      -2.849  19.811  14.202  1.00139.38     0.030 A 
HETATM    7  C13 MIQ B 502      -4.270  19.812  14.198  1.00141.18     0.019 A 
HETATM    8  C14 MIQ B 502      -5.013  19.431  12.966  1.00138.77     0.033 A 
HETATM    9  C15 MIQ B 502      -6.526  19.318  12.585  1.00142.10     0.195 A 
HETATM   10  N17 MIQ B 502      -6.556  18.926  11.322  1.00139.42    -0.288 N 
HETATM   11  O16 MIQ B 502      -7.618  19.578  13.415  1.00148.93    -0.171 OA
ENDROOT
BRANCH  10  12
HETATM   12  C18 MIQ B 502      -7.811  18.699  10.630  1.00139.82     0.187 C 
HETATM   13  C19 MIQ B 502      -8.643  19.982  10.737  1.00140.06     0.247 C 
HETATM   14  O25 MIQ B 502      -8.155  21.012  10.436  1.00143.95    -0.271 OA
HETATM   15  N20 MIQ B 502     -10.018  19.964  11.193  1.00140.02    -0.296 N 
HETATM   16  H13 MIQ B 502     -10.549  20.810  11.265  1.00142.77     0.171 HD
HETATM   17  C21 MIQ B 502     -10.589  18.696  11.565  1.00142.22     0.224 C 
HETATM   18  C22 MIQ B 502      -9.650  17.684  12.193  1.00139.52     0.106 C 
HETATM   19  O24 MIQ B 502     -11.732  18.456  11.384  1.00146.13    -0.273 OA
HETATM   20  C23 MIQ B 502      -8.519  17.472  11.202  1.00139.15     0.045 C 
ENDBRANCH  10  12
BRANCH   5  21
HETATM   21  N6  MIQ B 502      -0.668  19.418  12.994  1.00140.95    -0.377 N 
HETATM   22  C7  MIQ B 502       0.043  20.657  13.258  1.00142.12     0.149 C 
HETATM   23  C8  MIQ B 502       1.423  20.669  12.614  1.00144.10     0.187 C 
HETATM   24  O9  MIQ B 502       2.147  19.501  12.860  1.00148.65    -0.388 OA
HETATM   25  C10 MIQ B 502       1.526  18.391  13.437  1.00147.44     0.187 C 
HETATM   26  C11 MIQ B 502       0.042  18.163  13.168  1.00144.08     0.149 C 
ENDBRANCH   5  21
TORSDOF 2
ENDMDL
MODEL 4
REMARK VINA RESULT:      -6.7     14.041     16.605
REMARK  2 active torsions:
REMARK  status: ('A' for Active; 'I' for Inactive)
REMARK    1  A    between atoms: C5_5  and  N6_21 
REMARK    2  A    between atoms: C18_14  and  N17_19 
ROOT
HETATM    1  O1  MIQ B 502       1.733   5.142  16.865  1.00142.91    -0.171 OA
HETATM    2  C2  MIQ B 502       1.594   6.530  16.928  1.00141.17     0.195 A 
HETATM    3  C3  MIQ B 502       1.388   7.378  18.224  1.00141.71     0.035 A 
HETATM    4  C4  MIQ B 502       1.287   7.033  19.662  1.00142.86     0.046 A 
HETATM    5  C5  MIQ B 502       1.097   8.051  20.631  1.00139.53     0.031 A 
HETATM    6  C12 MIQ B 502       1.002   9.441  20.209  1.00139.38     0.030 A 
HETATM    7  C13 MIQ B 502       1.101   9.772  18.831  1.00141.18     0.019 A 
HETATM    8  C14 MIQ B 502       1.302   8.700  17.818  1.00138.77     0.033 A 
HETATM    9  C15 MIQ B 502       1.456   8.672  16.263  1.00142.10     0.195 A 
HETATM   10  N17 MIQ B 502       1.611   7.400  15.933  1.00139.42    -0.288 N 
HETATM   11  O16 MIQ B 502       1.431   9.770  15.401  1.00148.93    -0.171 OA
ENDROOT
BRANCH  10  12
HETATM   12  C18 MIQ B 502       1.769   6.990  14.551  1.00139.82     0.187 C 
HETATM   13  C19 MIQ B 502       0.693   5.939  14.249  1.00140.06     0.247 C 
HETATM   14  O25 MIQ B 502      -0.432   6.174  14.513  1.00143.95    -0.271 OA
HETATM   15  N20 MIQ B 502       1.020   4.664  13.643  1.00140.02    -0.296 N 
HETATM   16  H13 MIQ B 502       0.309   3.984  13.457  1.00142.77     0.171 HD
HETATM   17  C21 MIQ B 502       2.402   4.396  13.340  1.00142.22     0.224 C 
HETATM   18  C22 MIQ B 502       3.433   4.986  14.282  1.00139.52     0.106 C 
HETATM   19  O24 MIQ B 502       2.714   3.752  12.400  1.00146.13    -0.273 OA
HETATM   20  C23 MIQ B 502       3.189   6.484  14.305  1.00139.15     0.045 C 
ENDBRANCH  10  12
BRANCH   5  21
HETATM   21  N6  MIQ B 502       0.984   7.698  22.034  1.00140.95    -0.377 N 
HETATM   22  C7  MIQ B 502       0.688   6.319  22.382  1.00142.12     0.149 C 
HETATM   23  C8  MIQ B 502      -0.017   6.210  23.728  1.00144.10     0.187 C 
HETATM   24  O9  MIQ B 502       0.606   6.957  24.729  1.00148.65    -0.388 OA
HETATM   25  C10 MIQ B 502       1.618   7.866  24.408  1.00147.44     0.187 C 
HETATM   26  C11 MIQ B 502       1.576   8.553  23.047  1.00144.08     0.149 C 
ENDBRANCH   5  21
TORSDOF 2
ENDMDL
MODEL 5
REMARK VINA RESULT:      -6.7      2.434      8.076
REMARK  2 active torsions:
REMARK  status: ('A' for Active; 'I' for Inactive)
REMARK    1  A    between atoms: C5_5  and  N6_21 
REMARK    2  A    between atoms: C18_14  and  N17_19 
ROOT
HETATM    1  O1  MIQ B 502      -3.551  19.521  15.062  1.00142.91    -0.171 OA
HETATM    2  C2  MIQ B 502      -3.331  19.436  13.685  1.00141.17     0.195 A 
HETATM    3  C3  MIQ B 502      -4.414  19.162  12.593  1.00141.71     0.035 A 
HETATM    4  C4  MIQ B 502      -5.877  18.930  12.644  1.00142.86     0.046 A 
HETATM    5  C5  MIQ B 502      -6.610  18.706  11.451  1.00139.53     0.031 A 
HETATM    6  C12 MIQ B 502      -5.920  18.705  10.169  1.00139.38     0.030 A 
HETATM    7  C13 MIQ B 502      -4.517  18.929  10.119  1.00141.18     0.019 A 
HETATM    8  C14 MIQ B 502      -3.754  19.166  11.375  1.00138.77     0.033 A 
HETATM    9  C15 MIQ B 502      -2.253  19.443  11.713  1.00142.10     0.195 A 
HETATM   10  N17 MIQ B 502      -2.192  19.570  13.028  1.00139.42    -0.288 N 
HETATM   11  O16 MIQ B 502      -1.195  19.535  10.806  1.00148.93    -0.171 OA
ENDROOT
BRANCH  10  12
HETATM   12  C18 MIQ B 502      -0.934  19.822  13.708  1.00139.82     0.187 C 
HETATM   13  C19 MIQ B 502      -0.766  18.750  14.791  1.00140.06     0.247 C 
HETATM   14  O25 MIQ B 502      -0.890  17.613  14.502  1.00143.95    -0.271 OA
HETATM   15  N20 MIQ B 502      -0.452  19.094  16.163  1.00140.02    -0.296 N 
HETATM   16  H13 MIQ B 502      -0.351  18.385  16.863  1.00142.77     0.171 HD
HETATM   17  C21 MIQ B 502      -0.315  20.489  16.495  1.00142.22     0.224 C 
HETATM   18  C22 MIQ B 502      -1.198  21.459  15.734  1.00139.52     0.106 C 
HETATM   19  O24 MIQ B 502       0.451  20.857  17.315  1.00146.13    -0.273 OA
HETATM   20  C23 MIQ B 502      -0.904  21.246  14.260  1.00139.15     0.045 C 
ENDBRANCH  10  12
BRANCH   5  21
HETATM   21  N6  MIQ B 502      -8.039  18.466  11.518  1.00140.95    -0.377 N 
HETATM   22  C7  MIQ B 502      -8.883  18.998  10.461  1.00142.12     0.149 C 
HETATM   23  C8  MIQ B 502     -10.306  19.249  10.943  1.00144.10     0.187 C 
HETATM   24  O9  MIQ B 502     -10.841  18.168  11.646  1.00148.65    -0.388 OA
HETATM   25  C10 MIQ B 502     -10.025  17.102  12.033  1.00147.44     0.187 C 
HETATM   26  C11 MIQ B 502      -8.555  17.380  12.333  1.00144.08     0.149 C 
ENDBRANCH   5  21
TORSDOF 2
ENDMDL
MODEL 6
REMARK VINA RESULT:      -6.6     17.929     19.709
REMARK  2 active torsions:
REMARK  status: ('A' for Active; 'I' for Inactive)
REMARK    1  A    between atoms: C5_5  and  N6_21 
REMARK    2  A    between atoms: C18_14  and  N17_19 
ROOT
HETATM    1  O1  MIQ B 502     -17.688   6.238   8.528  1.00142.91    -0.171 OA
HETATM    2  C2  MIQ B 502     -18.600   6.524   9.547  1.00141.17     0.195 A 
HETATM    3  C3  MIQ B 502     -19.758   7.570   9.480  1.00141.71     0.035 A 
HETATM    4  C4  MIQ B 502     -20.229   8.503   8.429  1.00142.86     0.046 A 
HETATM    5  C5  MIQ B 502     -21.339   9.352   8.669  1.00139.53     0.031 A 
HETATM    6  C12 MIQ B 502     -22.020   9.305   9.955  1.00139.38     0.030 A 
HETATM    7  C13 MIQ B 502     -21.569   8.410  10.962  1.00141.18     0.019 A 
HETATM    8  C14 MIQ B 502     -20.405   7.519  10.704  1.00138.77     0.033 A 
HETATM    9  C15 MIQ B 502     -19.644   6.436  11.535  1.00142.10     0.195 A 
HETATM   10  N17 MIQ B 502     -18.679   5.984  10.751  1.00139.42    -0.288 N 
HETATM   11  O16 MIQ B 502     -19.927   6.033  12.841  1.00148.93    -0.171 OA
ENDROOT
BRANCH  10  12
HETATM   12  C18 MIQ B 502     -17.750   4.966  11.202  1.00139.82     0.187 C 
HETATM   13  C19 MIQ B 502     -18.569   3.746  11.641  1.00140.06     0.247 C 
HETATM   14  O25 MIQ B 502     -19.383   3.306  10.910  1.00143.95    -0.271 OA
HETATM   15  N20 MIQ B 502     -18.368   3.114  12.929  1.00140.02    -0.296 N 
HETATM   16  H13 MIQ B 502     -18.914   2.322  13.206  1.00142.77     0.171 HD
HETATM   17  C21 MIQ B 502     -17.376   3.676  13.809  1.00142.22     0.224 C 
HETATM   18  C22 MIQ B 502     -17.188   5.179  13.751  1.00139.52     0.106 C 
HETATM   19  O24 MIQ B 502     -16.737   2.996  14.534  1.00146.13    -0.273 OA
HETATM   20  C23 MIQ B 502     -16.853   5.517  12.310  1.00139.15     0.045 C 
ENDBRANCH  10  12
BRANCH   5  21
HETATM   21  N6  MIQ B 502     -21.780  10.271   7.636  1.00140.95    -0.377 N 
HETATM   22  C7  MIQ B 502     -23.064  10.035   6.998  1.00142.12     0.149 C 
HETATM   23  C8  MIQ B 502     -23.113  10.610   5.588  1.00144.10     0.187 C 
HETATM   24  O9  MIQ B 502     -22.646  11.924   5.521  1.00148.65    -0.388 OA
HETATM   25  C10 MIQ B 502     -22.000  12.503   6.617  1.00147.44     0.187 C 
HETATM   26  C11 MIQ B 502     -21.202  11.601   7.553  1.00144.08     0.149 C 
ENDBRANCH   5  21
TORSDOF 2
ENDMDL
MODEL 7
REMARK VINA RESULT:      -6.6      1.992      8.815
REMARK  2 active torsions:
REMARK  status: ('A' for Active; 'I' for Inactive)
REMARK    1  A    between atoms: C5_5  and  N6_21 
REMARK    2  A    between atoms: C18_14  and  N17_19 
ROOT
HETATM    1  O1  MIQ B 502      -2.010  19.434   9.778  1.00142.91    -0.171 OA
HETATM    2  C2  MIQ B 502      -2.228  19.521  11.154  1.00141.17     0.195 A 
HETATM    3  C3  MIQ B 502      -3.599  19.353  11.883  1.00141.71     0.035 A 
HETATM    4  C4  MIQ B 502      -4.976  19.071  11.412  1.00142.86     0.046 A 
HETATM    5  C5  MIQ B 502      -6.045  18.972  12.338  1.00139.53     0.031 A 
HETATM    6  C12 MIQ B 502      -5.787  19.146  13.760  1.00139.38     0.030 A 
HETATM    7  C13 MIQ B 502      -4.467  19.414  14.213  1.00141.18     0.019 A 
HETATM    8  C14 MIQ B 502      -3.348  19.516  13.236  1.00138.77     0.033 A 
HETATM    9  C15 MIQ B 502      -1.812  19.786  13.347  1.00142.10     0.195 A 
HETATM   10  N17 MIQ B 502      -1.345  19.753  12.110  1.00139.42    -0.288 N 
HETATM   11  O16 MIQ B 502      -1.087  20.018  14.517  1.00148.93    -0.171 OA
ENDROOT
BRANCH  10  12
HETATM   12  C18 MIQ B 502       0.059  19.982  11.825  1.00139.82     0.187 C 
HETATM   13  C19 MIQ B 502       0.879  19.096  12.771  1.00140.06     0.247 C 
HETATM   14  O25 MIQ B 502       0.627  17.946  12.847  1.00143.95    -0.271 OA
HETATM   15  N20 MIQ B 502       1.961  19.631  13.572  1.00140.02    -0.296 N 
HETATM   16  H13 MIQ B 502       2.484  19.043  14.191  1.00142.77     0.171 HD
HETATM   17  C21 MIQ B 502       2.243  21.039  13.470  1.00142.22     0.224 C 
HETATM   18  C22 MIQ B 502       1.060  21.955  13.226  1.00139.52     0.106 C 
HETATM   19  O24 MIQ B 502       3.344  21.457  13.568  1.00146.13    -0.273 OA
HETATM   20  C23 MIQ B 502       0.393  21.467  11.953  1.00139.15     0.045 C 
ENDBRANCH  10  12
BRANCH   5  21
HETATM   21  N6  MIQ B 502      -7.390  18.711  11.861  1.00140.95    -0.377 N 
HETATM   22  C7  MIQ B 502      -7.650  18.793  10.434  1.00142.12     0.149 C 
HETATM   23  C8  MIQ B 502      -9.104  19.140  10.139  1.00144.10     0.187 C 
HETATM   24  O9  MIQ B 502     -10.006  18.360  10.866  1.00148.65    -0.388 OA
HETATM   25  C10 MIQ B 502      -9.557  17.539  11.903  1.00147.44     0.187 C 
HETATM   26  C11 MIQ B 502      -8.323  17.968  12.691  1.00144.08     0.149 C 
ENDBRANCH   5  21
TORSDOF 2
ENDMDL
MODEL 8
REMARK VINA RESULT:      -6.5     17.085     18.706
REMARK  2 active torsions:
REMARK  status: ('A' for Active; 'I' for Inactive)
REMARK    1  A    between atoms: C5_5  and  N6_21 
REMARK    2  A    between atoms: C18_14  and  N17_19 
ROOT
HETATM    1  O1  MIQ B 502       4.257   6.783  16.817  1.00142.91    -0.171 OA
HETATM    2  C2  MIQ B 502       3.418   5.671  16.910  1.00141.17     0.195 A 
HETATM    3  C3  MIQ B 502       2.530   5.286  18.137  1.00141.71     0.035 A 
HETATM    4  C4  MIQ B 502       2.302   5.905  19.464  1.00142.86     0.046 A 
HETATM    5  C5  MIQ B 502       1.411   5.306  20.390  1.00139.53     0.031 A 
HETATM    6  C12 MIQ B 502       0.717   4.077  20.034  1.00139.38     0.030 A 
HETATM    7  C13 MIQ B 502       0.934   3.485  18.761  1.00141.18     0.019 A 
HETATM    8  C14 MIQ B 502       1.868   4.119  17.792  1.00138.77     0.033 A 
HETATM    9  C15 MIQ B 502       2.348   3.778  16.343  1.00142.10     0.195 A 
HETATM   10  N17 MIQ B 502       3.197   4.734  16.005  1.00139.42    -0.288 N 
HETATM   11  O16 MIQ B 502       1.958   2.683  15.570  1.00148.93    -0.171 OA
ENDROOT
BRANCH  10  12
HETATM   12  C18 MIQ B 502       3.861   4.735  14.715  1.00139.82     0.187 C 
HETATM   13  C19 MIQ B 502       2.781   4.624  13.632  1.00140.06     0.247 C 
HETATM   14  O25 MIQ B 502       1.864   5.365  13.655  1.00143.95    -0.271 OA
HETATM   15  N20 MIQ B 502       2.858   3.636  12.575  1.00140.02    -0.296 N 
HETATM   16  H13 MIQ B 502       2.143   3.569  11.878  1.00142.77     0.171 HD
HETATM   17  C21 MIQ B 502       3.982   2.735  12.574  1.00142.22     0.224 C 
HETATM   18  C22 MIQ B 502       4.530   2.328  13.928  1.00139.52     0.106 C 
HETATM   19  O24 MIQ B 502       4.455   2.338  11.566  1.00146.13    -0.273 OA
HETATM   20  C23 MIQ B 502       4.896   3.613  14.649  1.00139.15     0.045 C 
ENDBRANCH  10  12
BRANCH   5  21
HETATM   21  N6  MIQ B 502       1.209   5.915  21.693  1.00140.95    -0.377 N 
HETATM   22  C7  MIQ B 502       0.826   7.315  21.753  1.00142.12     0.149 C 
HETATM   23  C8  MIQ B 502       1.266   7.969  23.056  1.00144.10     0.187 C 
HETATM   24  O9  MIQ B 502       0.938   7.212  24.182  1.00148.65    -0.388 OA
HETATM   25  C10 MIQ B 502       0.473   5.902  24.043  1.00147.44     0.187 C 
HETATM   26  C11 MIQ B 502       0.955   5.079  22.853  1.00144.08     0.149 C 
ENDBRANCH   5  21
TORSDOF 2
ENDMDL
MODEL 9
REMARK VINA RESULT:      -6.4      1.812      2.408
REMARK  2 active torsions:
REMARK  status: ('A' for Active; 'I' for Inactive)
REMARK    1  A    between atoms: C5_5  and  N6_21 
REMARK    2  A    between atoms: C18_14  and  N17_19 
ROOT
HETATM    1  O1  MIQ B 502      -6.839  19.845  13.430  1.00142.91    -0.171 OA
HETATM    2  C2  MIQ B 502      -6.273  19.583  12.180  1.00141.17     0.195 A 
HETATM    3  C3  MIQ B 502      -4.761  19.319  11.890  1.00141.71     0.035 A 
HETATM    4  C4  MIQ B 502      -3.554  19.260  12.749  1.00142.86     0.046 A 
HETATM    5  C5  MIQ B 502      -2.283  18.991  12.181  1.00139.53     0.031 A 
HETATM    6  C12 MIQ B 502      -2.165  18.771  10.746  1.00139.38     0.030 A 
HETATM    7  C13 MIQ B 502      -3.322  18.825   9.924  1.00141.18     0.019 A 
HETATM    8  C14 MIQ B 502      -4.654  19.106  10.526  1.00138.77     0.033 A 
HETATM    9  C15 MIQ B 502      -6.107  19.238   9.965  1.00142.10     0.195 A 
HETATM   10  N17 MIQ B 502      -6.878  19.500  11.008  1.00139.42    -0.288 N 
HETATM   11  O16 MIQ B 502      -6.505  19.109   8.633  1.00148.93    -0.171 OA
ENDROOT
BRANCH  10  12
HETATM   12  C18 MIQ B 502      -8.307  19.703  10.861  1.00139.82     0.187 C 
HETATM   13  C19 MIQ B 502      -8.666  21.023  11.556  1.00140.06     0.247 C 
HETATM   14  O25 MIQ B 502      -8.053  21.996  11.294  1.00143.95    -0.271 OA
HETATM   15  N20 MIQ B 502      -9.741  21.110  12.522  1.00140.02    -0.296 N 
HETATM   16  H13 MIQ B 502      -9.961  21.976  12.974  1.00142.77     0.171 HD
HETATM   17  C21 MIQ B 502     -10.468  19.906  12.833  1.00142.22     0.224 C 
HETATM   18  C22 MIQ B 502      -9.682  18.609  12.803  1.00139.52     0.106 C 
HETATM   19  O24 MIQ B 502     -11.620  19.930  13.093  1.00146.13    -0.273 OA
HETATM   20  C23 MIQ B 502      -9.075  18.505  11.416  1.00139.15     0.045 C 
ENDBRANCH  10  12
BRANCH   5  21
HETATM   21  N6  MIQ B 502      -1.107  18.952  13.031  1.00140.95    -0.377 N 
HETATM   22  C7  MIQ B 502      -1.243  18.433  14.381  1.00142.12     0.149 C 
HETATM   23  C8  MIQ B 502      -0.198  19.016  15.323  1.00144.10     0.187 C 
HETATM   24  O9  MIQ B 502       1.094  18.974  14.794  1.00148.65    -0.388 OA
HETATM   25  C10 MIQ B 502       1.299  18.639  13.454  1.00147.44     0.187 C 
HETATM   26  C11 MIQ B 502       0.218  18.997  12.439  1.00144.08     0.149 C 
ENDBRANCH   5  21
TORSDOF 2
ENDMDL
