MODEL 1
REMARK VINA RESULT:      -6.2      0.000      0.000
REMARK  2 active torsions:
REMARK  status: ('A' for Active; 'I' for Inactive)
REMARK    1  A    between atoms: C5_5  and  N6_21 
REMARK    2  A    between atoms: C18_14  and  N17_19 
ROOT
HETATM    1  O1  MIQ B 502      17.842   3.256 -18.692  1.00142.91    -0.171 OA
HETATM    2  C2  MIQ B 502      17.689   2.913 -17.347  1.00141.17     0.195 A 
HETATM    3  C3  MIQ B 502      18.226   3.722 -16.123  1.00141.71     0.035 A 
HETATM    4  C4  MIQ B 502      18.991   4.985 -15.992  1.00142.86     0.046 A 
HETATM    5  C5  MIQ B 502      19.341   5.481 -14.711  1.00139.53     0.031 A 
HETATM    6  C12 MIQ B 502      18.946   4.745 -13.518  1.00139.38     0.030 A 
HETATM    7  C13 MIQ B 502      18.212   3.535 -13.643  1.00141.18     0.019 A 
HETATM    8  C14 MIQ B 502      17.845   3.020 -14.991  1.00138.77     0.033 A 
HETATM    9  C15 MIQ B 502      17.067   1.769 -15.515  1.00142.10     0.195 A 
HETATM   10  N17 MIQ B 502      17.070   1.864 -16.834  1.00139.42    -0.288 N 
HETATM   11  O16 MIQ B 502      16.491   0.759 -14.743  1.00148.93    -0.171 OA
ENDROOT
BRANCH  10  12
HETATM   12  C18 MIQ B 502      16.444   0.854 -17.668  1.00139.82     0.187 C 
HETATM   13  C19 MIQ B 502      17.464   0.425 -18.729  1.00140.06     0.247 C 
HETATM   14  O25 MIQ B 502      18.548   0.105 -18.389  1.00143.95    -0.271 OA
HETATM   15  N20 MIQ B 502      17.133   0.394 -20.139  1.00140.02    -0.296 N 
HETATM   16  H13 MIQ B 502      17.810   0.118 -20.822  1.00142.77     0.171 HD
HETATM   17  C21 MIQ B 502      15.807   0.799 -20.529  1.00142.22     0.224 C 
HETATM   18  C22 MIQ B 502      15.155   1.888 -19.700  1.00139.52     0.106 C 
HETATM   19  O24 MIQ B 502      15.254   0.301 -21.447  1.00146.13    -0.273 OA
HETATM   20  C23 MIQ B 502      15.144   1.390 -18.266  1.00139.15     0.045 C 
ENDBRANCH  10  12
BRANCH   5  21
HETATM   21  N6  MIQ B 502      20.102   6.712 -14.598  1.00140.95    -0.377 N 
HETATM   22  C7  MIQ B 502      19.584   7.910 -15.236  1.00142.12     0.149 C 
HETATM   23  C8  MIQ B 502      20.696   8.886 -15.599  1.00144.10     0.187 C 
HETATM   24  O9  MIQ B 502      21.590   9.108 -14.549  1.00148.65    -0.388 OA
HETATM   25  C10 MIQ B 502      21.546   8.310 -13.403  1.00147.44     0.187 C 
HETATM   26  C11 MIQ B 502      21.084   6.863 -13.539  1.00144.08     0.149 C 
ENDBRANCH   5  21
TORSDOF 2
ENDMDL
MODEL 2
REMARK VINA RESULT:      -6.0      4.558      6.401
REMARK  2 active torsions:
REMARK  status: ('A' for Active; 'I' for Inactive)
REMARK    1  A    between atoms: C5_5  and  N6_21 
REMARK    2  A    between atoms: C18_14  and  N17_19 
ROOT
HETATM    1  O1  MIQ B 502      19.409  -0.647 -17.691  1.00142.91    -0.171 OA
HETATM    2  C2  MIQ B 502      18.268  -0.166 -17.045  1.00141.17     0.195 A 
HETATM    3  C3  MIQ B 502      17.884  -0.405 -15.550  1.00141.71     0.035 A 
HETATM    4  C4  MIQ B 502      18.532  -1.139 -14.437  1.00142.86     0.046 A 
HETATM    5  C5  MIQ B 502      17.927  -1.178 -13.155  1.00139.53     0.031 A 
HETATM    6  C12 MIQ B 502      16.662  -0.492 -12.932  1.00139.38     0.030 A 
HETATM    7  C13 MIQ B 502      16.041   0.213 -13.999  1.00141.18     0.019 A 
HETATM    8  C14 MIQ B 502      16.683   0.252 -15.342  1.00138.77     0.033 A 
HETATM    9  C15 MIQ B 502      16.318   0.904 -16.715  1.00142.10     0.195 A 
HETATM   10  N17 MIQ B 502      17.297   0.580 -17.544  1.00139.42    -0.288 N 
HETATM   11  O16 MIQ B 502      15.187   1.670 -17.003  1.00148.93    -0.171 OA
ENDROOT
BRANCH  10  12
HETATM   12  C18 MIQ B 502      17.286   1.005 -18.932  1.00139.82     0.187 C 
HETATM   13  C19 MIQ B 502      17.287   2.538 -18.951  1.00140.06     0.247 C 
HETATM   14  O25 MIQ B 502      18.094   3.122 -18.318  1.00143.95    -0.271 OA
HETATM   15  N20 MIQ B 502      16.328   3.293 -19.730  1.00140.02    -0.296 N 
HETATM   16  H13 MIQ B 502      16.335   4.294 -19.729  1.00142.77     0.171 HD
HETATM   17  C21 MIQ B 502      15.346   2.559 -20.487  1.00142.22     0.224 C 
HETATM   18  C22 MIQ B 502      14.860   1.254 -19.886  1.00139.52     0.106 C 
HETATM   19  O24 MIQ B 502      14.945   2.954 -21.526  1.00146.13    -0.273 OA
HETATM   20  C23 MIQ B 502      16.092   0.396 -19.665  1.00139.15     0.045 C 
ENDBRANCH  10  12
BRANCH   5  21
HETATM   21  N6  MIQ B 502      18.565  -1.913 -12.078  1.00140.95    -0.377 N 
HETATM   22  C7  MIQ B 502      19.751  -1.347 -11.459  1.00142.12     0.149 C 
HETATM   23  C8  MIQ B 502      20.649  -2.423 -10.862  1.00144.10     0.187 C 
HETATM   24  O9  MIQ B 502      19.948  -3.343 -10.080  1.00148.65    -0.388 OA
HETATM   25  C10 MIQ B 502      18.551  -3.355 -10.081  1.00147.44     0.187 C 
HETATM   26  C11 MIQ B 502      17.819  -2.923 -11.348  1.00144.08     0.149 C 
ENDBRANCH   5  21
TORSDOF 2
ENDMDL
MODEL 3
REMARK VINA RESULT:      -6.0      2.512      3.358
REMARK  2 active torsions:
REMARK  status: ('A' for Active; 'I' for Inactive)
REMARK    1  A    between atoms: C5_5  and  N6_21 
REMARK    2  A    between atoms: C18_14  and  N17_19 
ROOT
HETATM    1  O1  MIQ B 502      18.116   2.369 -12.186  1.00142.91    -0.171 OA
HETATM    2  C2  MIQ B 502      17.958   2.802 -13.504  1.00141.17     0.195 A 
HETATM    3  C3  MIQ B 502      18.549   4.109 -14.123  1.00141.71     0.035 A 
HETATM    4  C4  MIQ B 502      19.385   5.205 -13.580  1.00142.86     0.046 A 
HETATM    5  C5  MIQ B 502      19.775   6.288 -14.409  1.00139.53     0.031 A 
HETATM    6  C12 MIQ B 502      19.350   6.320 -15.802  1.00139.38     0.030 A 
HETATM    7  C13 MIQ B 502      18.549   5.269 -16.322  1.00141.18     0.019 A 
HETATM    8  C14 MIQ B 502      18.145   4.134 -15.448  1.00138.77     0.033 A 
HETATM    9  C15 MIQ B 502      17.299   2.835 -15.653  1.00142.10     0.195 A 
HETATM   10  N17 MIQ B 502      17.297   2.213 -14.486  1.00139.42    -0.288 N 
HETATM   11  O16 MIQ B 502      16.674   2.422 -16.831  1.00148.93    -0.171 OA
ENDROOT
BRANCH  10  12
HETATM   12  C18 MIQ B 502      16.587   0.962 -14.296  1.00139.82     0.187 C 
HETATM   13  C19 MIQ B 502      16.970   0.026 -15.449  1.00140.06     0.247 C 
HETATM   14  O25 MIQ B 502      18.111  -0.148 -15.694  1.00143.95    -0.271 OA
HETATM   15  N20 MIQ B 502      15.970  -0.656 -16.244  1.00140.02    -0.296 N 
HETATM   16  H13 MIQ B 502      16.233  -1.259 -16.999  1.00142.77     0.171 HD
HETATM   17  C21 MIQ B 502      14.584  -0.419 -15.932  1.00142.22     0.224 C 
HETATM   18  C22 MIQ B 502      14.226   0.966 -15.429  1.00139.52     0.106 C 
HETATM   19  O24 MIQ B 502      13.769  -1.265 -16.058  1.00146.13    -0.273 OA
HETATM   20  C23 MIQ B 502      15.083   1.213 -14.201  1.00139.15     0.045 C 
ENDBRANCH  10  12
BRANCH   5  21
HETATM   21  N6  MIQ B 502      20.582   7.362 -13.861  1.00140.95    -0.377 N 
HETATM   22  C7  MIQ B 502      21.717   7.019 -13.022  1.00142.12     0.149 C 
HETATM   23  C8  MIQ B 502      22.053   8.131 -12.037  1.00144.10     0.187 C 
HETATM   24  O9  MIQ B 502      22.114   9.390 -12.638  1.00148.65    -0.388 OA
HETATM   25  C10 MIQ B 502      21.673   9.569 -13.952  1.00147.44     0.187 C 
HETATM   26  C11 MIQ B 502      20.547   8.680 -14.470  1.00144.08     0.149 C 
ENDBRANCH   5  21
TORSDOF 2
ENDMDL
MODEL 4
REMARK VINA RESULT:      -5.9      2.057      2.835
REMARK  2 active torsions:
REMARK  status: ('A' for Active; 'I' for Inactive)
REMARK    1  A    between atoms: C5_5  and  N6_21 
REMARK    2  A    between atoms: C18_14  and  N17_19 
ROOT
HETATM    1  O1  MIQ B 502      16.500   3.212 -19.510  1.00142.91    -0.171 OA
HETATM    2  C2  MIQ B 502      17.436   2.391 -18.877  1.00141.17     0.195 A 
HETATM    3  C3  MIQ B 502      18.415   2.818 -17.737  1.00141.71     0.035 A 
HETATM    4  C4  MIQ B 502      18.652   4.094 -17.022  1.00142.86     0.046 A 
HETATM    5  C5  MIQ B 502      19.637   4.174 -16.005  1.00139.53     0.031 A 
HETATM    6  C12 MIQ B 502      20.418   2.994 -15.662  1.00139.38     0.030 A 
HETATM    7  C13 MIQ B 502      20.191   1.770 -16.347  1.00141.18     0.019 A 
HETATM    8  C14 MIQ B 502      19.154   1.692 -17.412  1.00138.77     0.033 A 
HETATM    9  C15 MIQ B 502      18.629   0.560 -18.354  1.00142.10     0.195 A 
HETATM   10  N17 MIQ B 502      17.683   1.111 -19.096  1.00139.42    -0.288 N 
HETATM   11  O16 MIQ B 502      19.075  -0.762 -18.401  1.00148.93    -0.171 OA
ENDROOT
BRANCH  10  12
HETATM   12  C18 MIQ B 502      16.974   0.350 -20.108  1.00139.82     0.187 C 
HETATM   13  C19 MIQ B 502      16.394  -0.899 -19.434  1.00140.06     0.247 C 
HETATM   14  O25 MIQ B 502      15.757  -0.777 -18.448  1.00143.95    -0.271 OA
HETATM   15  N20 MIQ B 502      16.600  -2.226 -19.976  1.00140.02    -0.296 N 
HETATM   16  H13 MIQ B 502      16.221  -3.034 -19.523  1.00142.77     0.171 HD
HETATM   17  C21 MIQ B 502      17.389  -2.349 -21.175  1.00142.22     0.224 C 
HETATM   18  C22 MIQ B 502      18.524  -1.358 -21.348  1.00139.52     0.106 C 
HETATM   19  O24 MIQ B 502      17.158  -3.178 -21.984  1.00146.13    -0.273 OA
HETATM   20  C23 MIQ B 502      17.903   0.026 -21.277  1.00139.15     0.045 C 
ENDBRANCH  10  12
BRANCH   5  21
HETATM   21  N6  MIQ B 502      19.869   5.434 -15.323  1.00140.95    -0.377 N 
HETATM   22  C7  MIQ B 502      19.097   6.595 -15.729  1.00142.12     0.149 C 
HETATM   23  C8  MIQ B 502      19.834   7.897 -15.442  1.00144.10     0.187 C 
HETATM   24  O9  MIQ B 502      20.360   7.951 -14.150  1.00148.65    -0.388 OA
HETATM   25  C10 MIQ B 502      20.375   6.810 -13.344  1.00147.44     0.187 C 
HETATM   26  C11 MIQ B 502      20.498   5.445 -14.014  1.00144.08     0.149 C 
ENDBRANCH   5  21
TORSDOF 2
ENDMDL
MODEL 5
REMARK VINA RESULT:      -5.9      4.079      8.375
REMARK  2 active torsions:
REMARK  status: ('A' for Active; 'I' for Inactive)
REMARK    1  A    between atoms: C5_5  and  N6_21 
REMARK    2  A    between atoms: C18_14  and  N17_19 
ROOT
HETATM    1  O1  MIQ B 502      14.689   1.089 -16.099  1.00142.91    -0.171 OA
HETATM    2  C2  MIQ B 502      15.304   1.409 -17.311  1.00141.17     0.195 A 
HETATM    3  C3  MIQ B 502      14.583   1.866 -18.619  1.00141.71     0.035 A 
HETATM    4  C4  MIQ B 502      13.162   2.093 -18.973  1.00142.86     0.046 A 
HETATM    5  C5  MIQ B 502      12.808   2.520 -20.278  1.00139.53     0.031 A 
HETATM    6  C12 MIQ B 502      13.847   2.737 -21.274  1.00139.38     0.030 A 
HETATM    7  C13 MIQ B 502      15.210   2.521 -20.935  1.00141.18     0.019 A 
HETATM    8  C14 MIQ B 502      15.576   2.075 -19.563  1.00138.77     0.033 A 
HETATM    9  C15 MIQ B 502      16.921   1.746 -18.836  1.00142.10     0.195 A 
HETATM   10  N17 MIQ B 502      16.594   1.398 -17.602  1.00139.42    -0.288 N 
HETATM   11  O16 MIQ B 502      18.203   1.806 -19.384  1.00148.93    -0.171 OA
ENDROOT
BRANCH  10  12
HETATM   12  C18 MIQ B 502      17.601   1.006 -16.634  1.00139.82     0.187 C 
HETATM   13  C19 MIQ B 502      17.166  -0.331 -16.022  1.00140.06     0.247 C 
HETATM   14  O25 MIQ B 502      16.872  -1.223 -16.737  1.00143.95    -0.271 OA
HETATM   15  N20 MIQ B 502      17.112  -0.534 -14.589  1.00140.02    -0.296 N 
HETATM   16  H13 MIQ B 502      16.820  -1.410 -14.202  1.00142.77     0.171 HD
HETATM   17  C21 MIQ B 502      17.465   0.572 -13.737  1.00142.22     0.224 C 
HETATM   18  C22 MIQ B 502      17.117   1.959 -14.243  1.00139.52     0.106 C 
HETATM   19  O24 MIQ B 502      18.004   0.405 -12.699  1.00146.13    -0.273 OA
HETATM   20  C23 MIQ B 502      17.794   2.108 -15.593  1.00139.15     0.045 C 
ENDBRANCH  10  12
BRANCH   5  21
HETATM   21  N6  MIQ B 502      11.411   2.724 -20.616  1.00140.95    -0.377 N 
HETATM   22  C7  MIQ B 502      10.811   4.018 -20.339  1.00142.12     0.149 C 
HETATM   23  C8  MIQ B 502       9.307   3.913 -20.122  1.00144.10     0.187 C 
HETATM   24  O9  MIQ B 502       8.668   3.157 -21.107  1.00148.65    -0.388 OA
HETATM   25  C10 MIQ B 502       9.414   2.412 -22.024  1.00147.44     0.187 C 
HETATM   26  C11 MIQ B 502      10.764   1.856 -21.584  1.00144.08     0.149 C 
ENDBRANCH   5  21
TORSDOF 2
ENDMDL
MODEL 6
REMARK VINA RESULT:      -5.8      3.393      4.512
REMARK  2 active torsions:
REMARK  status: ('A' for Active; 'I' for Inactive)
REMARK    1  A    between atoms: C5_5  and  N6_21 
REMARK    2  A    between atoms: C18_14  and  N17_19 
ROOT
HETATM    1  O1  MIQ B 502      17.425   1.760 -12.373  1.00142.91    -0.171 OA
HETATM    2  C2  MIQ B 502      17.926   2.785 -13.179  1.00141.17     0.195 A 
HETATM    3  C3  MIQ B 502      18.248   4.244 -12.723  1.00141.71     0.035 A 
HETATM    4  C4  MIQ B 502      18.146   4.951 -11.425  1.00142.86     0.046 A 
HETATM    5  C5  MIQ B 502      18.526   6.313 -11.319  1.00139.53     0.031 A 
HETATM    6  C12 MIQ B 502      19.019   7.019 -12.493  1.00139.38     0.030 A 
HETATM    7  C13 MIQ B 502      19.118   6.341 -13.738  1.00141.18     0.019 A 
HETATM    8  C14 MIQ B 502      18.720   4.910 -13.842  1.00138.77     0.033 A 
HETATM    9  C15 MIQ B 502      18.691   3.859 -15.000  1.00142.10     0.195 A 
HETATM   10  N17 MIQ B 502      18.230   2.740 -14.465  1.00139.42    -0.288 N 
HETATM   11  O16 MIQ B 502      19.073   4.066 -16.326  1.00148.93    -0.171 OA
ENDROOT
BRANCH  10  12
HETATM   12  C18 MIQ B 502      18.052   1.539 -15.259  1.00139.82     0.187 C 
HETATM   13  C19 MIQ B 502      19.386   1.232 -15.950  1.00140.06     0.247 C 
HETATM   14  O25 MIQ B 502      20.372   1.191 -15.305  1.00143.95    -0.271 OA
HETATM   15  N20 MIQ B 502      19.469   0.986 -17.375  1.00140.02    -0.296 N 
HETATM   16  H13 MIQ B 502      20.347   0.793 -17.815  1.00142.77     0.171 HD
HETATM   17  C21 MIQ B 502      18.253   1.053 -18.144  1.00142.22     0.224 C 
HETATM   18  C22 MIQ B 502      17.212   2.056 -17.685  1.00139.52     0.106 C 
HETATM   19  O24 MIQ B 502      18.075   0.355 -19.081  1.00146.13    -0.273 OA
HETATM   20  C23 MIQ B 502      16.894   1.717 -16.240  1.00139.15     0.045 C 
ENDBRANCH  10  12
BRANCH   5  21
HETATM   21  N6  MIQ B 502      18.407   6.998 -10.045  1.00140.95    -0.377 N 
HETATM   22  C7  MIQ B 502      19.610   7.228  -9.265  1.00142.12     0.149 C 
HETATM   23  C8  MIQ B 502      19.311   7.334  -7.775  1.00144.10     0.187 C 
HETATM   24  O9  MIQ B 502      18.245   8.191  -7.495  1.00148.65    -0.388 OA
HETATM   25  C10 MIQ B 502      17.438   8.677  -8.526  1.00147.44     0.187 C 
HETATM   26  C11 MIQ B 502      17.236   7.811  -9.765  1.00144.08     0.149 C 
ENDBRANCH   5  21
TORSDOF 2
ENDMDL
MODEL 7
REMARK VINA RESULT:      -5.7      2.616      4.455
REMARK  2 active torsions:
REMARK  status: ('A' for Active; 'I' for Inactive)
REMARK    1  A    between atoms: C5_5  and  N6_21 
REMARK    2  A    between atoms: C18_14  and  N17_19 
ROOT
HETATM    1  O1  MIQ B 502      19.187   1.835 -12.790  1.00142.91    -0.171 OA
HETATM    2  C2  MIQ B 502      18.688   2.360 -13.984  1.00141.17     0.195 A 
HETATM    3  C3  MIQ B 502      18.937   3.801 -14.534  1.00141.71     0.035 A 
HETATM    4  C4  MIQ B 502      19.704   4.965 -14.030  1.00142.86     0.046 A 
HETATM    5  C5  MIQ B 502      19.746   6.172 -14.773  1.00139.53     0.031 A 
HETATM    6  C12 MIQ B 502      19.031   6.266 -16.038  1.00139.38     0.030 A 
HETATM    7  C13 MIQ B 502      18.296   5.151 -16.521  1.00141.18     0.019 A 
HETATM    8  C14 MIQ B 502      18.258   3.885 -15.738  1.00138.77     0.033 A 
HETATM    9  C15 MIQ B 502      17.584   2.489 -15.938  1.00142.10     0.195 A 
HETATM   10  N17 MIQ B 502      17.923   1.765 -14.884  1.00139.42    -0.288 N 
HETATM   11  O16 MIQ B 502      16.785   2.092 -17.012  1.00148.93    -0.171 OA
ENDROOT
BRANCH  10  12
HETATM   12  C18 MIQ B 502      17.458   0.401 -14.720  1.00139.82     0.187 C 
HETATM   13  C19 MIQ B 502      16.809   0.290 -13.335  1.00140.06     0.247 C 
HETATM   14  O25 MIQ B 502      15.987   1.076 -13.020  1.00143.95    -0.271 OA
HETATM   15  N20 MIQ B 502      17.172  -0.757 -12.403  1.00140.02    -0.296 N 
HETATM   16  H13 MIQ B 502      16.745  -0.815 -11.499  1.00142.77     0.171 HD
HETATM   17  C21 MIQ B 502      18.185  -1.698 -12.807  1.00142.22     0.224 C 
HETATM   18  C22 MIQ B 502      19.289  -1.169 -13.700  1.00139.52     0.106 C 
HETATM   19  O24 MIQ B 502      18.151  -2.828 -12.462  1.00146.13    -0.273 OA
HETATM   20  C23 MIQ B 502      18.610  -0.582 -14.924  1.00139.15     0.045 C 
ENDBRANCH  10  12
BRANCH   5  21
HETATM   21  N6  MIQ B 502      20.489   7.308 -14.261  1.00140.95    -0.377 N 
HETATM   22  C7  MIQ B 502      19.984   8.645 -14.525  1.00142.12     0.149 C 
HETATM   23  C8  MIQ B 502      21.098   9.683 -14.529  1.00144.10     0.187 C 
HETATM   24  O9  MIQ B 502      21.948   9.573 -13.427  1.00148.65    -0.388 OA
HETATM   25  C10 MIQ B 502      21.868   8.465 -12.580  1.00147.44     0.187 C 
HETATM   26  C11 MIQ B 502      21.427   7.128 -13.167  1.00144.08     0.149 C 
ENDBRANCH   5  21
TORSDOF 2
ENDMDL
MODEL 8
REMARK VINA RESULT:      -5.7      2.447      8.042
REMARK  2 active torsions:
REMARK  status: ('A' for Active; 'I' for Inactive)
REMARK    1  A    between atoms: C5_5  and  N6_21 
REMARK    2  A    between atoms: C18_14  and  N17_19 
ROOT
HETATM    1  O1  MIQ B 502      19.275   6.822 -16.277  1.00142.91    -0.171 OA
HETATM    2  C2  MIQ B 502      18.984   5.716 -15.475  1.00141.17     0.195 A 
HETATM    3  C3  MIQ B 502      18.480   4.324 -15.972  1.00141.71     0.035 A 
HETATM    4  C4  MIQ B 502      18.179   3.768 -17.313  1.00142.86     0.046 A 
HETATM    5  C5  MIQ B 502      17.727   2.432 -17.450  1.00139.53     0.031 A 
HETATM    6  C12 MIQ B 502      17.559   1.601 -16.266  1.00139.38     0.030 A 
HETATM    7  C13 MIQ B 502      17.849   2.133 -14.981  1.00141.18     0.019 A 
HETATM    8  C14 MIQ B 502      18.325   3.536 -14.843  1.00138.77     0.033 A 
HETATM    9  C15 MIQ B 502      18.736   4.444 -13.638  1.00142.10     0.195 A 
HETATM   10  N17 MIQ B 502      19.075   5.612 -14.160  1.00139.42    -0.288 N 
HETATM   11  O16 MIQ B 502      18.740   4.090 -12.288  1.00148.93    -0.171 OA
ENDROOT
BRANCH  10  12
HETATM   12  C18 MIQ B 502      19.501   6.720 -13.325  1.00139.82     0.187 C 
HETATM   13  C19 MIQ B 502      20.691   6.241 -12.485  1.00140.06     0.247 C 
HETATM   14  O25 MIQ B 502      21.602   5.718 -13.021  1.00143.95    -0.271 OA
HETATM   15  N20 MIQ B 502      20.731   6.418 -11.048  1.00140.02    -0.296 N 
HETATM   16  H13 MIQ B 502      21.511   6.095 -10.509  1.00142.77     0.171 HD
HETATM   17  C21 MIQ B 502      19.602   7.049 -10.414  1.00142.22     0.224 C 
HETATM   18  C22 MIQ B 502      18.241   6.789 -11.030  1.00139.52     0.106 C 
HETATM   19  O24 MIQ B 502      19.733   7.740  -9.464  1.00146.13    -0.273 OA
HETATM   20  C23 MIQ B 502      18.333   7.228 -12.480  1.00139.15     0.045 C 
ENDBRANCH  10  12
BRANCH   5  21
HETATM   21  N6  MIQ B 502      17.421   1.905 -18.767  1.00140.95    -0.377 N 
HETATM   22  C7  MIQ B 502      17.924   0.590 -19.124  1.00142.12     0.149 C 
HETATM   23  C8  MIQ B 502      18.106   0.439 -20.629  1.00144.10     0.187 C 
HETATM   24  O9  MIQ B 502      16.995   0.871 -21.356  1.00148.65    -0.388 OA
HETATM   25  C10 MIQ B 502      15.964   1.571 -20.725  1.00147.44     0.187 C 
HETATM   26  C11 MIQ B 502      16.306   2.447 -19.524  1.00144.08     0.149 C 
ENDBRANCH   5  21
TORSDOF 2
ENDMDL
MODEL 9
REMARK VINA RESULT:      -5.7     16.273     18.548
REMARK  2 active torsions:
REMARK  status: ('A' for Active; 'I' for Inactive)
REMARK    1  A    between atoms: C5_5  and  N6_21 
REMARK    2  A    between atoms: C18_14  and  N17_19 
ROOT
HETATM    1  O1  MIQ B 502      30.961   8.246 -27.808  1.00142.91    -0.171 OA
HETATM    2  C2  MIQ B 502      29.712   8.855 -27.667  1.00141.17     0.195 A 
HETATM    3  C3  MIQ B 502      28.917   9.597 -28.788  1.00141.71     0.035 A 
HETATM    4  C4  MIQ B 502      29.187   9.871 -30.219  1.00142.86     0.046 A 
HETATM    5  C5  MIQ B 502      28.248  10.588 -31.002  1.00139.53     0.031 A 
HETATM    6  C12 MIQ B 502      27.010  11.057 -30.395  1.00139.38     0.030 A 
HETATM    7  C13 MIQ B 502      26.750  10.794 -29.023  1.00141.18     0.019 A 
HETATM    8  C14 MIQ B 502      27.739  10.039 -28.207  1.00138.77     0.033 A 
HETATM    9  C15 MIQ B 502      27.804   9.567 -26.718  1.00142.10     0.195 A 
HETATM   10  N17 MIQ B 502      28.954   8.928 -26.587  1.00139.42    -0.288 N 
HETATM   11  O16 MIQ B 502      26.841   9.783 -25.730  1.00148.93    -0.171 OA
ENDROOT
BRANCH  10  12
HETATM   12  C18 MIQ B 502      29.364   8.359 -25.316  1.00139.82     0.187 C 
HETATM   13  C19 MIQ B 502      30.751   8.920 -24.979  1.00140.06     0.247 C 
HETATM   14  O25 MIQ B 502      30.926  10.086 -25.016  1.00143.95    -0.271 OA
HETATM   15  N20 MIQ B 502      31.855   8.057 -24.609  1.00140.02    -0.296 N 
HETATM   16  H13 MIQ B 502      32.757   8.435 -24.397  1.00142.77     0.171 HD
HETATM   17  C21 MIQ B 502      31.620   6.636 -24.581  1.00142.22     0.224 C 
HETATM   18  C22 MIQ B 502      30.637   6.088 -25.598  1.00139.52     0.106 C 
HETATM   19  O24 MIQ B 502      32.163   5.936 -23.799  1.00146.13    -0.273 OA
HETATM   20  C23 MIQ B 502      29.332   6.833 -25.382  1.00139.15     0.045 C 
ENDBRANCH  10  12
BRANCH   5  21
HETATM   21  N6  MIQ B 502      28.533  10.862 -32.399  1.00140.95    -0.377 N 
HETATM   22  C7  MIQ B 502      28.310  12.206 -32.902  1.00142.12     0.149 C 
HETATM   23  C8  MIQ B 502      28.018  12.213 -34.397  1.00144.10     0.187 C 
HETATM   24  O9  MIQ B 502      28.923  11.443 -35.131  1.00148.65    -0.388 OA
HETATM   25  C10 MIQ B 502      29.825  10.598 -34.479  1.00147.44     0.187 C 
HETATM   26  C11 MIQ B 502      29.414   9.982 -33.146  1.00144.08     0.149 C 
ENDBRANCH   5  21
TORSDOF 2
ENDMDL
