MODEL 1
REMARK VINA RESULT:      -6.2      0.000      0.000
REMARK  2 active torsions:
REMARK  status: ('A' for Active; 'I' for Inactive)
REMARK    1  A    between atoms: C5_5  and  N6_21 
REMARK    2  A    between atoms: C18_14  and  N17_19 
ROOT
HETATM    1  O1  MIQ B 502       3.238 -39.482  -5.418  1.00142.91    -0.171 OA
HETATM    2  C2  MIQ B 502       3.211 -40.838  -5.752  1.00141.17     0.195 A 
HETATM    3  C3  MIQ B 502       2.698 -41.448  -7.096  1.00141.71     0.035 A 
HETATM    4  C4  MIQ B 502       2.135 -40.857  -8.333  1.00142.86     0.046 A 
HETATM    5  C5  MIQ B 502       1.752 -41.690  -9.414  1.00139.53     0.031 A 
HETATM    6  C12 MIQ B 502       1.914 -43.133  -9.308  1.00139.38     0.030 A 
HETATM    7  C13 MIQ B 502       2.455 -43.699  -8.123  1.00141.18     0.019 A 
HETATM    8  C14 MIQ B 502       2.858 -42.820  -6.991  1.00138.77     0.033 A 
HETATM    9  C15 MIQ B 502       3.473 -43.064  -5.575  1.00142.10     0.195 A 
HETATM   10  N17 MIQ B 502       3.607 -41.869  -5.024  1.00139.42    -0.288 N 
HETATM   11  O16 MIQ B 502       3.809 -44.295  -5.010  1.00148.93    -0.171 OA
ENDROOT
BRANCH  10  12
HETATM   12  C18 MIQ B 502       4.139 -41.708  -3.684  1.00139.82     0.187 C 
HETATM   13  C19 MIQ B 502       3.145 -40.857  -2.884  1.00140.06     0.247 C 
HETATM   14  O25 MIQ B 502       2.006 -41.162  -2.871  1.00143.95    -0.271 OA
HETATM   15  N20 MIQ B 502       3.567 -39.689  -2.137  1.00140.02    -0.296 N 
HETATM   16  H13 MIQ B 502       2.907 -39.138  -1.625  1.00142.77     0.171 HD
HETATM   17  C21 MIQ B 502       4.961 -39.330  -2.177  1.00142.22     0.224 C 
HETATM   18  C22 MIQ B 502       5.702 -39.617  -3.469  1.00139.52     0.106 C 
HETATM   19  O24 MIQ B 502       5.500 -38.842  -1.246  1.00146.13    -0.273 OA
HETATM   20  C23 MIQ B 502       5.541 -41.102  -3.738  1.00139.15     0.045 C 
ENDBRANCH  10  12
BRANCH   5  21
HETATM   21  N6  MIQ B 502       1.187 -41.099 -10.614  1.00140.95    -0.377 N 
HETATM   22  C7  MIQ B 502      -0.253 -41.142 -10.798  1.00142.12     0.149 C 
HETATM   23  C8  MIQ B 502      -0.640 -41.106 -12.271  1.00144.10     0.187 C 
HETATM   24  O9  MIQ B 502       0.023 -40.104 -12.982  1.00148.65    -0.388 OA
HETATM   25  C10 MIQ B 502       1.083 -39.405 -12.399  1.00147.44     0.187 C 
HETATM   26  C11 MIQ B 502       1.951 -40.122 -11.370  1.00144.08     0.149 C 
ENDBRANCH   5  21
TORSDOF 2
ENDMDL
MODEL 2
REMARK VINA RESULT:      -6.1      4.780      7.331
REMARK  2 active torsions:
REMARK  status: ('A' for Active; 'I' for Inactive)
REMARK    1  A    between atoms: C5_5  and  N6_21 
REMARK    2  A    between atoms: C18_14  and  N17_19 
ROOT
HETATM    1  O1  MIQ B 502       6.402 -46.547  -4.994  1.00142.91    -0.171 OA
HETATM    2  C2  MIQ B 502       5.298 -46.379  -4.154  1.00141.17     0.195 A 
HETATM    3  C3  MIQ B 502       4.331 -45.153  -4.136  1.00141.71     0.035 A 
HETATM    4  C4  MIQ B 502       4.265 -43.896  -4.919  1.00142.86     0.046 A 
HETATM    5  C5  MIQ B 502       3.241 -42.948  -4.668  1.00139.53     0.031 A 
HETATM    6  C12 MIQ B 502       2.249 -43.213  -3.635  1.00139.38     0.030 A 
HETATM    7  C13 MIQ B 502       2.312 -44.418  -2.885  1.00141.18     0.019 A 
HETATM    8  C14 MIQ B 502       3.388 -45.410  -3.155  1.00138.77     0.033 A 
HETATM    9  C15 MIQ B 502       3.771 -46.805  -2.561  1.00142.10     0.195 A 
HETATM   10  N17 MIQ B 502       4.845 -47.202  -3.224  1.00139.42    -0.288 N 
HETATM   11  O16 MIQ B 502       3.112 -47.487  -1.536  1.00148.93    -0.171 OA
ENDROOT
BRANCH  10  12
HETATM   12  C18 MIQ B 502       5.496 -48.464  -2.925  1.00139.82     0.187 C 
HETATM   13  C19 MIQ B 502       6.990 -48.183  -2.723  1.00140.06     0.247 C 
HETATM   14  O25 MIQ B 502       7.320 -47.330  -1.978  1.00143.95    -0.271 OA
HETATM   15  N20 MIQ B 502       8.010 -48.941  -3.418  1.00140.02    -0.296 N 
HETATM   16  H13 MIQ B 502       8.982 -48.743  -3.282  1.00142.77     0.171 HD
HETATM   17  C21 MIQ B 502       7.582 -49.970  -4.331  1.00142.22     0.224 C 
HETATM   18  C22 MIQ B 502       6.290 -49.719  -5.082  1.00139.52     0.106 C 
HETATM   19  O24 MIQ B 502       8.207 -50.962  -4.480  1.00146.13    -0.273 OA
HETATM   20  C23 MIQ B 502       5.220 -49.480  -4.033  1.00139.15     0.045 C 
ENDBRANCH  10  12
BRANCH   5  21
HETATM   21  N6  MIQ B 502       3.196 -41.715  -5.432  1.00140.95    -0.377 N 
HETATM   22  C7  MIQ B 502       4.329 -40.808  -5.354  1.00142.12     0.149 C 
HETATM   23  C8  MIQ B 502       3.923 -39.366  -5.629  1.00144.10     0.187 C 
HETATM   24  O9  MIQ B 502       3.129 -39.233  -6.770  1.00148.65    -0.388 OA
HETATM   25  C10 MIQ B 502       2.608 -40.363  -7.406  1.00147.44     0.187 C 
HETATM   26  C11 MIQ B 502       2.291 -41.593  -6.562  1.00144.08     0.149 C 
ENDBRANCH   5  21
TORSDOF 2
ENDMDL
MODEL 3
REMARK VINA RESULT:      -6.1      3.815      7.370
REMARK  2 active torsions:
REMARK  status: ('A' for Active; 'I' for Inactive)
REMARK    1  A    between atoms: C5_5  and  N6_21 
REMARK    2  A    between atoms: C18_14  and  N17_19 
ROOT
HETATM    1  O1  MIQ B 502       5.713 -41.655  -5.864  1.00142.91    -0.171 OA
HETATM    2  C2  MIQ B 502       4.662 -41.843  -4.963  1.00141.17     0.195 A 
HETATM    3  C3  MIQ B 502       4.316 -43.169  -4.214  1.00141.71     0.035 A 
HETATM    4  C4  MIQ B 502       4.920 -44.522  -4.204  1.00142.86     0.046 A 
HETATM    5  C5  MIQ B 502       4.368 -45.548  -3.397  1.00139.53     0.031 A 
HETATM    6  C12 MIQ B 502       3.200 -45.270  -2.573  1.00139.38     0.030 A 
HETATM    7  C13 MIQ B 502       2.621 -43.972  -2.581  1.00141.18     0.019 A 
HETATM    8  C14 MIQ B 502       3.207 -42.898  -3.428  1.00138.77     0.033 A 
HETATM    9  C15 MIQ B 502       2.864 -41.395  -3.692  1.00142.10     0.195 A 
HETATM   10  N17 MIQ B 502       3.763 -40.962  -4.559  1.00139.42    -0.288 N 
HETATM   11  O16 MIQ B 502       1.817 -40.666  -3.126  1.00148.93    -0.171 OA
ENDROOT
BRANCH  10  12
HETATM   12  C18 MIQ B 502       3.744 -39.597  -5.052  1.00139.82     0.187 C 
HETATM   13  C19 MIQ B 502       3.674 -39.653  -6.583  1.00140.06     0.247 C 
HETATM   14  O25 MIQ B 502       2.847 -40.318  -7.097  1.00143.95    -0.271 OA
HETATM   15  N20 MIQ B 502       4.593 -38.906  -7.417  1.00140.02    -0.296 N 
HETATM   16  H13 MIQ B 502       4.541 -38.957  -8.416  1.00142.77     0.171 HD
HETATM   17  C21 MIQ B 502       5.600 -38.109  -6.766  1.00142.22     0.224 C 
HETATM   18  C22 MIQ B 502       6.149 -38.643  -5.456  1.00139.52     0.106 C 
HETATM   19  O24 MIQ B 502       5.975 -37.088  -7.228  1.00146.13    -0.273 OA
HETATM   20  C23 MIQ B 502       4.958 -38.828  -4.533  1.00139.15     0.045 C 
ENDBRANCH  10  12
BRANCH   5  21
HETATM   21  N6  MIQ B 502       4.961 -46.873  -3.409  1.00140.95    -0.377 N 
HETATM   22  C7  MIQ B 502       5.931 -47.209  -2.381  1.00142.12     0.149 C 
HETATM   23  C8  MIQ B 502       6.905 -48.283  -2.847  1.00144.10     0.187 C 
HETATM   24  O9  MIQ B 502       6.268 -49.372  -3.445  1.00148.65    -0.388 OA
HETATM   25  C10 MIQ B 502       4.908 -49.310  -3.761  1.00147.44     0.187 C 
HETATM   26  C11 MIQ B 502       4.303 -47.956  -4.118  1.00144.08     0.149 C 
ENDBRANCH   5  21
TORSDOF 2
ENDMDL
MODEL 4
REMARK VINA RESULT:      -6.0      3.827      8.973
REMARK  2 active torsions:
REMARK  status: ('A' for Active; 'I' for Inactive)
REMARK    1  A    between atoms: C5_5  and  N6_21 
REMARK    2  A    between atoms: C18_14  and  N17_19 
ROOT
HETATM    1  O1  MIQ B 502       2.914 -40.543  -2.730  1.00142.91    -0.171 OA
HETATM    2  C2  MIQ B 502       3.961 -39.705  -3.119  1.00141.17     0.195 A 
HETATM    3  C3  MIQ B 502       4.379 -38.369  -2.426  1.00141.71     0.035 A 
HETATM    4  C4  MIQ B 502       3.863 -37.626  -1.251  1.00142.86     0.046 A 
HETATM    5  C5  MIQ B 502       4.468 -36.407  -0.853  1.00139.53     0.031 A 
HETATM    6  C12 MIQ B 502       5.602 -35.884  -1.601  1.00139.38     0.030 A 
HETATM    7  C13 MIQ B 502       6.097 -36.597  -2.726  1.00141.18     0.019 A 
HETATM    8  C14 MIQ B 502       5.460 -37.877  -3.139  1.00138.77     0.033 A 
HETATM    9  C15 MIQ B 502       5.715 -38.914  -4.281  1.00142.10     0.195 A 
HETATM   10  N17 MIQ B 502       4.804 -39.861  -4.125  1.00139.42    -0.288 N 
HETATM   11  O16 MIQ B 502       6.704 -38.848  -5.264  1.00148.93    -0.171 OA
ENDROOT
BRANCH  10  12
HETATM   12  C18 MIQ B 502       4.728 -40.994  -5.028  1.00139.82     0.187 C 
HETATM   13  C19 MIQ B 502       3.316 -41.023  -5.624  1.00140.06     0.247 C 
HETATM   14  O25 MIQ B 502       2.876 -40.042  -6.111  1.00143.95    -0.271 OA
HETATM   15  N20 MIQ B 502       2.506 -42.224  -5.613  1.00140.02    -0.296 N 
HETATM   16  H13 MIQ B 502       1.583 -42.228  -6.000  1.00142.77     0.171 HD
HETATM   17  C21 MIQ B 502       3.060 -43.405  -5.004  1.00142.22     0.224 C 
HETATM   18  C22 MIQ B 502       3.980 -43.192  -3.817  1.00139.52     0.106 C 
HETATM   19  O24 MIQ B 502       2.813 -44.486  -5.414  1.00146.13    -0.273 OA
HETATM   20  C23 MIQ B 502       5.097 -42.283  -4.295  1.00139.15     0.045 C 
ENDBRANCH  10  12
BRANCH   5  21
HETATM   21  N6  MIQ B 502       3.944 -35.682   0.290  1.00140.95    -0.377 N 
HETATM   22  C7  MIQ B 502       4.881 -35.137   1.257  1.00142.12     0.149 C 
HETATM   23  C8  MIQ B 502       4.257 -35.001   2.640  1.00144.10     0.187 C 
HETATM   24  O9  MIQ B 502       3.004 -34.386   2.613  1.00148.65    -0.388 OA
HETATM   25  C10 MIQ B 502       2.351 -34.163   1.397  1.00147.44     0.187 C 
HETATM   26  C11 MIQ B 502       2.599 -35.134   0.247  1.00144.08     0.149 C 
ENDBRANCH   5  21
TORSDOF 2
ENDMDL
MODEL 5
REMARK VINA RESULT:      -6.0      3.467      5.672
REMARK  2 active torsions:
REMARK  status: ('A' for Active; 'I' for Inactive)
REMARK    1  A    between atoms: C5_5  and  N6_21 
REMARK    2  A    between atoms: C18_14  and  N17_19 
ROOT
HETATM    1  O1  MIQ B 502       4.043 -43.694  -4.325  1.00142.91    -0.171 OA
HETATM    2  C2  MIQ B 502       3.528 -43.365  -5.580  1.00141.17     0.195 A 
HETATM    3  C3  MIQ B 502       2.979 -44.368  -6.644  1.00141.71     0.035 A 
HETATM    4  C4  MIQ B 502       2.835 -45.843  -6.674  1.00142.86     0.046 A 
HETATM    5  C5  MIQ B 502       2.285 -46.486  -7.812  1.00139.53     0.031 A 
HETATM    6  C12 MIQ B 502       1.860 -45.692  -8.956  1.00139.38     0.030 A 
HETATM    7  C13 MIQ B 502       1.997 -44.278  -8.927  1.00141.18     0.019 A 
HETATM    8  C14 MIQ B 502       2.573 -43.608  -7.729  1.00138.77     0.033 A 
HETATM    9  C15 MIQ B 502       2.870 -42.124  -7.335  1.00142.10     0.195 A 
HETATM   10  N17 MIQ B 502       3.392 -42.166  -6.120  1.00139.42    -0.288 N 
HETATM   11  O16 MIQ B 502       2.634 -40.990  -8.114  1.00148.93    -0.171 OA
ENDROOT
BRANCH  10  12
HETATM   12  C18 MIQ B 502       3.810 -40.958  -5.434  1.00139.82     0.187 C 
HETATM   13  C19 MIQ B 502       5.263 -41.154  -4.986  1.00140.06     0.247 C 
HETATM   14  O25 MIQ B 502       6.065 -41.512  -5.773  1.00143.95    -0.271 OA
HETATM   15  N20 MIQ B 502       5.682 -40.904  -3.621  1.00140.02    -0.296 N 
HETATM   16  H13 MIQ B 502       6.633 -41.042  -3.340  1.00142.77     0.171 HD
HETATM   17  C21 MIQ B 502       4.683 -40.477  -2.677  1.00142.22     0.224 C 
HETATM   18  C22 MIQ B 502       3.283 -41.028  -2.870  1.00139.52     0.106 C 
HETATM   19  O24 MIQ B 502       4.942 -39.730  -1.798  1.00146.13    -0.273 OA
HETATM   20  C23 MIQ B 502       2.861 -40.648  -4.277  1.00139.15     0.045 C 
ENDBRANCH  10  12
BRANCH   5  21
HETATM   21  N6  MIQ B 502       2.163 -47.932  -7.834  1.00140.95    -0.377 N 
HETATM   22  C7  MIQ B 502       3.004 -48.714  -6.945  1.00142.12     0.149 C 
HETATM   23  C8  MIQ B 502       3.258 -50.115  -7.487  1.00144.10     0.187 C 
HETATM   24  O9  MIQ B 502       2.092 -50.751  -7.917  1.00148.65    -0.388 OA
HETATM   25  C10 MIQ B 502       0.897 -50.036  -8.030  1.00147.44     0.187 C 
HETATM   26  C11 MIQ B 502       0.964 -48.551  -8.372  1.00144.08     0.149 C 
ENDBRANCH   5  21
TORSDOF 2
ENDMDL
MODEL 6
REMARK VINA RESULT:      -5.9      3.922      6.004
REMARK  2 active torsions:
REMARK  status: ('A' for Active; 'I' for Inactive)
REMARK    1  A    between atoms: C5_5  and  N6_21 
REMARK    2  A    between atoms: C18_14  and  N17_19 
ROOT
HETATM    1  O1  MIQ B 502       4.242 -45.422  -3.134  1.00142.91    -0.171 OA
HETATM    2  C2  MIQ B 502       3.785 -44.837  -4.317  1.00141.17     0.195 A 
HETATM    3  C3  MIQ B 502       3.297 -45.595  -5.592  1.00141.71     0.035 A 
HETATM    4  C4  MIQ B 502       3.166 -47.031  -5.937  1.00142.86     0.046 A 
HETATM    5  C5  MIQ B 502       2.678 -47.421  -7.209  1.00139.53     0.031 A 
HETATM    6  C12 MIQ B 502       2.302 -46.405  -8.181  1.00139.38     0.030 A 
HETATM    7  C13 MIQ B 502       2.426 -45.029  -7.851  1.00141.18     0.019 A 
HETATM    8  C14 MIQ B 502       2.938 -44.625  -6.513  1.00138.77     0.033 A 
HETATM    9  C15 MIQ B 502       3.203 -43.256  -5.805  1.00142.10     0.195 A 
HETATM   10  N17 MIQ B 502       3.666 -43.552  -4.602  1.00139.42    -0.288 N 
HETATM   11  O16 MIQ B 502       2.995 -41.984  -6.341  1.00148.93    -0.171 OA
ENDROOT
BRANCH  10  12
HETATM   12  C18 MIQ B 502       4.040 -42.514  -3.659  1.00139.82     0.187 C 
HETATM   13  C19 MIQ B 502       2.805 -41.638  -3.413  1.00140.06     0.247 C 
HETATM   14  O25 MIQ B 502       1.784 -42.150  -3.122  1.00143.95    -0.271 OA
HETATM   15  N20 MIQ B 502       2.859 -40.194  -3.524  1.00140.02    -0.296 N 
HETATM   16  H13 MIQ B 502       2.045 -39.634  -3.368  1.00142.77     0.171 HD
HETATM   17  C21 MIQ B 502       4.115 -39.592  -3.892  1.00142.22     0.224 C 
HETATM   18  C22 MIQ B 502       4.997 -40.382  -4.840  1.00139.52     0.106 C 
HETATM   19  O24 MIQ B 502       4.442 -38.538  -3.470  1.00146.13    -0.273 OA
HETATM   20  C23 MIQ B 502       5.241 -41.728  -4.182  1.00139.15     0.045 C 
ENDBRANCH  10  12
BRANCH   5  21
HETATM   21  N6  MIQ B 502       2.569 -48.831  -7.538  1.00140.95    -0.377 N 
HETATM   22  C7  MIQ B 502       1.711 -49.222  -8.643  1.00142.12     0.149 C 
HETATM   23  C8  MIQ B 502       1.187 -50.643  -8.481  1.00144.10     0.187 C 
HETATM   24  O9  MIQ B 502       2.189 -51.558  -8.151  1.00148.65    -0.388 OA
HETATM   25  C10 MIQ B 502       3.463 -51.112  -7.791  1.00147.44     0.187 C 
HETATM   26  C11 MIQ B 502       3.595 -49.760  -7.097  1.00144.08     0.149 C 
ENDBRANCH   5  21
TORSDOF 2
ENDMDL
MODEL 7
REMARK VINA RESULT:      -5.9      6.950     10.477
REMARK  2 active torsions:
REMARK  status: ('A' for Active; 'I' for Inactive)
REMARK    1  A    between atoms: C5_5  and  N6_21 
REMARK    2  A    between atoms: C18_14  and  N17_19 
ROOT
HETATM    1  O1  MIQ B 502       2.907 -48.701  -4.798  1.00142.91    -0.171 OA
HETATM    2  C2  MIQ B 502       4.019 -48.007  -4.314  1.00141.17     0.195 A 
HETATM    3  C3  MIQ B 502       5.350 -48.642  -3.800  1.00141.71     0.035 A 
HETATM    4  C4  MIQ B 502       5.829 -50.038  -3.669  1.00142.86     0.046 A 
HETATM    5  C5  MIQ B 502       7.122 -50.307  -3.155  1.00139.53     0.031 A 
HETATM    6  C12 MIQ B 502       7.984 -49.204  -2.754  1.00139.38     0.030 A 
HETATM    7  C13 MIQ B 502       7.525 -47.865  -2.880  1.00141.18     0.019 A 
HETATM    8  C14 MIQ B 502       6.167 -47.589  -3.423  1.00138.77     0.033 A 
HETATM    9  C15 MIQ B 502       5.339 -46.293  -3.705  1.00142.10     0.195 A 
HETATM   10  N17 MIQ B 502       4.181 -46.700  -4.197  1.00139.42    -0.288 N 
HETATM   11  O16 MIQ B 502       5.745 -44.977  -3.480  1.00148.93    -0.171 OA
ENDROOT
BRANCH  10  12
HETATM   12  C18 MIQ B 502       3.141 -45.757  -4.564  1.00139.82     0.187 C 
HETATM   13  C19 MIQ B 502       3.767 -44.706  -5.489  1.00140.06     0.247 C 
HETATM   14  O25 MIQ B 502       4.390 -45.062  -6.425  1.00143.95    -0.271 OA
HETATM   15  N20 MIQ B 502       3.611 -43.287  -5.248  1.00140.02    -0.296 N 
HETATM   16  H13 MIQ B 502       4.031 -42.611  -5.855  1.00142.77     0.171 HD
HETATM   17  C21 MIQ B 502       2.855 -42.878  -4.092  1.00142.22     0.224 C 
HETATM   18  C22 MIQ B 502       2.943 -43.770  -2.869  1.00139.52     0.106 C 
HETATM   19  O24 MIQ B 502       2.195 -41.897  -4.101  1.00146.13    -0.273 OA
HETATM   20  C23 MIQ B 502       2.504 -45.154  -3.313  1.00139.15     0.045 C 
ENDBRANCH  10  12
BRANCH   5  21
HETATM   21  N6  MIQ B 502       7.573 -51.680  -3.019  1.00140.95    -0.377 N 
HETATM   22  C7  MIQ B 502       8.661 -51.966  -2.100  1.00142.12     0.149 C 
HETATM   23  C8  MIQ B 502       9.435 -53.214  -2.505  1.00144.10     0.187 C 
HETATM   24  O9  MIQ B 502       8.605 -54.296  -2.802  1.00148.65    -0.388 OA
HETATM   25  C10 MIQ B 502       7.224 -54.117  -2.923  1.00147.44     0.187 C 
HETATM   26  C11 MIQ B 502       6.704 -52.772  -3.422  1.00144.08     0.149 C 
ENDBRANCH   5  21
TORSDOF 2
ENDMDL
MODEL 8
REMARK VINA RESULT:      -5.9      4.067      6.736
REMARK  2 active torsions:
REMARK  status: ('A' for Active; 'I' for Inactive)
REMARK    1  A    between atoms: C5_5  and  N6_21 
REMARK    2  A    between atoms: C18_14  and  N17_19 
ROOT
HETATM    1  O1  MIQ B 502       5.647 -45.870  -4.973  1.00142.91    -0.171 OA
HETATM    2  C2  MIQ B 502       4.554 -45.324  -4.296  1.00141.17     0.195 A 
HETATM    3  C3  MIQ B 502       4.044 -43.852  -4.403  1.00141.71     0.035 A 
HETATM    4  C4  MIQ B 502       4.496 -42.671  -5.176  1.00142.86     0.046 A 
HETATM    5  C5  MIQ B 502       3.810 -41.435  -5.063  1.00139.53     0.031 A 
HETATM    6  C12 MIQ B 502       2.655 -41.327  -4.183  1.00139.38     0.030 A 
HETATM    7  C13 MIQ B 502       2.221 -42.460  -3.443  1.00141.18     0.019 A 
HETATM    8  C14 MIQ B 502       2.943 -43.755  -3.567  1.00138.77     0.033 A 
HETATM    9  C15 MIQ B 502       2.769 -45.176  -2.938  1.00142.10     0.195 A 
HETATM   10  N17 MIQ B 502       3.736 -45.922  -3.447  1.00139.42    -0.288 N 
HETATM   11  O16 MIQ B 502       1.791 -45.571  -2.023  1.00148.93    -0.171 OA
ENDROOT
BRANCH  10  12
HETATM   12  C18 MIQ B 502       3.895 -47.314  -3.071  1.00139.82     0.187 C 
HETATM   13  C19 MIQ B 502       5.342 -47.510  -2.602  1.00140.06     0.247 C 
HETATM   14  O25 MIQ B 502       5.786 -46.780  -1.788  1.00143.95    -0.271 OA
HETATM   15  N20 MIQ B 502       6.179 -48.570  -3.126  1.00140.02    -0.296 N 
HETATM   16  H13 MIQ B 502       7.124 -48.682  -2.815  1.00142.77     0.171 HD
HETATM   17  C21 MIQ B 502       5.617 -49.440  -4.126  1.00142.22     0.224 C 
HETATM   18  C22 MIQ B 502       4.621 -48.821  -5.087  1.00139.52     0.106 C 
HETATM   19  O24 MIQ B 502       5.915 -50.582  -4.189  1.00146.13    -0.273 OA
HETATM   20  C23 MIQ B 502       3.513 -48.227  -4.236  1.00139.15     0.045 C 
ENDBRANCH  10  12
BRANCH   5  21
HETATM   21  N6  MIQ B 502       4.273 -40.282  -5.814  1.00140.95    -0.377 N 
HETATM   22  C7  MIQ B 502       3.290 -39.454  -6.491  1.00142.12     0.149 C 
HETATM   23  C8  MIQ B 502       3.884 -38.738  -7.697  1.00144.10     0.187 C 
HETATM   24  O9  MIQ B 502       5.098 -38.110  -7.413  1.00148.65    -0.388 OA
HETATM   25  C10 MIQ B 502       5.754 -38.353  -6.203  1.00147.44     0.187 C 
HETATM   26  C11 MIQ B 502       5.582 -39.716  -5.541  1.00144.08     0.149 C 
ENDBRANCH   5  21
TORSDOF 2
ENDMDL
MODEL 9
REMARK VINA RESULT:      -5.9      6.388      9.659
REMARK  2 active torsions:
REMARK  status: ('A' for Active; 'I' for Inactive)
REMARK    1  A    between atoms: C5_5  and  N6_21 
REMARK    2  A    between atoms: C18_14  and  N17_19 
ROOT
HETATM    1  O1  MIQ B 502       4.901 -45.896  -2.671  1.00142.91    -0.171 OA
HETATM    2  C2  MIQ B 502       4.750 -46.470  -3.935  1.00141.17     0.195 A 
HETATM    3  C3  MIQ B 502       5.179 -47.914  -4.349  1.00141.71     0.035 A 
HETATM    4  C4  MIQ B 502       5.817 -49.036  -3.620  1.00142.86     0.046 A 
HETATM    5  C5  MIQ B 502       6.089 -50.259  -4.283  1.00139.53     0.031 A 
HETATM    6  C12 MIQ B 502       5.737 -50.413  -5.688  1.00139.38     0.030 A 
HETATM    7  C13 MIQ B 502       5.125 -49.338  -6.386  1.00141.18     0.019 A 
HETATM    8  C14 MIQ B 502       4.840 -48.057  -5.684  1.00138.77     0.033 A 
HETATM    9  C15 MIQ B 502       4.196 -46.695  -6.102  1.00142.10     0.195 A 
HETATM   10  N17 MIQ B 502       4.221 -45.933  -5.021  1.00139.42    -0.288 N 
HETATM   11  O16 MIQ B 502       3.700 -46.356  -7.362  1.00148.93    -0.171 OA
ENDROOT
BRANCH  10  12
HETATM   12  C18 MIQ B 502       3.712 -44.574  -5.040  1.00139.82     0.187 C 
HETATM   13  C19 MIQ B 502       4.801 -43.659  -4.468  1.00140.06     0.247 C 
HETATM   14  O25 MIQ B 502       5.896 -43.725  -4.902  1.00143.95    -0.271 OA
HETATM   15  N20 MIQ B 502       4.523 -42.708  -3.411  1.00140.02    -0.296 N 
HETATM   16  H13 MIQ B 502       5.245 -42.121  -3.042  1.00142.77     0.171 HD
HETATM   17  C21 MIQ B 502       3.181 -42.653  -2.890  1.00142.22     0.224 C 
HETATM   18  C22 MIQ B 502       2.411 -43.958  -2.853  1.00139.52     0.106 C 
HETATM   19  O24 MIQ B 502       2.705 -41.638  -2.516  1.00146.13    -0.273 OA
HETATM   20  C23 MIQ B 502       2.393 -44.489  -4.274  1.00139.15     0.045 C 
ENDBRANCH  10  12
BRANCH   5  21
HETATM   21  N6  MIQ B 502       6.727 -51.344  -3.561  1.00140.95    -0.377 N 
HETATM   22  C7  MIQ B 502       6.514 -52.706  -4.021  1.00142.12     0.149 C 
HETATM   23  C8  MIQ B 502       6.660 -53.717  -2.892  1.00144.10     0.187 C 
HETATM   24  O9  MIQ B 502       7.813 -53.519  -2.130  1.00148.65    -0.388 OA
HETATM   25  C10 MIQ B 502       8.578 -52.361  -2.293  1.00147.44     0.187 C 
HETATM   26  C11 MIQ B 502       7.874 -51.074  -2.712  1.00144.08     0.149 C 
ENDBRANCH   5  21
TORSDOF 2
ENDMDL
