MODEL 1
REMARK VINA RESULT:      -6.6      0.000      0.000
REMARK  2 active torsions:
REMARK  status: ('A' for Active; 'I' for Inactive)
REMARK    1  A    between atoms: C5_5  and  N6_21 
REMARK    2  A    between atoms: C18_14  and  N17_19 
ROOT
HETATM    1  O1  MIQ B 502      20.366  -6.973  15.626  1.00142.91    -0.171 OA
HETATM    2  C2  MIQ B 502      20.181  -6.383  14.373  1.00141.17     0.195 A 
HETATM    3  C3  MIQ B 502      20.804  -5.036  13.887  1.00141.71     0.035 A 
HETATM    4  C4  MIQ B 502      21.704  -4.043  14.519  1.00142.86     0.046 A 
HETATM    5  C5  MIQ B 502      22.109  -2.887  13.805  1.00139.53     0.031 A 
HETATM    6  C12 MIQ B 502      21.639  -2.676  12.443  1.00139.38     0.030 A 
HETATM    7  C13 MIQ B 502      20.777  -3.629  11.836  1.00141.18     0.019 A 
HETATM    8  C14 MIQ B 502      20.356  -4.842  12.590  1.00138.77     0.033 A 
HETATM    9  C15 MIQ B 502      19.450  -6.076  12.270  1.00142.10     0.195 A 
HETATM   10  N17 MIQ B 502      19.462  -6.829  13.357  1.00139.42    -0.288 N 
HETATM   11  O16 MIQ B 502      18.768  -6.325  11.078  1.00148.93    -0.171 OA
ENDROOT
BRANCH  10  12
HETATM   12  C18 MIQ B 502      18.707  -8.067  13.429  1.00139.82     0.187 C 
HETATM   13  C19 MIQ B 502      17.788  -7.983  14.654  1.00140.06     0.247 C 
HETATM   14  O25 MIQ B 502      17.098  -7.037  14.793  1.00143.95    -0.271 OA
HETATM   15  N20 MIQ B 502      17.740  -9.037  15.646  1.00140.02    -0.296 N 
HETATM   16  H13 MIQ B 502      17.141  -8.968  16.445  1.00142.77     0.171 HD
HETATM   17  C21 MIQ B 502      18.600 -10.178  15.461  1.00142.22     0.224 C 
HETATM   18  C22 MIQ B 502      19.944  -9.918  14.808  1.00139.52     0.106 C 
HETATM   19  O24 MIQ B 502      18.271 -11.261  15.798  1.00146.13    -0.273 OA
HETATM   20  C23 MIQ B 502      19.654  -9.265  13.469  1.00139.15     0.045 C 
ENDBRANCH  10  12
BRANCH   5  21
HETATM   21  N6  MIQ B 502      22.979  -1.915  14.441  1.00140.95    -0.377 N 
HETATM   22  C7  MIQ B 502      23.714  -0.985  13.601  1.00142.12     0.149 C 
HETATM   23  C8  MIQ B 502      24.996  -0.506  14.269  1.00144.10     0.187 C 
HETATM   24  O9  MIQ B 502      24.799  -0.091  15.588  1.00148.65    -0.388 OA
HETATM   25  C10 MIQ B 502      23.585  -0.338  16.233  1.00147.44     0.187 C 
HETATM   26  C11 MIQ B 502      22.789  -1.578  15.841  1.00144.08     0.149 C 
ENDBRANCH   5  21
TORSDOF 2
ENDMDL
MODEL 2
REMARK VINA RESULT:      -6.5      1.242      2.449
REMARK  2 active torsions:
REMARK  status: ('A' for Active; 'I' for Inactive)
REMARK    1  A    between atoms: C5_5  and  N6_21 
REMARK    2  A    between atoms: C18_14  and  N17_19 
ROOT
HETATM    1  O1  MIQ B 502      18.987  -5.593  11.554  1.00142.91    -0.171 OA
HETATM    2  C2  MIQ B 502      19.713  -5.778  12.733  1.00141.17     0.195 A 
HETATM    3  C3  MIQ B 502      20.838  -4.843  13.280  1.00141.71     0.035 A 
HETATM    4  C4  MIQ B 502      21.444  -3.582  12.789  1.00142.86     0.046 A 
HETATM    5  C5  MIQ B 502      22.475  -2.948  13.526  1.00139.53     0.031 A 
HETATM    6  C12 MIQ B 502      22.941  -3.539  14.772  1.00139.38     0.030 A 
HETATM    7  C13 MIQ B 502      22.361  -4.747  15.243  1.00141.18     0.019 A 
HETATM    8  C14 MIQ B 502      21.276  -5.407  14.467  1.00138.77     0.033 A 
HETATM    9  C15 MIQ B 502      20.418  -6.700  14.658  1.00142.10     0.195 A 
HETATM   10  N17 MIQ B 502      19.604  -6.756  13.616  1.00139.42    -0.288 N 
HETATM   11  O16 MIQ B 502      20.500  -7.609  15.714  1.00148.93    -0.171 OA
ENDROOT
BRANCH  10  12
HETATM   12  C18 MIQ B 502      18.661  -7.845  13.449  1.00139.82     0.187 C 
HETATM   13  C19 MIQ B 502      17.839  -7.955  14.740  1.00140.06     0.247 C 
HETATM   14  O25 MIQ B 502      17.323  -6.988  15.177  1.00143.95    -0.271 OA
HETATM   15  N20 MIQ B 502      17.674  -9.214  15.435  1.00140.02    -0.296 N 
HETATM   16  H13 MIQ B 502      17.140  -9.271  16.280  1.00142.77     0.171 HD
HETATM   17  C21 MIQ B 502      18.322 -10.378  14.888  1.00142.22     0.224 C 
HETATM   18  C22 MIQ B 502      19.652 -10.153  14.193  1.00139.52     0.106 C 
HETATM   19  O24 MIQ B 502      17.838 -11.452  14.973  1.00146.13    -0.273 OA
HETATM   20  C23 MIQ B 502      19.398  -9.136  13.095  1.00139.15     0.045 C 
ENDBRANCH  10  12
BRANCH   5  21
HETATM   21  N6  MIQ B 502      23.069  -1.721  13.025  1.00140.95    -0.377 N 
HETATM   22  C7  MIQ B 502      24.269  -1.217  13.671  1.00142.12     0.149 C 
HETATM   23  C8  MIQ B 502      24.404   0.293  13.521  1.00144.10     0.187 C 
HETATM   24  O9  MIQ B 502      24.203   0.729  12.209  1.00148.65    -0.388 OA
HETATM   25  C10 MIQ B 502      23.705  -0.147  11.241  1.00147.44     0.187 C 
HETATM   26  C11 MIQ B 502      22.763  -1.262  11.682  1.00144.08     0.149 C 
ENDBRANCH   5  21
TORSDOF 2
ENDMDL
MODEL 3
REMARK VINA RESULT:      -6.5      1.114      1.550
REMARK  2 active torsions:
REMARK  status: ('A' for Active; 'I' for Inactive)
REMARK    1  A    between atoms: C5_5  and  N6_21 
REMARK    2  A    between atoms: C18_14  and  N17_19 
ROOT
HETATM    1  O1  MIQ B 502      20.630  -7.594  15.905  1.00142.91    -0.171 OA
HETATM    2  C2  MIQ B 502      20.131  -7.160  14.675  1.00141.17     0.195 A 
HETATM    3  C3  MIQ B 502      20.494  -5.823  13.953  1.00141.71     0.035 A 
HETATM    4  C4  MIQ B 502      21.392  -4.694  14.291  1.00142.86     0.046 A 
HETATM    5  C5  MIQ B 502      21.518  -3.589  13.411  1.00139.53     0.031 A 
HETATM    6  C12 MIQ B 502      20.760  -3.566  12.169  1.00139.38     0.030 A 
HETATM    7  C13 MIQ B 502      19.899  -4.649  11.843  1.00141.18     0.019 A 
HETATM    8  C14 MIQ B 502      19.774  -5.807  12.770  1.00138.77     0.033 A 
HETATM    9  C15 MIQ B 502      18.959  -7.141  12.757  1.00142.10     0.195 A 
HETATM   10  N17 MIQ B 502      19.273  -7.772  13.877  1.00139.42    -0.288 N 
HETATM   11  O16 MIQ B 502      18.079  -7.574  11.764  1.00148.93    -0.171 OA
ENDROOT
BRANCH  10  12
HETATM   12  C18 MIQ B 502      18.685  -9.055  14.214  1.00139.82     0.187 C 
HETATM   13  C19 MIQ B 502      18.124  -8.953  15.637  1.00140.06     0.247 C 
HETATM   14  O25 MIQ B 502      17.409  -8.056  15.912  1.00143.95    -0.271 OA
HETATM   15  N20 MIQ B 502      18.442  -9.932  16.656  1.00140.02    -0.296 N 
HETATM   16  H13 MIQ B 502      18.075  -9.851  17.584  1.00142.77     0.171 HD
HETATM   17  C21 MIQ B 502      19.326 -11.012  16.301  1.00142.22     0.224 C 
HETATM   18  C22 MIQ B 502      20.415 -10.698  15.293  1.00139.52     0.106 C 
HETATM   19  O24 MIQ B 502      19.203 -12.091  16.768  1.00146.13    -0.273 OA
HETATM   20  C23 MIQ B 502      19.717 -10.170  14.053  1.00139.15     0.045 C 
ENDBRANCH  10  12
BRANCH   5  21
HETATM   21  N6  MIQ B 502      22.390  -2.483  13.762  1.00140.95    -0.377 N 
HETATM   22  C7  MIQ B 502      23.021  -2.484  15.071  1.00142.12     0.149 C 
HETATM   23  C8  MIQ B 502      23.341  -1.074  15.550  1.00144.10     0.187 C 
HETATM   24  O9  MIQ B 502      23.982  -0.303  14.578  1.00148.65    -0.388 OA
HETATM   25  C10 MIQ B 502      24.075  -0.758  13.261  1.00147.44     0.187 C 
HETATM   26  C11 MIQ B 502      22.966  -1.654  12.718  1.00144.08     0.149 C 
ENDBRANCH   5  21
TORSDOF 2
ENDMDL
MODEL 4
REMARK VINA RESULT:      -6.4      2.041      2.841
REMARK  2 active torsions:
REMARK  status: ('A' for Active; 'I' for Inactive)
REMARK    1  A    between atoms: C5_5  and  N6_21 
REMARK    2  A    between atoms: C18_14  and  N17_19 
ROOT
HETATM    1  O1  MIQ B 502      22.815  -7.998  16.635  1.00142.91    -0.171 OA
HETATM    2  C2  MIQ B 502      21.942  -7.712  15.583  1.00141.17     0.195 A 
HETATM    3  C3  MIQ B 502      21.764  -6.328  14.882  1.00141.71     0.035 A 
HETATM    4  C4  MIQ B 502      22.395  -5.000  15.074  1.00142.86     0.046 A 
HETATM    5  C5  MIQ B 502      22.017  -3.903  14.260  1.00139.53     0.031 A 
HETATM    6  C12 MIQ B 502      21.005  -4.082  13.230  1.00139.38     0.030 A 
HETATM    7  C13 MIQ B 502      20.401  -5.355  13.044  1.00141.18     0.019 A 
HETATM    8  C14 MIQ B 502      20.803  -6.504  13.900  1.00138.77     0.033 A 
HETATM    9  C15 MIQ B 502      20.382  -8.007  13.992  1.00142.10     0.195 A 
HETATM   10  N17 MIQ B 502      21.105  -8.531  14.968  1.00139.42    -0.288 N 
HETATM   11  O16 MIQ B 502      19.431  -8.658  13.203  1.00148.93    -0.171 OA
ENDROOT
BRANCH  10  12
HETATM   12  C18 MIQ B 502      20.967  -9.924  15.350  1.00139.82     0.187 C 
HETATM   13  C19 MIQ B 502      21.346 -10.782  14.137  1.00140.06     0.247 C 
HETATM   14  O25 MIQ B 502      22.367 -10.577  13.583  1.00143.95    -0.271 OA
HETATM   15  N20 MIQ B 502      20.487 -11.843  13.653  1.00140.02    -0.296 N 
HETATM   16  H13 MIQ B 502      20.743 -12.392  12.856  1.00142.77     0.171 HD
HETATM   17  C21 MIQ B 502      19.241 -12.067  14.340  1.00142.22     0.224 C 
HETATM   18  C22 MIQ B 502      18.554 -10.847  14.921  1.00139.52     0.106 C 
HETATM   19  O24 MIQ B 502      18.781 -13.151  14.447  1.00146.13    -0.273 OA
HETATM   20  C23 MIQ B 502      19.553 -10.197  15.861  1.00139.15     0.045 C 
ENDBRANCH  10  12
BRANCH   5  21
HETATM   21  N6  MIQ B 502      22.632  -2.605  14.469  1.00140.95    -0.377 N 
HETATM   22  C7  MIQ B 502      23.241  -2.324  15.758  1.00142.12     0.149 C 
HETATM   23  C8  MIQ B 502      23.251  -0.833  16.070  1.00144.10     0.187 C 
HETATM   24  O9  MIQ B 502      23.720  -0.059  15.007  1.00148.65    -0.388 OA
HETATM   25  C10 MIQ B 502      23.916  -0.630  13.747  1.00147.44     0.187 C 
HETATM   26  C11 MIQ B 502      23.026  -1.796  13.329  1.00144.08     0.149 C 
ENDBRANCH   5  21
TORSDOF 2
ENDMDL
MODEL 5
REMARK VINA RESULT:      -6.4      5.533      9.873
REMARK  2 active torsions:
REMARK  status: ('A' for Active; 'I' for Inactive)
REMARK    1  A    between atoms: C5_5  and  N6_21 
REMARK    2  A    between atoms: C18_14  and  N17_19 
ROOT
HETATM    1  O1  MIQ B 502      23.370  -1.400   7.885  1.00142.91    -0.171 OA
HETATM    2  C2  MIQ B 502      23.828  -0.712   9.011  1.00141.17     0.195 A 
HETATM    3  C3  MIQ B 502      23.568  -1.104  10.501  1.00141.71     0.035 A 
HETATM    4  C4  MIQ B 502      22.833  -2.216  11.148  1.00142.86     0.046 A 
HETATM    5  C5  MIQ B 502      22.773  -2.309  12.562  1.00139.53     0.031 A 
HETATM    6  C12 MIQ B 502      23.439  -1.306  13.380  1.00139.38     0.030 A 
HETATM    7  C13 MIQ B 502      24.145  -0.240  12.760  1.00141.18     0.019 A 
HETATM    8  C14 MIQ B 502      24.207  -0.150  11.275  1.00138.77     0.033 A 
HETATM    9  C15 MIQ B 502      24.867   0.840  10.261  1.00142.10     0.195 A 
HETATM   10  N17 MIQ B 502      24.565   0.385   9.057  1.00139.42    -0.288 N 
HETATM   11  O16 MIQ B 502      25.620   1.975  10.570  1.00148.93    -0.171 OA
ENDROOT
BRANCH  10  12
HETATM   12  C18 MIQ B 502      25.004   1.070   7.855  1.00139.82     0.187 C 
HETATM   13  C19 MIQ B 502      23.771   1.302   6.972  1.00140.06     0.247 C 
HETATM   14  O25 MIQ B 502      22.813   1.805   7.441  1.00143.95    -0.271 OA
HETATM   15  N20 MIQ B 502      23.752   0.925   5.574  1.00140.02    -0.296 N 
HETATM   16  H13 MIQ B 502      22.939   1.076   5.010  1.00142.77     0.171 HD
HETATM   17  C21 MIQ B 502      24.930   0.303   5.027  1.00142.22     0.224 C 
HETATM   18  C22 MIQ B 502      25.727  -0.587   5.961  1.00139.52     0.106 C 
HETATM   19  O24 MIQ B 502      25.260   0.482   3.906  1.00146.13    -0.273 OA
HETATM   20  C23 MIQ B 502      26.102   0.269   7.157  1.00139.15     0.045 C 
ENDBRANCH  10  12
BRANCH   5  21
HETATM   21  N6  MIQ B 502      22.036  -3.394  13.182  1.00140.95    -0.377 N 
HETATM   22  C7  MIQ B 502      22.373  -3.773  14.544  1.00142.12     0.149 C 
HETATM   23  C8  MIQ B 502      22.038  -5.232  14.828  1.00144.10     0.187 C 
HETATM   24  O9  MIQ B 502      20.754  -5.586  14.410  1.00148.65    -0.388 OA
HETATM   25  C10 MIQ B 502      20.003  -4.716  13.616  1.00147.44     0.187 C 
HETATM   26  C11 MIQ B 502      20.739  -3.784  12.658  1.00144.08     0.149 C 
ENDBRANCH   5  21
TORSDOF 2
ENDMDL
MODEL 6
REMARK VINA RESULT:      -6.3      3.835      4.267
REMARK  2 active torsions:
REMARK  status: ('A' for Active; 'I' for Inactive)
REMARK    1  A    between atoms: C5_5  and  N6_21 
REMARK    2  A    between atoms: C18_14  and  N17_19 
ROOT
HETATM    1  O1  MIQ B 502      22.578  -9.918  15.456  1.00142.91    -0.171 OA
HETATM    2  C2  MIQ B 502      22.240  -8.587  15.202  1.00141.17     0.195 A 
HETATM    3  C3  MIQ B 502      23.201  -7.359  15.287  1.00141.71     0.035 A 
HETATM    4  C4  MIQ B 502      24.636  -7.210  15.626  1.00142.86     0.046 A 
HETATM    5  C5  MIQ B 502      25.245  -5.930  15.616  1.00139.53     0.031 A 
HETATM    6  C12 MIQ B 502      24.456  -4.756  15.270  1.00139.38     0.030 A 
HETATM    7  C13 MIQ B 502      23.081  -4.899  14.944  1.00141.18     0.019 A 
HETATM    8  C14 MIQ B 502      22.447  -6.246  14.954  1.00138.77     0.033 A 
HETATM    9  C15 MIQ B 502      21.009  -6.786  14.659  1.00142.10     0.195 A 
HETATM   10  N17 MIQ B 502      21.067  -8.096  14.838  1.00139.42    -0.288 N 
HETATM   11  O16 MIQ B 502      19.894  -6.034  14.285  1.00148.93    -0.171 OA
ENDROOT
BRANCH  10  12
HETATM   12  C18 MIQ B 502      19.898  -8.936  14.665  1.00139.82     0.187 C 
HETATM   13  C19 MIQ B 502      19.713  -9.751  15.951  1.00140.06     0.247 C 
HETATM   14  O25 MIQ B 502      19.704  -9.193  16.991  1.00143.95    -0.271 OA
HETATM   15  N20 MIQ B 502      19.543 -11.190  15.926  1.00140.02    -0.296 N 
HETATM   16  H13 MIQ B 502      19.430 -11.711  16.773  1.00142.77     0.171 HD
HETATM   17  C21 MIQ B 502      19.567 -11.849  14.646  1.00142.22     0.224 C 
HETATM   18  C22 MIQ B 502      20.477 -11.253  13.589  1.00139.52     0.106 C 
HETATM   19  O24 MIQ B 502      18.907 -12.805  14.431  1.00146.13    -0.273 OA
HETATM   20  C23 MIQ B 502      20.048  -9.807  13.419  1.00139.15     0.045 C 
ENDBRANCH  10  12
BRANCH   5  21
HETATM   21  N6  MIQ B 502      26.648  -5.797  15.965  1.00140.95    -0.377 N 
HETATM   22  C7  MIQ B 502      27.559  -5.240  14.980  1.00142.12     0.149 C 
HETATM   23  C8  MIQ B 502      28.986  -5.732  15.182  1.00144.10     0.187 C 
HETATM   24  O9  MIQ B 502      29.411  -5.638  16.508  1.00148.65    -0.388 OA
HETATM   25  C10 MIQ B 502      28.499  -5.339  17.524  1.00147.44     0.187 C 
HETATM   26  C11 MIQ B 502      27.052  -5.789  17.360  1.00144.08     0.149 C 
ENDBRANCH   5  21
TORSDOF 2
ENDMDL
MODEL 7
REMARK VINA RESULT:      -6.3     10.181     13.630
REMARK  2 active torsions:
REMARK  status: ('A' for Active; 'I' for Inactive)
REMARK    1  A    between atoms: C5_5  and  N6_21 
REMARK    2  A    between atoms: C18_14  and  N17_19 
ROOT
HETATM    1  O1  MIQ B 502      23.088   0.158   5.614  1.00142.91    -0.171 OA
HETATM    2  C2  MIQ B 502      24.405  -0.013   5.181  1.00141.17     0.195 A 
HETATM    3  C3  MIQ B 502      24.856  -0.446   3.750  1.00141.71     0.035 A 
HETATM    4  C4  MIQ B 502      24.121  -0.781   2.507  1.00142.86     0.046 A 
HETATM    5  C5  MIQ B 502      24.827  -1.147   1.334  1.00139.53     0.031 A 
HETATM    6  C12 MIQ B 502      26.282  -1.193   1.351  1.00139.38     0.030 A 
HETATM    7  C13 MIQ B 502      26.987  -0.872   2.542  1.00141.18     0.019 A 
HETATM    8  C14 MIQ B 502      26.241  -0.486   3.770  1.00138.77     0.033 A 
HETATM    9  C15 MIQ B 502      26.651  -0.074   5.222  1.00142.10     0.195 A 
HETATM   10  N17 MIQ B 502      25.521   0.155   5.870  1.00139.42    -0.288 N 
HETATM   11  O16 MIQ B 502      27.949   0.026   5.727  1.00148.93    -0.171 OA
ENDROOT
BRANCH  10  12
HETATM   12  C18 MIQ B 502      25.515   0.548   7.266  1.00139.82     0.187 C 
HETATM   13  C19 MIQ B 502      24.535  -0.371   8.007  1.00140.06     0.247 C 
HETATM   14  O25 MIQ B 502      24.634  -1.539   7.879  1.00143.95    -0.271 OA
HETATM   15  N20 MIQ B 502      23.494   0.156   8.866  1.00140.02    -0.296 N 
HETATM   16  H13 MIQ B 502      22.857  -0.455   9.338  1.00142.77     0.171 HD
HETATM   17  C21 MIQ B 502      23.388   1.586   8.997  1.00142.22     0.224 C 
HETATM   18  C22 MIQ B 502      23.746   2.411   7.776  1.00139.52     0.106 C 
HETATM   19  O24 MIQ B 502      23.044   2.089  10.010  1.00146.13    -0.273 OA
HETATM   20  C23 MIQ B 502      25.166   2.030   7.400  1.00139.15     0.045 C 
ENDBRANCH  10  12
BRANCH   5  21
HETATM   21  N6  MIQ B 502      24.094  -1.486   0.128  1.00140.95    -0.377 N 
HETATM   22  C7  MIQ B 502      23.406  -2.764   0.070  1.00142.12     0.149 C 
HETATM   23  C8  MIQ B 502      23.254  -3.264  -1.361  1.00144.10     0.187 C 
HETATM   24  O9  MIQ B 502      22.769  -2.285  -2.230  1.00148.65    -0.388 OA
HETATM   25  C10 MIQ B 502      22.679  -0.953  -1.817  1.00147.44     0.187 C 
HETATM   26  C11 MIQ B 502      23.684  -0.439  -0.791  1.00144.08     0.149 C 
ENDBRANCH   5  21
TORSDOF 2
ENDMDL
MODEL 8
REMARK VINA RESULT:      -6.2      2.721      4.187
REMARK  2 active torsions:
REMARK  status: ('A' for Active; 'I' for Inactive)
REMARK    1  A    between atoms: C5_5  and  N6_21 
REMARK    2  A    between atoms: C18_14  and  N17_19 
ROOT
HETATM    1  O1  MIQ B 502      19.952  -5.146  11.585  1.00142.91    -0.171 OA
HETATM    2  C2  MIQ B 502      20.591  -4.565  12.683  1.00141.17     0.195 A 
HETATM    3  C3  MIQ B 502      21.552  -3.334  12.646  1.00141.71     0.035 A 
HETATM    4  C4  MIQ B 502      22.052  -2.464  11.556  1.00142.86     0.046 A 
HETATM    5  C5  MIQ B 502      22.939  -1.395  11.841  1.00139.53     0.031 A 
HETATM    6  C12 MIQ B 502      23.359  -1.152  13.213  1.00139.38     0.030 A 
HETATM    7  C13 MIQ B 502      22.879  -1.985  14.259  1.00141.18     0.019 A 
HETATM    8  C14 MIQ B 502      21.947  -3.104  13.954  1.00138.77     0.033 A 
HETATM    9  C15 MIQ B 502      21.225  -4.198  14.808  1.00142.10     0.195 A 
HETATM   10  N17 MIQ B 502      20.516  -4.918  13.955  1.00139.42    -0.288 N 
HETATM   11  O16 MIQ B 502      21.318  -4.375  16.190  1.00148.93    -0.171 OA
ENDROOT
BRANCH  10  12
HETATM   12  C18 MIQ B 502      19.719  -6.048  14.397  1.00139.82     0.187 C 
HETATM   13  C19 MIQ B 502      20.237  -7.297  13.673  1.00140.06     0.247 C 
HETATM   14  O25 MIQ B 502      21.391  -7.538  13.694  1.00143.95    -0.271 OA
HETATM   15  N20 MIQ B 502      19.345  -8.195  12.968  1.00140.02    -0.296 N 
HETATM   16  H13 MIQ B 502      19.697  -9.004  12.494  1.00142.77     0.171 HD
HETATM   17  C21 MIQ B 502      17.942  -7.874  12.948  1.00142.22     0.224 C 
HETATM   18  C22 MIQ B 502      17.580  -6.401  12.929  1.00139.52     0.106 C 
HETATM   19  O24 MIQ B 502      17.115  -8.718  12.952  1.00146.13    -0.273 OA
HETATM   20  C23 MIQ B 502      18.236  -5.781  14.149  1.00139.15     0.045 C 
ENDBRANCH  10  12
BRANCH   5  21
HETATM   21  N6  MIQ B 502      23.432  -0.560  10.761  1.00140.95    -0.377 N 
HETATM   22  C7  MIQ B 502      23.942   0.762  11.082  1.00142.12     0.149 C 
HETATM   23  C8  MIQ B 502      23.812   1.723   9.908  1.00144.10     0.187 C 
HETATM   24  O9  MIQ B 502      24.274   1.180   8.708  1.00148.65    -0.388 OA
HETATM   25  C10 MIQ B 502      24.587  -0.179   8.619  1.00147.44     0.187 C 
HETATM   26  C11 MIQ B 502      23.821  -1.162   9.498  1.00144.08     0.149 C 
ENDBRANCH   5  21
TORSDOF 2
ENDMDL
MODEL 9
REMARK VINA RESULT:      -6.2     24.296     25.780
REMARK  2 active torsions:
REMARK  status: ('A' for Active; 'I' for Inactive)
REMARK    1  A    between atoms: C5_5  and  N6_21 
REMARK    2  A    between atoms: C18_14  and  N17_19 
ROOT
HETATM    1  O1  MIQ B 502      18.790 -27.124   1.296  1.00142.91    -0.171 OA
HETATM    2  C2  MIQ B 502      18.488 -26.057   0.448  1.00141.17     0.195 A 
HETATM    3  C3  MIQ B 502      17.063 -25.486   0.154  1.00141.71     0.035 A 
HETATM    4  C4  MIQ B 502      15.705 -25.845   0.627  1.00142.86     0.046 A 
HETATM    5  C5  MIQ B 502      14.574 -25.122   0.171  1.00139.53     0.031 A 
HETATM    6  C12 MIQ B 502      14.749 -24.022  -0.766  1.00139.38     0.030 A 
HETATM    7  C13 MIQ B 502      16.051 -23.678  -1.219  1.00141.18     0.019 A 
HETATM    8  C14 MIQ B 502      17.235 -24.438  -0.735  1.00138.77     0.033 A 
HETATM    9  C15 MIQ B 502      18.775 -24.357  -0.994  1.00142.10     0.195 A 
HETATM   10  N17 MIQ B 502      19.320 -25.317  -0.265  1.00139.42    -0.288 N 
HETATM   11  O16 MIQ B 502      19.435 -23.454  -1.830  1.00148.93    -0.171 OA
ENDROOT
BRANCH  10  12
HETATM   12  C18 MIQ B 502      20.752 -25.551  -0.269  1.00139.82     0.187 C 
HETATM   13  C19 MIQ B 502      20.982 -27.031  -0.601  1.00140.06     0.247 C 
HETATM   14  O25 MIQ B 502      20.457 -27.497  -1.549  1.00143.95    -0.271 OA
HETATM   15  N20 MIQ B 502      21.833 -27.873   0.214  1.00140.02    -0.296 N 
HETATM   16  H13 MIQ B 502      21.970 -28.839  -0.010  1.00142.77     0.171 HD
HETATM   17  C21 MIQ B 502      22.455 -27.284   1.372  1.00142.22     0.224 C 
HETATM   18  C22 MIQ B 502      21.668 -26.208   2.095  1.00139.52     0.106 C 
HETATM   19  O24 MIQ B 502      23.528 -27.621   1.735  1.00146.13    -0.273 OA
HETATM   20  C23 MIQ B 502      21.363 -25.133   1.067  1.00139.15     0.045 C 
ENDBRANCH  10  12
BRANCH   5  21
HETATM   21  N6  MIQ B 502      13.248 -25.493   0.631  1.00140.95    -0.377 N 
HETATM   22  C7  MIQ B 502      13.110 -26.659   1.486  1.00142.12     0.149 C 
HETATM   23  C8  MIQ B 502      11.732 -27.296   1.362  1.00144.10     0.187 C 
HETATM   24  O9  MIQ B 502      10.694 -26.366   1.450  1.00148.65    -0.388 OA
HETATM   25  C10 MIQ B 502      10.967 -24.996   1.416  1.00147.44     0.187 C 
HETATM   26  C11 MIQ B 502      12.176 -24.512   0.623  1.00144.08     0.149 C 
ENDBRANCH   5  21
TORSDOF 2
ENDMDL
