MODEL 1
REMARK VINA RESULT:      -6.4      0.000      0.000
REMARK  2 active torsions:
REMARK  status: ('A' for Active; 'I' for Inactive)
REMARK    1  A    between atoms: C5_5  and  N6_21 
REMARK    2  A    between atoms: C18_14  and  N17_19 
ROOT
HETATM    1  O1  MIQ B 502       4.310   0.608 -21.180  1.00142.91    -0.171 OA
HETATM    2  C2  MIQ B 502       3.903   0.394 -19.861  1.00141.17     0.195 A 
HETATM    3  C3  MIQ B 502       3.115   1.400 -18.964  1.00141.71     0.035 A 
HETATM    4  C4  MIQ B 502       2.589   2.768 -19.186  1.00142.86     0.046 A 
HETATM    5  C5  MIQ B 502       1.893   3.445 -18.153  1.00139.53     0.031 A 
HETATM    6  C12 MIQ B 502       1.695   2.792 -16.867  1.00139.38     0.030 A 
HETATM    7  C13 MIQ B 502       2.198   1.480 -16.653  1.00141.18     0.019 A 
HETATM    8  C14 MIQ B 502       2.925   0.773 -17.743  1.00138.77     0.033 A 
HETATM    9  C15 MIQ B 502       3.600  -0.630 -17.883  1.00142.10     0.195 A 
HETATM   10  N17 MIQ B 502       4.088  -0.680 -19.112  1.00139.42    -0.288 N 
HETATM   11  O16 MIQ B 502       3.671  -1.625 -16.906  1.00148.93    -0.171 OA
ENDROOT
BRANCH  10  12
HETATM   12  C18 MIQ B 502       4.805  -1.845 -19.595  1.00139.82     0.187 C 
HETATM   13  C19 MIQ B 502       3.982  -3.086 -19.230  1.00140.06     0.247 C 
HETATM   14  O25 MIQ B 502       2.838  -3.123 -19.517  1.00143.95    -0.271 OA
HETATM   15  N20 MIQ B 502       4.571  -4.220 -18.547  1.00140.02    -0.296 N 
HETATM   16  H13 MIQ B 502       4.021  -5.021 -18.309  1.00142.77     0.171 HD
HETATM   17  C21 MIQ B 502       5.966  -4.146 -18.199  1.00142.22     0.224 C 
HETATM   18  C22 MIQ B 502       6.507  -2.777 -17.837  1.00139.52     0.106 C 
HETATM   19  O24 MIQ B 502       6.655  -5.107 -18.201  1.00146.13    -0.273 OA
HETATM   20  C23 MIQ B 502       6.221  -1.873 -19.022  1.00139.15     0.045 C 
ENDBRANCH  10  12
BRANCH   5  21
HETATM   21  N6  MIQ B 502       1.397   4.790 -18.380  1.00140.95    -0.377 N 
HETATM   22  C7  MIQ B 502       0.370   5.310 -17.493  1.00142.12     0.149 C 
HETATM   23  C8  MIQ B 502      -0.485   6.372 -18.174  1.00144.10     0.187 C 
HETATM   24  O9  MIQ B 502       0.275   7.337 -18.838  1.00148.65    -0.388 OA
HETATM   25  C10 MIQ B 502       1.648   7.156 -19.018  1.00147.44     0.187 C 
HETATM   26  C11 MIQ B 502       2.186   5.734 -19.151  1.00144.08     0.149 C 
ENDBRANCH   5  21
TORSDOF 2
ENDMDL
MODEL 2
REMARK VINA RESULT:      -6.3      2.729      8.170
REMARK  2 active torsions:
REMARK  status: ('A' for Active; 'I' for Inactive)
REMARK    1  A    between atoms: C5_5  and  N6_21 
REMARK    2  A    between atoms: C18_14  and  N17_19 
ROOT
HETATM    1  O1  MIQ B 502       1.634  -0.853 -17.502  1.00142.91    -0.171 OA
HETATM    2  C2  MIQ B 502       2.590  -0.010 -18.073  1.00141.17     0.195 A 
HETATM    3  C3  MIQ B 502       4.060  -0.394 -18.433  1.00141.71     0.035 A 
HETATM    4  C4  MIQ B 502       4.848  -1.643 -18.306  1.00142.86     0.046 A 
HETATM    5  C5  MIQ B 502       6.199  -1.685 -18.733  1.00139.53     0.031 A 
HETATM    6  C12 MIQ B 502       6.815  -0.493 -19.300  1.00139.38     0.030 A 
HETATM    7  C13 MIQ B 502       6.060   0.704 -19.423  1.00141.18     0.019 A 
HETATM    8  C14 MIQ B 502       4.641   0.741 -18.975  1.00138.77     0.033 A 
HETATM    9  C15 MIQ B 502       3.524   1.835 -18.952  1.00142.10     0.195 A 
HETATM   10  N17 MIQ B 502       2.457   1.256 -18.427  1.00139.42    -0.288 N 
HETATM   11  O16 MIQ B 502       3.637   3.155 -19.394  1.00148.93    -0.171 OA
ENDROOT
BRANCH  10  12
HETATM   12  C18 MIQ B 502       1.217   1.986 -18.234  1.00139.82     0.187 C 
HETATM   13  C19 MIQ B 502       0.830   1.867 -16.755  1.00140.06     0.247 C 
HETATM   14  O25 MIQ B 502       1.629   2.130 -15.928  1.00143.95    -0.271 OA
HETATM   15  N20 MIQ B 502      -0.494   1.447 -16.344  1.00140.02    -0.296 N 
HETATM   16  H13 MIQ B 502      -0.732   1.367 -15.375  1.00142.77     0.171 HD
HETATM   17  C21 MIQ B 502      -1.448   1.121 -17.372  1.00142.22     0.224 C 
HETATM   18  C22 MIQ B 502      -0.898   0.496 -18.639  1.00139.52     0.106 C 
HETATM   19  O24 MIQ B 502      -2.602   1.337 -17.235  1.00146.13    -0.273 OA
HETATM   20  C23 MIQ B 502       0.139   1.462 -19.182  1.00139.15     0.045 C 
ENDBRANCH  10  12
BRANCH   5  21
HETATM   21  N6  MIQ B 502       6.963  -2.911 -18.590  1.00140.95    -0.377 N 
HETATM   22  C7  MIQ B 502       8.383  -2.814 -18.301  1.00142.12     0.149 C 
HETATM   23  C8  MIQ B 502       9.149  -4.032 -18.801  1.00144.10     0.187 C 
HETATM   24  O9  MIQ B 502       8.547  -5.239 -18.439  1.00148.65    -0.388 OA
HETATM   25  C10 MIQ B 502       7.264  -5.252 -17.886  1.00147.44     0.187 C 
HETATM   26  C11 MIQ B 502       6.282  -4.160 -18.297  1.00144.08     0.149 C 
ENDBRANCH   5  21
TORSDOF 2
ENDMDL
MODEL 3
REMARK VINA RESULT:      -6.3      9.244     13.249
REMARK  2 active torsions:
REMARK  status: ('A' for Active; 'I' for Inactive)
REMARK    1  A    between atoms: C5_5  and  N6_21 
REMARK    2  A    between atoms: C18_14  and  N17_19 
ROOT
HETATM    1  O1  MIQ B 502      -4.637  11.953 -19.393  1.00142.91    -0.171 OA
HETATM    2  C2  MIQ B 502      -4.349  10.945 -20.316  1.00141.17     0.195 A 
HETATM    3  C3  MIQ B 502      -4.625  10.996 -21.853  1.00141.71     0.035 A 
HETATM    4  C4  MIQ B 502      -5.215  12.019 -22.749  1.00142.86     0.046 A 
HETATM    5  C5  MIQ B 502      -5.335  11.769 -24.140  1.00139.53     0.031 A 
HETATM    6  C12 MIQ B 502      -4.874  10.502 -24.689  1.00139.38     0.030 A 
HETATM    7  C13 MIQ B 502      -4.306   9.523 -23.830  1.00141.18     0.019 A 
HETATM    8  C14 MIQ B 502      -4.181   9.791 -22.372  1.00138.77     0.033 A 
HETATM    9  C15 MIQ B 502      -3.627   8.987 -21.150  1.00142.10     0.195 A 
HETATM   10  N17 MIQ B 502      -3.792   9.767 -20.095  1.00139.42    -0.288 N 
HETATM   11  O16 MIQ B 502      -3.074   7.706 -21.174  1.00148.93    -0.171 OA
ENDROOT
BRANCH  10  12
HETATM   12  C18 MIQ B 502      -3.401   9.336 -18.766  1.00139.82     0.187 C 
HETATM   13  C19 MIQ B 502      -1.965   8.804 -18.851  1.00140.06     0.247 C 
HETATM   14  O25 MIQ B 502      -1.134   9.469 -19.361  1.00143.95    -0.271 OA
HETATM   15  N20 MIQ B 502      -1.597   7.509 -18.316  1.00140.02    -0.296 N 
HETATM   16  H13 MIQ B 502      -0.657   7.171 -18.384  1.00142.77     0.171 HD
HETATM   17  C21 MIQ B 502      -2.631   6.713 -17.707  1.00142.22     0.224 C 
HETATM   18  C22 MIQ B 502      -4.022   6.836 -18.298  1.00139.52     0.106 C 
HETATM   19  O24 MIQ B 502      -2.404   6.003 -16.790  1.00146.13    -0.273 OA
HETATM   20  C23 MIQ B 502      -4.392   8.306 -18.227  1.00139.15     0.045 C 
ENDBRANCH  10  12
BRANCH   5  21
HETATM   21  N6  MIQ B 502      -5.929  12.774 -25.003  1.00140.95    -0.377 N 
HETATM   22  C7  MIQ B 502      -6.074  12.475 -26.418  1.00142.12     0.149 C 
HETATM   23  C8  MIQ B 502      -6.079  13.739 -27.268  1.00144.10     0.187 C 
HETATM   24  O9  MIQ B 502      -6.939  14.723 -26.774  1.00148.65    -0.388 OA
HETATM   25  C10 MIQ B 502      -7.516  14.587 -25.509  1.00147.44     0.187 C 
HETATM   26  C11 MIQ B 502      -6.746  13.830 -24.433  1.00144.08     0.149 C 
ENDBRANCH   5  21
TORSDOF 2
ENDMDL
MODEL 4
REMARK VINA RESULT:      -6.3     23.092     25.559
REMARK  2 active torsions:
REMARK  status: ('A' for Active; 'I' for Inactive)
REMARK    1  A    between atoms: C5_5  and  N6_21 
REMARK    2  A    between atoms: C18_14  and  N17_19 
ROOT
HETATM    1  O1  MIQ B 502      -8.207  22.563 -11.556  1.00142.91    -0.171 OA
HETATM    2  C2  MIQ B 502      -6.993  22.099 -11.045  1.00141.17     0.195 A 
HETATM    3  C3  MIQ B 502      -5.809  22.981 -10.537  1.00141.71     0.035 A 
HETATM    4  C4  MIQ B 502      -5.599  24.445 -10.435  1.00142.86     0.046 A 
HETATM    5  C5  MIQ B 502      -4.385  24.961  -9.915  1.00139.53     0.031 A 
HETATM    6  C12 MIQ B 502      -3.339  24.046  -9.480  1.00139.38     0.030 A 
HETATM    7  C13 MIQ B 502      -3.540  22.643  -9.577  1.00141.18     0.019 A 
HETATM    8  C14 MIQ B 502      -4.818  22.107 -10.120  1.00138.77     0.033 A 
HETATM    9  C15 MIQ B 502      -5.391  20.674 -10.371  1.00142.10     0.195 A 
HETATM   10  N17 MIQ B 502      -6.599  20.848 -10.881  1.00139.42    -0.288 N 
HETATM   11  O16 MIQ B 502      -4.751  19.461 -10.110  1.00148.93    -0.171 OA
ENDROOT
BRANCH  10  12
HETATM   12  C18 MIQ B 502      -7.432  19.720 -11.256  1.00139.82     0.187 C 
HETATM   13  C19 MIQ B 502      -7.852  19.916 -12.718  1.00140.06     0.247 C 
HETATM   14  O25 MIQ B 502      -7.026  20.143 -13.529  1.00143.95    -0.271 OA
HETATM   15  N20 MIQ B 502      -9.236  19.824 -13.134  1.00140.02    -0.296 N 
HETATM   16  H13 MIQ B 502      -9.498  19.960 -14.090  1.00142.77     0.171 HD
HETATM   17  C21 MIQ B 502     -10.227  19.556 -12.124  1.00142.22     0.224 C 
HETATM   18  C22 MIQ B 502      -9.967  20.130 -10.745  1.00139.52     0.106 C 
HETATM   19  O24 MIQ B 502     -11.192  18.915 -12.359  1.00146.13    -0.273 OA
HETATM   20  C23 MIQ B 502      -8.618  19.594 -10.302  1.00139.15     0.045 C 
ENDBRANCH  10  12
BRANCH   5  21
HETATM   21  N6  MIQ B 502      -4.188  26.397  -9.835  1.00140.95    -0.377 N 
HETATM   22  C7  MIQ B 502      -2.860  26.930 -10.085  1.00142.12     0.149 C 
HETATM   23  C8  MIQ B 502      -2.636  28.257  -9.371  1.00144.10     0.187 C 
HETATM   24  O9  MIQ B 502      -3.686  29.158  -9.557  1.00148.65    -0.388 OA
HETATM   25  C10 MIQ B 502      -4.882  28.739 -10.146  1.00147.44     0.187 C 
HETATM   26  C11 MIQ B 502      -5.325  27.293  -9.949  1.00144.08     0.149 C 
ENDBRANCH   5  21
TORSDOF 2
ENDMDL
MODEL 5
REMARK VINA RESULT:      -6.3      3.449      4.543
REMARK  2 active torsions:
REMARK  status: ('A' for Active; 'I' for Inactive)
REMARK    1  A    between atoms: C5_5  and  N6_21 
REMARK    2  A    between atoms: C18_14  and  N17_19 
ROOT
HETATM    1  O1  MIQ B 502       4.665  -3.741 -18.304  1.00142.91    -0.171 OA
HETATM    2  C2  MIQ B 502       4.728  -2.360 -18.499  1.00141.17     0.195 A 
HETATM    3  C3  MIQ B 502       3.564  -1.342 -18.272  1.00141.71     0.035 A 
HETATM    4  C4  MIQ B 502       2.159  -1.485 -17.822  1.00142.86     0.046 A 
HETATM    5  C5  MIQ B 502       1.323  -0.345 -17.710  1.00139.53     0.031 A 
HETATM    6  C12 MIQ B 502       1.849   0.972 -18.040  1.00139.38     0.030 A 
HETATM    7  C13 MIQ B 502       3.197   1.109 -18.471  1.00141.18     0.019 A 
HETATM    8  C14 MIQ B 502       4.070  -0.091 -18.584  1.00138.77     0.033 A 
HETATM    9  C15 MIQ B 502       5.556  -0.333 -19.005  1.00142.10     0.195 A 
HETATM   10  N17 MIQ B 502       5.759  -1.636 -18.900  1.00139.42    -0.288 N 
HETATM   11  O16 MIQ B 502       6.478   0.634 -19.412  1.00148.93    -0.171 OA
ENDROOT
BRANCH  10  12
HETATM   12  C18 MIQ B 502       7.039  -2.232 -19.230  1.00139.82     0.187 C 
HETATM   13  C19 MIQ B 502       6.787  -3.343 -20.257  1.00140.06     0.247 C 
HETATM   14  O25 MIQ B 502       6.151  -3.103 -21.221  1.00143.95    -0.271 OA
HETATM   15  N20 MIQ B 502       7.312  -4.682 -20.079  1.00140.02    -0.296 N 
HETATM   16  H13 MIQ B 502       7.135  -5.400 -20.753  1.00142.77     0.171 HD
HETATM   17  C21 MIQ B 502       8.076  -4.953 -18.889  1.00142.22     0.224 C 
HETATM   18  C22 MIQ B 502       7.667  -4.209 -17.632  1.00139.52     0.106 C 
HETATM   19  O24 MIQ B 502       8.980  -5.715 -18.895  1.00146.13    -0.273 OA
HETATM   20  C23 MIQ B 502       7.736  -2.730 -17.965  1.00139.15     0.045 C 
ENDBRANCH  10  12
BRANCH   5  21
HETATM   21  N6  MIQ B 502      -0.055  -0.501 -17.282  1.00140.95    -0.377 N 
HETATM   22  C7  MIQ B 502      -0.740   0.647 -16.714  1.00142.12     0.149 C 
HETATM   23  C8  MIQ B 502      -1.853   0.231 -15.760  1.00144.10     0.187 C 
HETATM   24  O9  MIQ B 502      -2.684  -0.756 -16.293  1.00148.65    -0.388 OA
HETATM   25  C10 MIQ B 502      -2.335  -1.413 -17.476  1.00147.44     0.187 C 
HETATM   26  C11 MIQ B 502      -0.855  -1.597 -17.799  1.00144.08     0.149 C 
ENDBRANCH   5  21
TORSDOF 2
ENDMDL
MODEL 6
REMARK VINA RESULT:      -6.3      4.672      7.654
REMARK  2 active torsions:
REMARK  status: ('A' for Active; 'I' for Inactive)
REMARK    1  A    between atoms: C5_5  and  N6_21 
REMARK    2  A    between atoms: C18_14  and  N17_19 
ROOT
HETATM    1  O1  MIQ B 502      -0.888  -2.303 -17.364  1.00142.91    -0.171 OA
HETATM    2  C2  MIQ B 502      -0.592  -0.938 -17.331  1.00141.17     0.195 A 
HETATM    3  C3  MIQ B 502       0.801  -0.290 -17.615  1.00141.71     0.035 A 
HETATM    4  C4  MIQ B 502       2.127  -0.843 -17.979  1.00142.86     0.046 A 
HETATM    5  C5  MIQ B 502       3.233   0.021 -18.178  1.00139.53     0.031 A 
HETATM    6  C12 MIQ B 502       3.064   1.459 -18.026  1.00139.38     0.030 A 
HETATM    7  C13 MIQ B 502       1.792   1.989 -17.678  1.00141.18     0.019 A 
HETATM    8  C14 MIQ B 502       0.634   1.078 -17.472  1.00138.77     0.033 A 
HETATM    9  C15 MIQ B 502      -0.871   1.280 -17.098  1.00142.10     0.195 A 
HETATM   10  N17 MIQ B 502      -1.404   0.070 -17.064  1.00139.42    -0.288 N 
HETATM   11  O16 MIQ B 502      -1.514   2.493 -16.848  1.00148.93    -0.171 OA
ENDROOT
BRANCH  10  12
HETATM   12  C18 MIQ B 502      -2.802  -0.133 -16.730  1.00139.82     0.187 C 
HETATM   13  C19 MIQ B 502      -2.875  -1.249 -15.681  1.00140.06     0.247 C 
HETATM   14  O25 MIQ B 502      -2.198  -1.179 -14.718  1.00143.95    -0.271 OA
HETATM   15  N20 MIQ B 502      -3.758  -2.386 -15.836  1.00140.02    -0.296 N 
HETATM   16  H13 MIQ B 502      -3.792  -3.112 -15.147  1.00142.77     0.171 HD
HETATM   17  C21 MIQ B 502      -4.568  -2.454 -17.026  1.00142.22     0.224 C 
HETATM   18  C22 MIQ B 502      -3.964  -1.882 -18.294  1.00139.52     0.106 C 
HETATM   19  O24 MIQ B 502      -5.650  -2.928 -17.010  1.00146.13    -0.273 OA
HETATM   20  C23 MIQ B 502      -3.611  -0.437 -17.990  1.00139.15     0.045 C 
ENDBRANCH  10  12
BRANCH   5  21
HETATM   21  N6  MIQ B 502       4.530  -0.535 -18.520  1.00140.95    -0.377 N 
HETATM   22  C7  MIQ B 502       4.692  -1.979 -18.507  1.00142.12     0.149 C 
HETATM   23  C8  MIQ B 502       6.134  -2.388 -18.239  1.00144.10     0.187 C 
HETATM   24  O9  MIQ B 502       7.052  -1.691 -19.028  1.00148.65    -0.388 OA
HETATM   25  C10 MIQ B 502       6.642  -0.591 -19.786  1.00147.44     0.187 C 
HETATM   26  C11 MIQ B 502       5.486   0.260 -19.270  1.00144.08     0.149 C 
ENDBRANCH   5  21
TORSDOF 2
ENDMDL
MODEL 7
REMARK VINA RESULT:      -6.2     17.557     18.389
REMARK  2 active torsions:
REMARK  status: ('A' for Active; 'I' for Inactive)
REMARK    1  A    between atoms: C5_5  and  N6_21 
REMARK    2  A    between atoms: C18_14  and  N17_19 
ROOT
HETATM    1  O1  MIQ B 502      17.421   9.217 -15.521  1.00142.91    -0.171 OA
HETATM    2  C2  MIQ B 502      18.034   9.407 -14.280  1.00141.17     0.195 A 
HETATM    3  C3  MIQ B 502      18.057  10.734 -13.457  1.00141.71     0.035 A 
HETATM    4  C4  MIQ B 502      17.496  12.086 -13.687  1.00142.86     0.046 A 
HETATM    5  C5  MIQ B 502      17.687  13.114 -12.729  1.00139.53     0.031 A 
HETATM    6  C12 MIQ B 502      18.438  12.838 -11.513  1.00139.38     0.030 A 
HETATM    7  C13 MIQ B 502      18.975  11.541 -11.291  1.00141.18     0.019 A 
HETATM    8  C14 MIQ B 502      18.770  10.466 -12.299  1.00138.77     0.033 A 
HETATM    9  C15 MIQ B 502      19.190   8.963 -12.405  1.00142.10     0.195 A 
HETATM   10  N17 MIQ B 502      18.703   8.528 -13.555  1.00139.42    -0.288 N 
HETATM   11  O16 MIQ B 502      19.932   8.236 -11.473  1.00148.93    -0.171 OA
ENDROOT
BRANCH  10  12
HETATM   12  C18 MIQ B 502      18.915   7.163 -13.998  1.00139.82     0.187 C 
HETATM   13  C19 MIQ B 502      19.561   7.217 -15.388  1.00140.06     0.247 C 
HETATM   14  O25 MIQ B 502      20.518   7.887 -15.552  1.00143.95    -0.271 OA
HETATM   15  N20 MIQ B 502      19.032   6.464 -16.507  1.00140.02    -0.296 N 
HETATM   16  H13 MIQ B 502      19.459   6.513 -17.411  1.00142.77     0.171 HD
HETATM   17  C21 MIQ B 502      17.857   5.661 -16.284  1.00142.22     0.224 C 
HETATM   18  C22 MIQ B 502      16.849   6.193 -15.283  1.00139.52     0.106 C 
HETATM   19  O24 MIQ B 502      17.691   4.638 -16.851  1.00146.13    -0.273 OA
HETATM   20  C23 MIQ B 502      17.599   6.386 -13.977  1.00139.15     0.045 C 
ENDBRANCH  10  12
BRANCH   5  21
HETATM   21  N6  MIQ B 502      17.145  14.438 -12.975  1.00140.95    -0.377 N 
HETATM   22  C7  MIQ B 502      16.338  14.649 -14.164  1.00142.12     0.149 C 
HETATM   23  C8  MIQ B 502      16.386  16.097 -14.635  1.00144.10     0.187 C 
HETATM   24  O9  MIQ B 502      16.174  17.011 -13.601  1.00148.65    -0.388 OA
HETATM   25  C10 MIQ B 502      16.164  16.585 -12.270  1.00147.44     0.187 C 
HETATM   26  C11 MIQ B 502      17.024  15.387 -11.881  1.00144.08     0.149 C 
ENDBRANCH   5  21
TORSDOF 2
ENDMDL
MODEL 8
REMARK VINA RESULT:      -6.2     23.238     26.944
REMARK  2 active torsions:
REMARK  status: ('A' for Active; 'I' for Inactive)
REMARK    1  A    between atoms: C5_5  and  N6_21 
REMARK    2  A    between atoms: C18_14  and  N17_19 
ROOT
HETATM    1  O1  MIQ B 502      -0.590  23.782  -7.406  1.00142.91    -0.171 OA
HETATM    2  C2  MIQ B 502      -1.305  24.786  -8.063  1.00141.17     0.195 A 
HETATM    3  C3  MIQ B 502      -2.584  24.587  -8.936  1.00141.71     0.035 A 
HETATM    4  C4  MIQ B 502      -3.383  23.399  -9.317  1.00142.86     0.046 A 
HETATM    5  C5  MIQ B 502      -4.526  23.538 -10.145  1.00139.53     0.031 A 
HETATM    6  C12 MIQ B 502      -4.916  24.858 -10.621  1.00139.38     0.030 A 
HETATM    7  C13 MIQ B 502      -4.151  25.998 -10.255  1.00141.18     0.019 A 
HETATM    8  C14 MIQ B 502      -2.953  25.845  -9.385  1.00138.77     0.033 A 
HETATM    9  C15 MIQ B 502      -1.897  26.830  -8.785  1.00142.10     0.195 A 
HETATM   10  N17 MIQ B 502      -1.062  26.085  -8.081  1.00139.42    -0.288 N 
HETATM   11  O16 MIQ B 502      -1.850  28.214  -8.964  1.00148.93    -0.171 OA
ENDROOT
BRANCH  10  12
HETATM   12  C18 MIQ B 502       0.071  26.669  -7.386  1.00139.82     0.187 C 
HETATM   13  C19 MIQ B 502       1.323  25.879  -7.787  1.00140.06     0.247 C 
HETATM   14  O25 MIQ B 502       1.551  25.703  -8.931  1.00143.95    -0.271 OA
HETATM   15  N20 MIQ B 502       2.239  25.346  -6.799  1.00140.02    -0.296 N 
HETATM   16  H13 MIQ B 502       3.049  24.826  -7.074  1.00142.77     0.171 HD
HETATM   17  C21 MIQ B 502       1.933  25.565  -5.409  1.00142.22     0.224 C 
HETATM   18  C22 MIQ B 502       0.465  25.594  -5.030  1.00139.52     0.106 C 
HETATM   19  O24 MIQ B 502       2.786  25.719  -4.606  1.00146.13    -0.273 OA
HETATM   20  C23 MIQ B 502      -0.177  26.677  -5.878  1.00139.15     0.045 C 
ENDBRANCH  10  12
BRANCH   5  21
HETATM   21  N6  MIQ B 502      -5.291  22.364 -10.522  1.00140.95    -0.377 N 
HETATM   22  C7  MIQ B 502      -6.090  22.415 -11.734  1.00142.12     0.149 C 
HETATM   23  C8  MIQ B 502      -7.275  21.459 -11.676  1.00144.10     0.187 C 
HETATM   24  O9  MIQ B 502      -6.918  20.178 -11.249  1.00148.65    -0.388 OA
HETATM   25  C10 MIQ B 502      -5.646  19.935 -10.725  1.00147.44     0.187 C 
HETATM   26  C11 MIQ B 502      -4.935  21.062  -9.984  1.00144.08     0.149 C 
ENDBRANCH   5  21
TORSDOF 2
ENDMDL
MODEL 9
REMARK VINA RESULT:      -6.1      2.184      8.310
REMARK  2 active torsions:
REMARK  status: ('A' for Active; 'I' for Inactive)
REMARK    1  A    between atoms: C5_5  and  N6_21 
REMARK    2  A    between atoms: C18_14  and  N17_19 
ROOT
HETATM    1  O1  MIQ B 502       0.742   2.055 -17.487  1.00142.91    -0.171 OA
HETATM    2  C2  MIQ B 502       1.858   2.560 -18.157  1.00141.17     0.195 A 
HETATM    3  C3  MIQ B 502       3.129   1.751 -18.572  1.00141.71     0.035 A 
HETATM    4  C4  MIQ B 502       3.530   0.333 -18.415  1.00142.86     0.046 A 
HETATM    5  C5  MIQ B 502       4.780  -0.117 -18.910  1.00139.53     0.031 A 
HETATM    6  C12 MIQ B 502       5.673   0.820 -19.578  1.00139.38     0.030 A 
HETATM    7  C13 MIQ B 502       5.287   2.179 -19.729  1.00141.18     0.019 A 
HETATM    8  C14 MIQ B 502       3.973   2.645 -19.209  1.00138.77     0.033 A 
HETATM    9  C15 MIQ B 502       3.223   4.017 -19.191  1.00142.10     0.195 A 
HETATM   10  N17 MIQ B 502       2.072   3.795 -18.577  1.00139.42    -0.288 N 
HETATM   11  O16 MIQ B 502       3.680   5.227 -19.714  1.00148.93    -0.171 OA
ENDROOT
BRANCH  10  12
HETATM   12  C18 MIQ B 502       1.111   4.861 -18.361  1.00139.82     0.187 C 
HETATM   13  C19 MIQ B 502       0.749   4.870 -16.871  1.00140.06     0.247 C 
HETATM   14  O25 MIQ B 502       1.614   4.887 -16.069  1.00143.95    -0.271 OA
HETATM   15  N20 MIQ B 502      -0.627   4.863 -16.419  1.00140.02    -0.296 N 
HETATM   16  H13 MIQ B 502      -0.850   4.862 -15.443  1.00142.77     0.171 HD
HETATM   17  C21 MIQ B 502      -1.665   4.831 -17.418  1.00142.22     0.224 C 
HETATM   18  C22 MIQ B 502      -1.362   4.064 -18.690  1.00139.52     0.106 C 
HETATM   19  O24 MIQ B 502      -2.698   5.380 -17.253  1.00146.13    -0.273 OA
HETATM   20  C23 MIQ B 502      -0.101   4.676 -19.273  1.00139.15     0.045 C 
ENDBRANCH  10  12
BRANCH   5  21
HETATM   21  N6  MIQ B 502       5.167  -1.505 -18.736  1.00140.95    -0.377 N 
HETATM   22  C7  MIQ B 502       4.201  -2.541 -19.059  1.00142.12     0.149 C 
HETATM   23  C8  MIQ B 502       4.449  -3.818 -18.266  1.00144.10     0.187 C 
HETATM   24  O9  MIQ B 502       5.786  -4.220 -18.290  1.00148.65    -0.388 OA
HETATM   25  C10 MIQ B 502       6.772  -3.373 -18.803  1.00147.44     0.187 C 
HETATM   26  C11 MIQ B 502       6.573  -1.865 -18.681  1.00144.08     0.149 C 
ENDBRANCH   5  21
TORSDOF 2
ENDMDL
