MODEL 1
REMARK VINA RESULT:      -8.2      0.000      0.000
REMARK  2 active torsions:
REMARK  status: ('A' for Active; 'I' for Inactive)
REMARK    1  A    between atoms: C5_5  and  N6_21 
REMARK    2  A    between atoms: C18_14  and  N17_19 
ROOT
HETATM    1  O1  MIQ B 502      -0.839  16.099  -2.569  1.00142.91    -0.171 OA
HETATM    2  C2  MIQ B 502      -1.914  16.400  -1.730  1.00141.17     0.195 A 
HETATM    3  C3  MIQ B 502      -2.054  15.993  -0.228  1.00141.71     0.035 A 
HETATM    4  C4  MIQ B 502      -1.188  15.238   0.708  1.00142.86     0.046 A 
HETATM    5  C5  MIQ B 502      -1.596  15.026   2.049  1.00139.53     0.031 A 
HETATM    6  C12 MIQ B 502      -2.873  15.553   2.508  1.00139.38     0.030 A 
HETATM    7  C13 MIQ B 502      -3.704  16.278   1.611  1.00141.18     0.019 A 
HETATM    8  C14 MIQ B 502      -3.269  16.500   0.205  1.00138.77     0.033 A 
HETATM    9  C15 MIQ B 502      -3.886  17.226  -1.035  1.00142.10     0.195 A 
HETATM   10  N17 MIQ B 502      -3.012  17.079  -2.017  1.00139.42    -0.288 N 
HETATM   11  O16 MIQ B 502      -5.112  17.890  -1.090  1.00148.93    -0.171 OA
ENDROOT
BRANCH  10  12
HETATM   12  C18 MIQ B 502      -3.261  17.618  -3.341  1.00139.82     0.187 C 
HETATM   13  C19 MIQ B 502      -3.962  16.531  -4.165  1.00140.06     0.247 C 
HETATM   14  O25 MIQ B 502      -4.915  15.996  -3.720  1.00143.95    -0.271 OA
HETATM   15  N20 MIQ B 502      -3.489  16.145  -5.479  1.00140.02    -0.296 N 
HETATM   16  H13 MIQ B 502      -3.952  15.429  -6.004  1.00142.77     0.171 HD
HETATM   17  C21 MIQ B 502      -2.318  16.806  -5.995  1.00142.22     0.224 C 
HETATM   18  C22 MIQ B 502      -1.263  17.211  -4.984  1.00139.52     0.106 C 
HETATM   19  O24 MIQ B 502      -2.191  17.024  -7.149  1.00146.13    -0.273 OA
HETATM   20  C23 MIQ B 502      -1.957  18.104  -3.971  1.00139.15     0.045 C 
ENDBRANCH  10  12
BRANCH   5  21
HETATM   21  N6  MIQ B 502      -0.745  14.272   2.951  1.00140.95    -0.377 N 
HETATM   22  C7  MIQ B 502       0.617  13.980   2.539  1.00142.12     0.149 C 
HETATM   23  C8  MIQ B 502       1.154  12.718   3.202  1.00144.10     0.187 C 
HETATM   24  O9  MIQ B 502       0.929  12.690   4.580  1.00148.65    -0.388 OA
HETATM   25  C10 MIQ B 502       0.090  13.634   5.179  1.00147.44     0.187 C 
HETATM   26  C11 MIQ B 502      -1.069  14.201   4.365  1.00144.08     0.149 C 
ENDBRANCH   5  21
TORSDOF 2
ENDMDL
MODEL 2
REMARK VINA RESULT:      -8.0     18.726     20.692
REMARK  2 active torsions:
REMARK  status: ('A' for Active; 'I' for Inactive)
REMARK    1  A    between atoms: C5_5  and  N6_21 
REMARK    2  A    between atoms: C18_14  and  N17_19 
ROOT
HETATM    1  O1  MIQ B 502       8.864  24.857  10.671  1.00142.91    -0.171 OA
HETATM    2  C2  MIQ B 502      10.039  25.109  11.383  1.00141.17     0.195 A 
HETATM    3  C3  MIQ B 502      11.493  24.820  10.894  1.00141.71     0.035 A 
HETATM    4  C4  MIQ B 502      12.054  24.248   9.647  1.00142.86     0.046 A 
HETATM    5  C5  MIQ B 502      13.456  24.108   9.490  1.00139.53     0.031 A 
HETATM    6  C12 MIQ B 502      14.349  24.529  10.560  1.00139.38     0.030 A 
HETATM    7  C13 MIQ B 502      13.812  25.079  11.755  1.00141.18     0.019 A 
HETATM    8  C14 MIQ B 502      12.339  25.226  11.914  1.00138.77     0.033 A 
HETATM    9  C15 MIQ B 502      11.404  25.770  13.042  1.00142.10     0.195 A 
HETATM   10  N17 MIQ B 502      10.168  25.637  12.589  1.00139.42    -0.288 N 
HETATM   11  O16 MIQ B 502      11.798  26.289  14.277  1.00148.93    -0.171 OA
ENDROOT
BRANCH  10  12
HETATM   12  C18 MIQ B 502       9.022  26.030  13.386  1.00139.82     0.187 C 
HETATM   13  C19 MIQ B 502       8.053  24.842  13.430  1.00140.06     0.247 C 
HETATM   14  O25 MIQ B 502       8.459  23.778  13.738  1.00143.95    -0.271 OA
HETATM   15  N20 MIQ B 502       6.648  24.991  13.110  1.00140.02    -0.296 N 
HETATM   16  H13 MIQ B 502       6.027  24.206  13.136  1.00142.77     0.171 HD
HETATM   17  C21 MIQ B 502       6.178  26.297  12.727  1.00142.22     0.224 C 
HETATM   18  C22 MIQ B 502       7.148  27.172  11.957  1.00139.52     0.106 C 
HETATM   19  O24 MIQ B 502       5.091  26.669  13.005  1.00146.13    -0.273 OA
HETATM   20  C23 MIQ B 502       8.390  27.301  12.820  1.00139.15     0.045 C 
ENDBRANCH  10  12
BRANCH   5  21
HETATM   21  N6  MIQ B 502      13.991  23.532   8.270  1.00140.95    -0.377 N 
HETATM   22  C7  MIQ B 502      13.066  23.160   7.214  1.00142.12     0.149 C 
HETATM   23  C8  MIQ B 502      13.620  22.042   6.339  1.00144.10     0.187 C 
HETATM   24  O9  MIQ B 502      14.933  22.275   5.927  1.00148.65    -0.388 OA
HETATM   25  C10 MIQ B 502      15.676  23.319   6.485  1.00147.44     0.187 C 
HETATM   26  C11 MIQ B 502      15.388  23.730   7.926  1.00144.08     0.149 C 
ENDBRANCH   5  21
TORSDOF 2
ENDMDL
MODEL 3
REMARK VINA RESULT:      -7.8     16.008     18.694
REMARK  2 active torsions:
REMARK  status: ('A' for Active; 'I' for Inactive)
REMARK    1  A    between atoms: C5_5  and  N6_21 
REMARK    2  A    between atoms: C18_14  and  N17_19 
ROOT
HETATM    1  O1  MIQ B 502      -7.580  15.753  16.950  1.00142.91    -0.171 OA
HETATM    2  C2  MIQ B 502      -6.372  15.106  16.681  1.00141.17     0.195 A 
HETATM    3  C3  MIQ B 502      -6.191  13.803  15.840  1.00141.71     0.035 A 
HETATM    4  C4  MIQ B 502      -7.135  12.915  15.120  1.00142.86     0.046 A 
HETATM    5  C5  MIQ B 502      -6.659  11.775  14.426  1.00139.53     0.031 A 
HETATM    6  C12 MIQ B 502      -5.234  11.476  14.419  1.00139.38     0.030 A 
HETATM    7  C13 MIQ B 502      -4.328  12.327  15.107  1.00141.18     0.019 A 
HETATM    8  C14 MIQ B 502      -4.834  13.524  15.833  1.00138.77     0.033 A 
HETATM    9  C15 MIQ B 502      -4.169  14.662  16.675  1.00142.10     0.195 A 
HETATM   10  N17 MIQ B 502      -5.155  15.451  17.066  1.00139.42    -0.288 N 
HETATM   11  O16 MIQ B 502      -2.809  14.808  16.955  1.00148.93    -0.171 OA
ENDROOT
BRANCH  10  12
HETATM   12  C18 MIQ B 502      -4.909  16.619  17.891  1.00139.82     0.187 C 
HETATM   13  C19 MIQ B 502      -5.895  16.579  19.065  1.00140.06     0.247 C 
HETATM   14  O25 MIQ B 502      -5.983  15.595  19.710  1.00143.95    -0.271 OA
HETATM   15  N20 MIQ B 502      -6.719  17.719  19.409  1.00140.02    -0.296 N 
HETATM   16  H13 MIQ B 502      -7.364  17.678  20.174  1.00142.77     0.171 HD
HETATM   17  C21 MIQ B 502      -6.601  18.906  18.601  1.00142.22     0.224 C 
HETATM   18  C22 MIQ B 502      -6.304  18.700  17.128  1.00139.52     0.106 C 
HETATM   19  O24 MIQ B 502      -6.724  19.985  19.066  1.00146.13    -0.273 OA
HETATM   20  C23 MIQ B 502      -5.020  17.894  17.056  1.00139.15     0.045 C 
ENDBRANCH  10  12
BRANCH   5  21
HETATM   21  N6  MIQ B 502      -7.596  10.906  13.738  1.00140.95    -0.377 N 
HETATM   22  C7  MIQ B 502      -8.809  10.505  14.431  1.00142.12     0.149 C 
HETATM   23  C8  MIQ B 502      -9.339   9.170  13.923  1.00144.10     0.187 C 
HETATM   24  O9  MIQ B 502      -9.399   9.104  12.530  1.00148.65    -0.388 OA
HETATM   25  C10 MIQ B 502      -8.801  10.096  11.748  1.00147.44     0.187 C 
HETATM   26  C11 MIQ B 502      -7.563  10.804  12.290  1.00144.08     0.149 C 
ENDBRANCH   5  21
TORSDOF 2
ENDMDL
MODEL 4
REMARK VINA RESULT:      -7.7      3.822      6.704
REMARK  2 active torsions:
REMARK  status: ('A' for Active; 'I' for Inactive)
REMARK    1  A    between atoms: C5_5  and  N6_21 
REMARK    2  A    between atoms: C18_14  and  N17_19 
ROOT
HETATM    1  O1  MIQ B 502      -6.782  18.222  -6.244  1.00142.91    -0.171 OA
HETATM    2  C2  MIQ B 502      -5.474  17.835  -6.546  1.00141.17     0.195 A 
HETATM    3  C3  MIQ B 502      -4.364  17.455  -5.515  1.00141.71     0.035 A 
HETATM    4  C4  MIQ B 502      -4.329  17.382  -4.035  1.00142.86     0.046 A 
HETATM    5  C5  MIQ B 502      -3.143  16.992  -3.364  1.00139.53     0.031 A 
HETATM    6  C12 MIQ B 502      -1.953  16.661  -4.134  1.00139.38     0.030 A 
HETATM    7  C13 MIQ B 502      -1.986  16.730  -5.553  1.00141.18     0.019 A 
HETATM    8  C14 MIQ B 502      -3.235  17.137  -6.252  1.00138.77     0.033 A 
HETATM    9  C15 MIQ B 502      -3.647  17.321  -7.749  1.00142.10     0.195 A 
HETATM   10  N17 MIQ B 502      -4.912  17.705  -7.735  1.00139.42    -0.288 N 
HETATM   11  O16 MIQ B 502      -2.838  17.121  -8.869  1.00148.93    -0.171 OA
ENDROOT
BRANCH  10  12
HETATM   12  C18 MIQ B 502      -5.631  17.988  -8.963  1.00139.82     0.187 C 
HETATM   13  C19 MIQ B 502      -6.247  19.387  -8.833  1.00140.06     0.247 C 
HETATM   14  O25 MIQ B 502      -5.562  20.290  -8.506  1.00143.95    -0.271 OA
HETATM   15  N20 MIQ B 502      -7.648  19.633  -9.107  1.00140.02    -0.296 N 
HETATM   16  H13 MIQ B 502      -8.040  20.550  -9.011  1.00142.77     0.171 HD
HETATM   17  C21 MIQ B 502      -8.467  18.513  -9.494  1.00142.22     0.224 C 
HETATM   18  C22 MIQ B 502      -8.118  17.170  -8.882  1.00139.52     0.106 C 
HETATM   19  O24 MIQ B 502      -9.362  18.636 -10.256  1.00146.13    -0.273 OA
HETATM   20  C23 MIQ B 502      -6.667  16.899  -9.237  1.00139.15     0.045 C 
ENDBRANCH  10  12
BRANCH   5  21
HETATM   21  N6  MIQ B 502      -3.119  16.939  -1.913  1.00140.95    -0.377 N 
HETATM   22  C7  MIQ B 502      -1.862  16.637  -1.250  1.00142.12     0.149 C 
HETATM   23  C8  MIQ B 502      -2.080  15.994   0.114  1.00144.10     0.187 C 
HETATM   24  O9  MIQ B 502      -3.017  16.675   0.893  1.00148.65    -0.388 OA
HETATM   25  C10 MIQ B 502      -3.803  17.686   0.332  1.00147.44     0.187 C 
HETATM   26  C11 MIQ B 502      -4.165  17.592  -1.146  1.00144.08     0.149 C 
ENDBRANCH   5  21
TORSDOF 2
ENDMDL
MODEL 5
REMARK VINA RESULT:      -7.6      3.744      7.005
REMARK  2 active torsions:
REMARK  status: ('A' for Active; 'I' for Inactive)
REMARK    1  A    between atoms: C5_5  and  N6_21 
REMARK    2  A    between atoms: C18_14  and  N17_19 
ROOT
HETATM    1  O1  MIQ B 502      -5.937  19.762  -6.905  1.00142.91    -0.171 OA
HETATM    2  C2  MIQ B 502      -4.890  18.860  -7.115  1.00141.17     0.195 A 
HETATM    3  C3  MIQ B 502      -4.060  18.137  -6.007  1.00141.71     0.035 A 
HETATM    4  C4  MIQ B 502      -4.101  18.159  -4.526  1.00142.86     0.046 A 
HETATM    5  C5  MIQ B 502      -3.194  17.371  -3.772  1.00139.53     0.031 A 
HETATM    6  C12 MIQ B 502      -2.219  16.536  -4.459  1.00139.38     0.030 A 
HETATM    7  C13 MIQ B 502      -2.181  16.514  -5.880  1.00141.18     0.019 A 
HETATM    8  C14 MIQ B 502      -3.136  17.341  -6.665  1.00138.77     0.033 A 
HETATM    9  C15 MIQ B 502      -3.395  17.572  -8.190  1.00142.10     0.195 A 
HETATM   10  N17 MIQ B 502      -4.396  18.434  -8.264  1.00139.42    -0.288 N 
HETATM   11  O16 MIQ B 502      -2.705  16.986  -9.253  1.00148.93    -0.171 OA
ENDROOT
BRANCH  10  12
HETATM   12  C18 MIQ B 502      -4.903  18.897  -9.542  1.00139.82     0.187 C 
HETATM   13  C19 MIQ B 502      -5.249  17.663 -10.384  1.00140.06     0.247 C 
HETATM   14  O25 MIQ B 502      -5.933  16.822  -9.918  1.00143.95    -0.271 OA
HETATM   15  N20 MIQ B 502      -4.765  17.502 -11.740  1.00140.02    -0.296 N 
HETATM   16  H13 MIQ B 502      -4.993  16.689 -12.276  1.00142.77     0.171 HD
HETATM   17  C21 MIQ B 502      -3.923  18.537 -12.282  1.00142.22     0.224 C 
HETATM   18  C22 MIQ B 502      -3.001  19.246 -11.309  1.00139.52     0.106 C 
HETATM   19  O24 MIQ B 502      -3.956  18.822 -13.429  1.00146.13    -0.273 OA
HETATM   20  C23 MIQ B 502      -3.885  19.818 -10.216  1.00139.15     0.045 C 
ENDBRANCH  10  12
BRANCH   5  21
HETATM   21  N6  MIQ B 502      -3.235  17.413  -2.322  1.00140.95    -0.377 N 
HETATM   22  C7  MIQ B 502      -4.523  17.569  -1.668  1.00142.12     0.149 C 
HETATM   23  C8  MIQ B 502      -4.390  18.225  -0.300  1.00144.10     0.187 C 
HETATM   24  O9  MIQ B 502      -3.388  17.649   0.484  1.00148.65    -0.388 OA
HETATM   25  C10 MIQ B 502      -2.490  16.737  -0.074  1.00147.44     0.187 C 
HETATM   26  C11 MIQ B 502      -2.128  16.878  -1.549  1.00144.08     0.149 C 
ENDBRANCH   5  21
TORSDOF 2
ENDMDL
MODEL 6
REMARK VINA RESULT:      -7.6     18.796     20.880
REMARK  2 active torsions:
REMARK  status: ('A' for Active; 'I' for Inactive)
REMARK    1  A    between atoms: C5_5  and  N6_21 
REMARK    2  A    between atoms: C18_14  and  N17_19 
ROOT
HETATM    1  O1  MIQ B 502      13.074  25.063  13.022  1.00142.91    -0.171 OA
HETATM    2  C2  MIQ B 502      12.135  24.908  12.000  1.00141.17     0.195 A 
HETATM    3  C3  MIQ B 502      12.430  24.433  10.541  1.00141.71     0.035 A 
HETATM    4  C4  MIQ B 502      13.668  24.030   9.832  1.00142.86     0.046 A 
HETATM    5  C5  MIQ B 502      13.617  23.636   8.470  1.00139.53     0.031 A 
HETATM    6  C12 MIQ B 502      12.342  23.628   7.767  1.00139.38     0.030 A 
HETATM    7  C13 MIQ B 502      11.156  24.014   8.447  1.00141.18     0.019 A 
HETATM    8  C14 MIQ B 502      11.215  24.424   9.877  1.00138.77     0.033 A 
HETATM    9  C15 MIQ B 502      10.159  24.895  10.930  1.00142.10     0.195 A 
HETATM   10  N17 MIQ B 502      10.831  25.118  12.047  1.00139.42    -0.288 N 
HETATM   11  O16 MIQ B 502       8.787  25.050  10.725  1.00148.93    -0.171 OA
ENDROOT
BRANCH  10  12
HETATM   12  C18 MIQ B 502      10.168  25.589  13.249  1.00139.82     0.187 C 
HETATM   13  C19 MIQ B 502       8.941  24.701  13.484  1.00140.06     0.247 C 
HETATM   14  O25 MIQ B 502       9.070  23.528  13.483  1.00143.95    -0.271 OA
HETATM   15  N20 MIQ B 502       7.625  25.261  13.715  1.00140.02    -0.296 N 
HETATM   16  H13 MIQ B 502       6.830  24.670  13.861  1.00142.77     0.171 HD
HETATM   17  C21 MIQ B 502       7.491  26.695  13.701  1.00142.22     0.224 C 
HETATM   18  C22 MIQ B 502       8.399  27.455  12.753  1.00139.52     0.106 C 
HETATM   19  O24 MIQ B 502       6.714  27.250  14.398  1.00146.13    -0.273 OA
HETATM   20  C23 MIQ B 502       9.821  27.071  13.118  1.00139.15     0.045 C 
ENDBRANCH  10  12
BRANCH   5  21
HETATM   21  N6  MIQ B 502      14.839  23.258   7.784  1.00140.95    -0.377 N 
HETATM   22  C7  MIQ B 502      14.735  22.505   6.545  1.00142.12     0.149 C 
HETATM   23  C8  MIQ B 502      15.971  21.652   6.293  1.00144.10     0.187 C 
HETATM   24  O9  MIQ B 502      17.163  22.358   6.463  1.00148.65    -0.388 OA
HETATM   25  C10 MIQ B 502      17.154  23.634   7.033  1.00147.44     0.187 C 
HETATM   26  C11 MIQ B 502      16.075  23.968   8.058  1.00144.08     0.149 C 
ENDBRANCH   5  21
TORSDOF 2
ENDMDL
MODEL 7
REMARK VINA RESULT:      -7.3     18.785     21.072
REMARK  2 active torsions:
REMARK  status: ('A' for Active; 'I' for Inactive)
REMARK    1  A    between atoms: C5_5  and  N6_21 
REMARK    2  A    between atoms: C18_14  and  N17_19 
ROOT
HETATM    1  O1  MIQ B 502      10.222  23.340  10.784  1.00142.91    -0.171 OA
HETATM    2  C2  MIQ B 502      11.122  24.374  11.052  1.00141.17     0.195 A 
HETATM    3  C3  MIQ B 502      12.450  24.663  10.284  1.00141.71     0.035 A 
HETATM    4  C4  MIQ B 502      13.127  24.012   9.137  1.00142.86     0.046 A 
HETATM    5  C5  MIQ B 502      14.358  24.518   8.649  1.00139.53     0.031 A 
HETATM    6  C12 MIQ B 502      14.959  25.686   9.278  1.00139.38     0.030 A 
HETATM    7  C13 MIQ B 502      14.310  26.311  10.376  1.00141.18     0.019 A 
HETATM    8  C14 MIQ B 502      13.017  25.776  10.883  1.00138.77     0.033 A 
HETATM    9  C15 MIQ B 502      12.034  26.181  12.030  1.00142.10     0.195 A 
HETATM   10  N17 MIQ B 502      11.041  25.308  11.985  1.00139.42    -0.288 N 
HETATM   11  O16 MIQ B 502      12.181  27.247  12.920  1.00148.93    -0.171 OA
ENDROOT
BRANCH  10  12
HETATM   12  C18 MIQ B 502       9.938  25.367  12.925  1.00139.82     0.187 C 
HETATM   13  C19 MIQ B 502       9.852  24.008  13.630  1.00140.06     0.247 C 
HETATM   14  O25 MIQ B 502      10.823  23.550  14.119  1.00143.95    -0.271 OA
HETATM   15  N20 MIQ B 502       8.608  23.271  13.719  1.00140.02    -0.296 N 
HETATM   16  H13 MIQ B 502       8.566  22.382  14.177  1.00142.77     0.171 HD
HETATM   17  C21 MIQ B 502       7.438  23.846  13.106  1.00142.22     0.224 C 
HETATM   18  C22 MIQ B 502       7.660  24.659  11.846  1.00139.52     0.106 C 
HETATM   19  O24 MIQ B 502       6.361  23.695  13.568  1.00146.13    -0.273 OA
HETATM   20  C23 MIQ B 502       8.647  25.755  12.207  1.00139.15     0.045 C 
ENDBRANCH  10  12
BRANCH   5  21
HETATM   21  N6  MIQ B 502      15.016  23.861   7.535  1.00140.95    -0.377 N 
HETATM   22  C7  MIQ B 502      16.467  23.784   7.533  1.00142.12     0.149 C 
HETATM   23  C8  MIQ B 502      17.030  23.689   6.121  1.00144.10     0.187 C 
HETATM   24  O9  MIQ B 502      16.380  22.731   5.340  1.00148.65    -0.388 OA
HETATM   25  C10 MIQ B 502      15.201  22.132   5.791  1.00147.44     0.187 C 
HETATM   26  C11 MIQ B 502      14.274  22.936   6.696  1.00144.08     0.149 C 
ENDBRANCH   5  21
TORSDOF 2
ENDMDL
MODEL 8
REMARK VINA RESULT:      -7.3     19.143     22.176
REMARK  2 active torsions:
REMARK  status: ('A' for Active; 'I' for Inactive)
REMARK    1  A    between atoms: C5_5  and  N6_21 
REMARK    2  A    between atoms: C18_14  and  N17_19 
ROOT
HETATM    1  O1  MIQ B 502      11.443  13.008  13.457  1.00142.91    -0.171 OA
HETATM    2  C2  MIQ B 502      12.319  13.891  14.094  1.00141.17     0.195 A 
HETATM    3  C3  MIQ B 502      13.818  14.129  13.725  1.00141.71     0.035 A 
HETATM    4  C4  MIQ B 502      14.714  13.563  12.689  1.00142.86     0.046 A 
HETATM    5  C5  MIQ B 502      16.064  13.989  12.598  1.00139.53     0.031 A 
HETATM    6  C12 MIQ B 502      16.570  14.988  13.529  1.00139.38     0.030 A 
HETATM    7  C13 MIQ B 502      15.710  15.531  14.521  1.00141.18     0.019 A 
HETATM    8  C14 MIQ B 502      14.294  15.082  14.610  1.00138.77     0.033 A 
HETATM    9  C15 MIQ B 502      13.083  15.438  15.533  1.00142.10     0.195 A 
HETATM   10  N17 MIQ B 502      12.073  14.696  15.113  1.00139.42    -0.288 N 
HETATM   11  O16 MIQ B 502      13.077  16.353  16.588  1.00148.93    -0.171 OA
ENDROOT
BRANCH  10  12
HETATM   12  C18 MIQ B 502      10.773  14.752  15.756  1.00139.82     0.187 C 
HETATM   13  C19 MIQ B 502      10.417  13.333  16.215  1.00140.06     0.247 C 
HETATM   14  O25 MIQ B 502      11.197  12.721  16.854  1.00143.95    -0.271 OA
HETATM   15  N20 MIQ B 502       9.143  12.723  15.892  1.00140.02    -0.296 N 
HETATM   16  H13 MIQ B 502       8.925  11.793  16.193  1.00142.77     0.171 HD
HETATM   17  C21 MIQ B 502       8.211  13.485  15.103  1.00142.22     0.224 C 
HETATM   18  C22 MIQ B 502       8.802  14.419  14.064  1.00139.52     0.106 C 
HETATM   19  O24 MIQ B 502       7.044  13.390  15.262  1.00146.13    -0.273 OA
HETATM   20  C23 MIQ B 502       9.737  15.355  14.808  1.00139.15     0.045 C 
ENDBRANCH  10  12
BRANCH   5  21
HETATM   21  N6  MIQ B 502      16.934  13.417  11.588  1.00140.95    -0.377 N 
HETATM   22  C7  MIQ B 502      18.114  14.162  11.185  1.00142.12     0.149 C 
HETATM   23  C8  MIQ B 502      18.546  13.819   9.764  1.00144.10     0.187 C 
HETATM   24  O9  MIQ B 502      18.600  12.443   9.530  1.00148.65    -0.388 OA
HETATM   25  C10 MIQ B 502      18.075  11.545  10.464  1.00147.44     0.187 C 
HETATM   26  C11 MIQ B 502      16.893  11.990  11.319  1.00144.08     0.149 C 
ENDBRANCH   5  21
TORSDOF 2
ENDMDL
MODEL 9
REMARK VINA RESULT:      -7.2     19.124     21.175
REMARK  2 active torsions:
REMARK  status: ('A' for Active; 'I' for Inactive)
REMARK    1  A    between atoms: C5_5  and  N6_21 
REMARK    2  A    between atoms: C18_14  and  N17_19 
ROOT
HETATM    1  O1  MIQ B 502      16.698  23.745  10.259  1.00142.91    -0.171 OA
HETATM    2  C2  MIQ B 502      15.820  23.467   9.208  1.00141.17     0.195 A 
HETATM    3  C3  MIQ B 502      14.283  23.744   9.193  1.00141.71     0.035 A 
HETATM    4  C4  MIQ B 502      13.344  24.333  10.177  1.00142.86     0.046 A 
HETATM    5  C5  MIQ B 502      11.966  24.458   9.867  1.00139.53     0.031 A 
HETATM    6  C12 MIQ B 502      11.473  24.005   8.574  1.00139.38     0.030 A 
HETATM    7  C13 MIQ B 502      12.373  23.442   7.630  1.00141.18     0.019 A 
HETATM    8  C14 MIQ B 502      13.819  23.315   7.960  1.00138.77     0.033 A 
HETATM    9  C15 MIQ B 502      15.075  22.770   7.206  1.00142.10     0.195 A 
HETATM   10  N17 MIQ B 502      16.095  22.929   8.032  1.00139.42    -0.288 N 
HETATM   11  O16 MIQ B 502      15.107  22.224   5.921  1.00148.93    -0.171 OA
ENDROOT
BRANCH  10  12
HETATM   12  C18 MIQ B 502      17.437  22.514   7.668  1.00139.82     0.187 C 
HETATM   13  C19 MIQ B 502      17.758  23.118   6.296  1.00140.06     0.247 C 
HETATM   14  O25 MIQ B 502      17.592  24.273   6.122  1.00143.95    -0.271 OA
HETATM   15  N20 MIQ B 502      18.265  22.311   5.205  1.00140.02    -0.296 N 
HETATM   16  H13 MIQ B 502      18.464  22.716   4.312  1.00142.77     0.171 HD
HETATM   17  C21 MIQ B 502      18.449  20.901   5.439  1.00142.22     0.224 C 
HETATM   18  C22 MIQ B 502      17.467  20.233   6.382  1.00139.52     0.106 C 
HETATM   19  O24 MIQ B 502      19.325  20.299   4.923  1.00146.13    -0.273 OA
HETATM   20  C23 MIQ B 502      17.548  20.990   7.695  1.00139.15     0.045 C 
ENDBRANCH  10  12
BRANCH   5  21
HETATM   21  N6  MIQ B 502      11.055  25.022  10.846  1.00140.95    -0.377 N 
HETATM   22  C7  MIQ B 502       9.743  24.420  11.002  1.00142.12     0.149 C 
HETATM   23  C8  MIQ B 502       8.716  25.419  11.520  1.00144.10     0.187 C 
HETATM   24  O9  MIQ B 502       9.174  26.147  12.620  1.00148.65    -0.388 OA
HETATM   25  C10 MIQ B 502      10.516  26.083  13.002  1.00147.44     0.187 C 
HETATM   26  C11 MIQ B 502      11.570  25.846  11.926  1.00144.08     0.149 C 
ENDBRANCH   5  21
TORSDOF 2
ENDMDL
