MODEL 1
REMARK VINA RESULT:      -7.3      0.000      0.000
REMARK  2 active torsions:
REMARK  status: ('A' for Active; 'I' for Inactive)
REMARK    1  A    between atoms: C5_5  and  N6_21 
REMARK    2  A    between atoms: C18_14  and  N17_19 
ROOT
HETATM    1  O1  MIQ B 502       6.256   7.381 -14.131  1.00142.91    -0.171 OA
HETATM    2  C2  MIQ B 502       6.889   8.015 -15.202  1.00141.17     0.195 A 
HETATM    3  C3  MIQ B 502       7.747   9.318 -15.125  1.00141.71     0.035 A 
HETATM    4  C4  MIQ B 502       8.138  10.216 -14.013  1.00142.86     0.046 A 
HETATM    5  C5  MIQ B 502       8.949  11.353 -14.262  1.00139.53     0.031 A 
HETATM    6  C12 MIQ B 502       9.400  11.636 -15.616  1.00139.38     0.030 A 
HETATM    7  C13 MIQ B 502       9.027  10.774 -16.682  1.00141.18     0.019 A 
HETATM    8  C14 MIQ B 502       8.177   9.582 -16.416  1.00138.77     0.033 A 
HETATM    9  C15 MIQ B 502       7.582   8.436 -17.298  1.00142.10     0.195 A 
HETATM   10  N17 MIQ B 502       6.901   7.657 -16.474  1.00139.42    -0.288 N 
HETATM   11  O16 MIQ B 502       7.739   8.276 -18.676  1.00148.93    -0.171 OA
ENDROOT
BRANCH  10  12
HETATM   12  C18 MIQ B 502       6.192   6.485 -16.954  1.00139.82     0.187 C 
HETATM   13  C19 MIQ B 502       4.741   6.586 -16.467  1.00140.06     0.247 C 
HETATM   14  O25 MIQ B 502       4.135   7.579 -16.665  1.00143.95    -0.271 OA
HETATM   15  N20 MIQ B 502       4.089   5.493 -15.777  1.00140.02    -0.296 N 
HETATM   16  H13 MIQ B 502       3.143   5.573 -15.459  1.00142.77     0.171 HD
HETATM   17  C21 MIQ B 502       4.852   4.295 -15.539  1.00142.22     0.224 C 
HETATM   18  C22 MIQ B 502       6.337   4.472 -15.285  1.00139.52     0.106 C 
HETATM   19  O24 MIQ B 502       4.345   3.227 -15.546  1.00146.13    -0.273 OA
HETATM   20  C23 MIQ B 502       6.894   5.211 -16.488  1.00139.15     0.045 C 
ENDBRANCH  10  12
BRANCH   5  21
HETATM   21  N6  MIQ B 502       9.312  12.232 -13.166  1.00140.95    -0.377 N 
HETATM   22  C7  MIQ B 502       8.255  12.771 -12.328  1.00142.12     0.149 C 
HETATM   23  C8  MIQ B 502       8.652  14.098 -11.694  1.00144.10     0.187 C 
HETATM   24  O9  MIQ B 502       9.918  14.062 -11.107  1.00148.65    -0.388 OA
HETATM   25  C10 MIQ B 502      10.768  12.974 -11.322  1.00147.44     0.187 C 
HETATM   26  C11 MIQ B 502      10.668  12.221 -12.644  1.00144.08     0.149 C 
ENDBRANCH   5  21
TORSDOF 2
ENDMDL
MODEL 2
REMARK VINA RESULT:      -7.1      3.485      7.519
REMARK  2 active torsions:
REMARK  status: ('A' for Active; 'I' for Inactive)
REMARK    1  A    between atoms: C5_5  and  N6_21 
REMARK    2  A    between atoms: C18_14  and  N17_19 
ROOT
HETATM    1  O1  MIQ B 502       4.408  11.033 -14.508  1.00142.91    -0.171 OA
HETATM    2  C2  MIQ B 502       5.634  10.894 -15.163  1.00141.17     0.195 A 
HETATM    3  C3  MIQ B 502       6.364   9.550 -15.479  1.00141.71     0.035 A 
HETATM    4  C4  MIQ B 502       6.036   8.128 -15.222  1.00142.86     0.046 A 
HETATM    5  C5  MIQ B 502       6.920   7.101 -15.641  1.00139.53     0.031 A 
HETATM    6  C12 MIQ B 502       8.156   7.448 -16.328  1.00139.38     0.030 A 
HETATM    7  C13 MIQ B 502       8.470   8.812 -16.575  1.00141.18     0.019 A 
HETATM    8  C14 MIQ B 502       7.537   9.885 -16.135  1.00138.77     0.033 A 
HETATM    9  C15 MIQ B 502       7.536  11.446 -16.227  1.00142.10     0.195 A 
HETATM   10  N17 MIQ B 502       6.416  11.844 -15.646  1.00139.42    -0.288 N 
HETATM   11  O16 MIQ B 502       8.520  12.250 -16.803  1.00148.93    -0.171 OA
ENDROOT
BRANCH  10  12
HETATM   12  C18 MIQ B 502       6.082  13.252 -15.532  1.00139.82     0.187 C 
HETATM   13  C19 MIQ B 502       5.774  13.541 -14.058  1.00140.06     0.247 C 
HETATM   14  O25 MIQ B 502       6.545  13.203 -13.231  1.00143.95    -0.271 OA
HETATM   15  N20 MIQ B 502       4.564  14.225 -13.650  1.00140.02    -0.296 N 
HETATM   16  H13 MIQ B 502       4.371  14.401 -12.684  1.00142.77     0.171 HD
HETATM   17  C21 MIQ B 502       3.633  14.618 -14.676  1.00142.22     0.224 C 
HETATM   18  C22 MIQ B 502       3.528  13.709 -15.886  1.00139.52     0.106 C 
HETATM   19  O24 MIQ B 502       2.989  15.604 -14.581  1.00146.13    -0.273 OA
HETATM   20  C23 MIQ B 502       4.926  13.602 -16.467  1.00139.15     0.045 C 
ENDBRANCH  10  12
BRANCH   5  21
HETATM   21  N6  MIQ B 502       6.593   5.713 -15.370  1.00140.95    -0.377 N 
HETATM   22  C7  MIQ B 502       7.102   5.105 -14.153  1.00142.12     0.149 C 
HETATM   23  C8  MIQ B 502       7.255   3.595 -14.293  1.00144.10     0.187 C 
HETATM   24  O9  MIQ B 502       6.126   2.983 -14.840  1.00148.65    -0.388 OA
HETATM   25  C10 MIQ B 502       5.100   3.754 -15.393  1.00147.44     0.187 C 
HETATM   26  C11 MIQ B 502       5.457   5.093 -16.030  1.00144.08     0.149 C 
ENDBRANCH   5  21
TORSDOF 2
ENDMDL
MODEL 3
REMARK VINA RESULT:      -7.1      2.378      8.268
REMARK  2 active torsions:
REMARK  status: ('A' for Active; 'I' for Inactive)
REMARK    1  A    between atoms: C5_5  and  N6_21 
REMARK    2  A    between atoms: C18_14  and  N17_19 
ROOT
HETATM    1  O1  MIQ B 502       9.563  11.437 -13.263  1.00142.91    -0.171 OA
HETATM    2  C2  MIQ B 502       8.198  11.653 -13.465  1.00141.17     0.195 A 
HETATM    3  C3  MIQ B 502       7.139  10.568 -13.840  1.00141.71     0.035 A 
HETATM    4  C4  MIQ B 502       7.217   9.107 -14.077  1.00142.86     0.046 A 
HETATM    5  C5  MIQ B 502       6.051   8.372 -14.409  1.00139.53     0.031 A 
HETATM    6  C12 MIQ B 502       4.770   9.057 -14.516  1.00139.38     0.030 A 
HETATM    7  C13 MIQ B 502       4.695  10.457 -14.288  1.00141.18     0.019 A 
HETATM    8  C14 MIQ B 502       5.922  11.224 -13.937  1.00138.77     0.033 A 
HETATM    9  C15 MIQ B 502       6.228  12.724 -13.621  1.00142.10     0.195 A 
HETATM   10  N17 MIQ B 502       7.527  12.789 -13.380  1.00139.42    -0.288 N 
HETATM   11  O16 MIQ B 502       5.313  13.777 -13.601  1.00148.93    -0.171 OA
ENDROOT
BRANCH  10  12
HETATM   12  C18 MIQ B 502       8.177  14.047 -13.062  1.00139.82     0.187 C 
HETATM   13  C19 MIQ B 502       9.352  14.225 -14.030  1.00140.06     0.247 C 
HETATM   14  O25 MIQ B 502       9.167  14.106 -15.189  1.00143.95    -0.271 OA
HETATM   15  N20 MIQ B 502      10.686  14.541 -13.563  1.00140.02    -0.296 N 
HETATM   16  H13 MIQ B 502      11.447  14.648 -14.205  1.00142.77     0.171 HD
HETATM   17  C21 MIQ B 502      10.890  14.671 -12.143  1.00142.22     0.224 C 
HETATM   18  C22 MIQ B 502      10.048  13.780 -11.249  1.00139.52     0.106 C 
HETATM   19  O24 MIQ B 502      11.671  15.438 -11.698  1.00146.13    -0.273 OA
HETATM   20  C23 MIQ B 502       8.599  14.071 -11.593  1.00139.15     0.045 C 
ENDBRANCH  10  12
BRANCH   5  21
HETATM   21  N6  MIQ B 502       6.144   6.944 -14.653  1.00140.95    -0.377 N 
HETATM   22  C7  MIQ B 502       5.722   6.431 -15.945  1.00142.12     0.149 C 
HETATM   23  C8  MIQ B 502       5.263   4.981 -15.859  1.00144.10     0.187 C 
HETATM   24  O9  MIQ B 502       6.157   4.169 -15.158  1.00148.65    -0.388 OA
HETATM   25  C10 MIQ B 502       7.213   4.735 -14.439  1.00147.44     0.187 C 
HETATM   26  C11 MIQ B 502       7.025   6.125 -13.839  1.00144.08     0.149 C 
ENDBRANCH   5  21
TORSDOF 2
ENDMDL
MODEL 4
REMARK VINA RESULT:      -7.1      3.054      3.496
REMARK  2 active torsions:
REMARK  status: ('A' for Active; 'I' for Inactive)
REMARK    1  A    between atoms: C5_5  and  N6_21 
REMARK    2  A    between atoms: C18_14  and  N17_19 
ROOT
HETATM    1  O1  MIQ B 502       5.208   7.624 -14.990  1.00142.91    -0.171 OA
HETATM    2  C2  MIQ B 502       6.402   8.333 -15.136  1.00141.17     0.195 A 
HETATM    3  C3  MIQ B 502       6.580   9.879 -14.999  1.00141.71     0.035 A 
HETATM    4  C4  MIQ B 502       5.646  10.989 -14.697  1.00142.86     0.046 A 
HETATM    5  C5  MIQ B 502       6.116  12.326 -14.637  1.00139.53     0.031 A 
HETATM    6  C12 MIQ B 502       7.525  12.607 -14.873  1.00139.38     0.030 A 
HETATM    7  C13 MIQ B 502       8.421  11.543 -15.161  1.00141.18     0.019 A 
HETATM    8  C14 MIQ B 502       7.922  10.142 -15.221  1.00138.77     0.033 A 
HETATM    9  C15 MIQ B 502       8.581   8.751 -15.496  1.00142.10     0.195 A 
HETATM   10  N17 MIQ B 502       7.607   7.861 -15.410  1.00139.42    -0.288 N 
HETATM   11  O16 MIQ B 502       9.926   8.505 -15.779  1.00148.93    -0.171 OA
ENDROOT
BRANCH  10  12
HETATM   12  C18 MIQ B 502       7.850   6.447 -15.626  1.00139.82     0.187 C 
HETATM   13  C19 MIQ B 502       6.806   5.940 -16.628  1.00140.06     0.247 C 
HETATM   14  O25 MIQ B 502       6.653   6.521 -17.644  1.00143.95    -0.271 OA
HETATM   15  N20 MIQ B 502       6.004   4.763 -16.367  1.00140.02    -0.296 N 
HETATM   16  H13 MIQ B 502       5.322   4.446 -17.026  1.00142.77     0.171 HD
HETATM   17  C21 MIQ B 502       6.202   4.077 -15.116  1.00142.22     0.224 C 
HETATM   18  C22 MIQ B 502       6.565   4.934 -13.918  1.00139.52     0.106 C 
HETATM   19  O24 MIQ B 502       6.092   2.903 -15.030  1.00146.13    -0.273 OA
HETATM   20  C23 MIQ B 502       7.823   5.693 -14.297  1.00139.15     0.045 C 
ENDBRANCH  10  12
BRANCH   5  21
HETATM   21  N6  MIQ B 502       5.187  13.405 -14.356  1.00140.95    -0.377 N 
HETATM   22  C7  MIQ B 502       3.791  13.076 -14.121  1.00142.12     0.149 C 
HETATM   23  C8  MIQ B 502       2.867  14.233 -14.478  1.00144.10     0.187 C 
HETATM   24  O9  MIQ B 502       3.291  15.452 -13.945  1.00148.65    -0.388 OA
HETATM   25  C10 MIQ B 502       4.555  15.567 -13.360  1.00147.44     0.187 C 
HETATM   26  C11 MIQ B 502       5.684  14.685 -13.884  1.00144.08     0.149 C 
ENDBRANCH   5  21
TORSDOF 2
ENDMDL
MODEL 5
REMARK VINA RESULT:      -6.9      4.098      5.964
REMARK  2 active torsions:
REMARK  status: ('A' for Active; 'I' for Inactive)
REMARK    1  A    between atoms: C5_5  and  N6_21 
REMARK    2  A    between atoms: C18_14  and  N17_19 
ROOT
HETATM    1  O1  MIQ B 502       6.627   5.970 -14.641  1.00142.91    -0.171 OA
HETATM    2  C2  MIQ B 502       7.424   6.590 -15.605  1.00141.17     0.195 A 
HETATM    3  C3  MIQ B 502       8.942   6.322 -15.858  1.00141.71     0.035 A 
HETATM    4  C4  MIQ B 502       9.935   5.417 -15.232  1.00142.86     0.046 A 
HETATM    5  C5  MIQ B 502      11.276   5.396 -15.692  1.00139.53     0.031 A 
HETATM    6  C12 MIQ B 502      11.678   6.268 -16.787  1.00139.38     0.030 A 
HETATM    7  C13 MIQ B 502      10.725   7.135 -17.388  1.00141.18     0.019 A 
HETATM    8  C14 MIQ B 502       9.319   7.151 -16.902  1.00138.77     0.033 A 
HETATM    9  C15 MIQ B 502       8.027   7.937 -17.300  1.00142.10     0.195 A 
HETATM   10  N17 MIQ B 502       7.074   7.508 -16.490  1.00139.42    -0.288 N 
HETATM   11  O16 MIQ B 502       7.911   8.899 -18.305  1.00148.93    -0.171 OA
ENDROOT
BRANCH  10  12
HETATM   12  C18 MIQ B 502       5.724   8.036 -16.561  1.00139.82     0.187 C 
HETATM   13  C19 MIQ B 502       5.337   8.521 -15.158  1.00140.06     0.247 C 
HETATM   14  O25 MIQ B 502       6.065   9.246 -14.578  1.00143.95    -0.271 OA
HETATM   15  N20 MIQ B 502       4.099   8.116 -14.525  1.00140.02    -0.296 N 
HETATM   16  H13 MIQ B 502       3.861   8.434 -13.606  1.00142.77     0.171 HD
HETATM   17  C21 MIQ B 502       3.232   7.222 -15.249  1.00142.22     0.224 C 
HETATM   18  C22 MIQ B 502       3.904   6.200 -16.146  1.00139.52     0.106 C 
HETATM   19  O24 MIQ B 502       2.056   7.286 -15.150  1.00146.13    -0.273 OA
HETATM   20  C23 MIQ B 502       4.769   6.982 -17.118  1.00139.15     0.045 C 
ENDBRANCH  10  12
BRANCH   5  21
HETATM   21  N6  MIQ B 502      12.242   4.516 -15.060  1.00140.95    -0.377 N 
HETATM   22  C7  MIQ B 502      11.766   3.547 -14.088  1.00142.12     0.149 C 
HETATM   23  C8  MIQ B 502      12.846   3.176 -13.079  1.00144.10     0.187 C 
HETATM   24  O9  MIQ B 502      14.068   2.869 -13.680  1.00148.65    -0.388 OA
HETATM   25  C10 MIQ B 502      14.273   3.124 -15.038  1.00147.44     0.187 C 
HETATM   26  C11 MIQ B 502      13.536   4.294 -15.680  1.00144.08     0.149 C 
ENDBRANCH   5  21
TORSDOF 2
ENDMDL
MODEL 6
REMARK VINA RESULT:      -6.9      4.669      6.575
REMARK  2 active torsions:
REMARK  status: ('A' for Active; 'I' for Inactive)
REMARK    1  A    between atoms: C5_5  and  N6_21 
REMARK    2  A    between atoms: C18_14  and  N17_19 
ROOT
HETATM    1  O1  MIQ B 502       7.398   5.603 -14.691  1.00142.91    -0.171 OA
HETATM    2  C2  MIQ B 502       8.299   6.214 -15.566  1.00141.17     0.195 A 
HETATM    3  C3  MIQ B 502       9.804   5.839 -15.751  1.00141.71     0.035 A 
HETATM    4  C4  MIQ B 502      10.684   4.820 -15.132  1.00142.86     0.046 A 
HETATM    5  C5  MIQ B 502      12.044   4.718 -15.517  1.00139.53     0.031 A 
HETATM    6  C12 MIQ B 502      12.579   5.620 -16.526  1.00139.38     0.030 A 
HETATM    7  C13 MIQ B 502      11.736   6.597 -17.121  1.00141.18     0.019 A 
HETATM    8  C14 MIQ B 502      10.307   6.698 -16.715  1.00138.77     0.033 A 
HETATM    9  C15 MIQ B 502       9.108   7.610 -17.131  1.00142.10     0.195 A 
HETATM   10  N17 MIQ B 502       8.076   7.211 -16.406  1.00139.42    -0.288 N 
HETATM   11  O16 MIQ B 502       9.128   8.638 -18.075  1.00148.93    -0.171 OA
ENDROOT
BRANCH  10  12
HETATM   12  C18 MIQ B 502       6.779   7.851 -16.517  1.00139.82     0.187 C 
HETATM   13  C19 MIQ B 502       6.322   8.232 -15.104  1.00140.06     0.247 C 
HETATM   14  O25 MIQ B 502       7.054   8.839 -14.406  1.00143.95    -0.271 OA
HETATM   15  N20 MIQ B 502       5.012   7.871 -14.601  1.00140.02    -0.296 N 
HETATM   16  H13 MIQ B 502       4.729   8.120 -13.674  1.00142.77     0.171 HD
HETATM   17  C21 MIQ B 502       4.140   7.121 -15.468  1.00142.22     0.224 C 
HETATM   18  C22 MIQ B 502       4.801   6.137 -16.414  1.00139.52     0.106 C 
HETATM   19  O24 MIQ B 502       2.968   7.271 -15.445  1.00146.13    -0.273 OA
HETATM   20  C23 MIQ B 502       5.794   6.934 -17.241  1.00139.15     0.045 C 
ENDBRANCH  10  12
BRANCH   5  21
HETATM   21  N6  MIQ B 502      12.898   3.725 -14.891  1.00140.95    -0.377 N 
HETATM   22  C7  MIQ B 502      14.262   3.579 -15.371  1.00142.12     0.149 C 
HETATM   23  C8  MIQ B 502      14.803   2.176 -15.130  1.00144.10     0.187 C 
HETATM   24  O9  MIQ B 502      14.576   1.722 -13.829  1.00148.65    -0.388 OA
HETATM   25  C10 MIQ B 502      13.734   2.431 -12.969  1.00147.44     0.187 C 
HETATM   26  C11 MIQ B 502      12.574   3.218 -13.569  1.00144.08     0.149 C 
ENDBRANCH   5  21
TORSDOF 2
ENDMDL
MODEL 7
REMARK VINA RESULT:      -6.8      3.645      5.684
REMARK  2 active torsions:
REMARK  status: ('A' for Active; 'I' for Inactive)
REMARK    1  A    between atoms: C5_5  and  N6_21 
REMARK    2  A    between atoms: C18_14  and  N17_19 
ROOT
HETATM    1  O1  MIQ B 502       7.831   5.771 -17.289  1.00142.91    -0.171 OA
HETATM    2  C2  MIQ B 502       8.493   6.547 -16.335  1.00141.17     0.195 A 
HETATM    3  C3  MIQ B 502       9.720   7.478 -16.594  1.00141.71     0.035 A 
HETATM    4  C4  MIQ B 502      10.505   7.816 -17.805  1.00142.86     0.046 A 
HETATM    5  C5  MIQ B 502      11.594   8.720 -17.724  1.00139.53     0.031 A 
HETATM    6  C12 MIQ B 502      11.941   9.320 -16.444  1.00139.38     0.030 A 
HETATM    7  C13 MIQ B 502      11.189   8.997 -15.283  1.00141.18     0.019 A 
HETATM    8  C14 MIQ B 502      10.045   8.049 -15.375  1.00138.77     0.033 A 
HETATM    9  C15 MIQ B 502       9.013   7.469 -14.352  1.00142.10     0.195 A 
HETATM   10  N17 MIQ B 502       8.228   6.661 -15.045  1.00139.42    -0.288 N 
HETATM   11  O16 MIQ B 502       8.942   7.750 -12.987  1.00148.93    -0.171 OA
ENDROOT
BRANCH  10  12
HETATM   12  C18 MIQ B 502       7.149   5.926 -14.411  1.00139.82     0.187 C 
HETATM   13  C19 MIQ B 502       7.442   4.430 -14.577  1.00140.06     0.247 C 
HETATM   14  O25 MIQ B 502       8.501   4.012 -14.267  1.00143.95    -0.271 OA
HETATM   15  N20 MIQ B 502       6.450   3.511 -15.099  1.00140.02    -0.296 N 
HETATM   16  H13 MIQ B 502       6.656   2.538 -15.208  1.00142.77     0.171 HD
HETATM   17  C21 MIQ B 502       5.169   4.047 -15.479  1.00142.22     0.224 C 
HETATM   18  C22 MIQ B 502       5.159   5.454 -16.046  1.00139.52     0.106 C 
HETATM   19  O24 MIQ B 502       4.175   3.421 -15.350  1.00146.13    -0.273 OA
HETATM   20  C23 MIQ B 502       5.803   6.345 -14.999  1.00139.15     0.045 C 
ENDBRANCH  10  12
BRANCH   5  21
HETATM   21  N6  MIQ B 502      12.363   9.031 -18.916  1.00140.95    -0.377 N 
HETATM   22  C7  MIQ B 502      11.676   9.072 -20.195  1.00142.12     0.149 C 
HETATM   23  C8  MIQ B 502      12.614   8.762 -21.355  1.00144.10     0.187 C 
HETATM   24  O9  MIQ B 502      13.808   9.483 -21.295  1.00148.65    -0.388 OA
HETATM   25  C10 MIQ B 502      14.140  10.210 -20.148  1.00147.44     0.187 C 
HETATM   26  C11 MIQ B 502      13.643   9.707 -18.797  1.00144.08     0.149 C 
ENDBRANCH   5  21
TORSDOF 2
ENDMDL
MODEL 8
REMARK VINA RESULT:      -6.8      3.823      4.902
REMARK  2 active torsions:
REMARK  status: ('A' for Active; 'I' for Inactive)
REMARK    1  A    between atoms: C5_5  and  N6_21 
REMARK    2  A    between atoms: C18_14  and  N17_19 
ROOT
HETATM    1  O1  MIQ B 502       6.387   7.641 -17.324  1.00142.91    -0.171 OA
HETATM    2  C2  MIQ B 502       6.994   8.045 -16.133  1.00141.17     0.195 A 
HETATM    3  C3  MIQ B 502       6.655   9.332 -15.316  1.00141.71     0.035 A 
HETATM    4  C4  MIQ B 502       5.682  10.434 -15.507  1.00142.86     0.046 A 
HETATM    5  C5  MIQ B 502       5.605  11.494 -14.568  1.00139.53     0.031 A 
HETATM    6  C12 MIQ B 502       6.487  11.498 -13.410  1.00139.38     0.030 A 
HETATM    7  C13 MIQ B 502       7.420  10.442 -13.226  1.00141.18     0.019 A 
HETATM    8  C14 MIQ B 502       7.494   9.331 -14.213  1.00138.77     0.033 A 
HETATM    9  C15 MIQ B 502       8.358   8.034 -14.346  1.00142.10     0.195 A 
HETATM   10  N17 MIQ B 502       7.955   7.439 -15.457  1.00139.42    -0.288 N 
HETATM   11  O16 MIQ B 502       9.354   7.600 -13.470  1.00148.93    -0.171 OA
ENDROOT
BRANCH  10  12
HETATM   12  C18 MIQ B 502       8.555   6.198 -15.912  1.00139.82     0.187 C 
HETATM   13  C19 MIQ B 502       8.551   5.217 -14.733  1.00140.06     0.247 C 
HETATM   14  O25 MIQ B 502       7.548   5.030 -14.143  1.00143.95    -0.271 OA
HETATM   15  N20 MIQ B 502       9.747   4.507 -14.327  1.00140.02    -0.296 N 
HETATM   16  H13 MIQ B 502       9.733   3.874 -13.552  1.00142.77     0.171 HD
HETATM   17  C21 MIQ B 502      10.962   4.760 -15.057  1.00142.22     0.224 C 
HETATM   18  C22 MIQ B 502      11.154   6.165 -15.595  1.00139.52     0.106 C 
HETATM   19  O24 MIQ B 502      11.766   3.912 -15.231  1.00146.13    -0.273 OA
HETATM   20  C23 MIQ B 502       9.951   6.458 -16.474  1.00139.15     0.045 C 
ENDBRANCH  10  12
BRANCH   5  21
HETATM   21  N6  MIQ B 502       4.658  12.573 -14.776  1.00140.95    -0.377 N 
HETATM   22  C7  MIQ B 502       4.786  13.775 -13.969  1.00142.12     0.149 C 
HETATM   23  C8  MIQ B 502       3.454  14.495 -13.806  1.00144.10     0.187 C 
HETATM   24  O9  MIQ B 502       2.773  14.658 -15.014  1.00148.65    -0.388 OA
HETATM   25  C10 MIQ B 502       3.209  14.000 -16.167  1.00147.44     0.187 C 
HETATM   26  C11 MIQ B 502       3.908  12.652 -16.017  1.00144.08     0.149 C 
ENDBRANCH   5  21
TORSDOF 2
ENDMDL
MODEL 9
REMARK VINA RESULT:      -6.8      4.122      6.100
REMARK  2 active torsions:
REMARK  status: ('A' for Active; 'I' for Inactive)
REMARK    1  A    between atoms: C5_5  and  N6_21 
REMARK    2  A    between atoms: C18_14  and  N17_19 
ROOT
HETATM    1  O1  MIQ B 502       6.523   5.822 -14.696  1.00142.91    -0.171 OA
HETATM    2  C2  MIQ B 502       7.361   6.488 -15.594  1.00141.17     0.195 A 
HETATM    3  C3  MIQ B 502       8.881   6.205 -15.820  1.00141.71     0.035 A 
HETATM    4  C4  MIQ B 502       9.837   5.241 -15.227  1.00142.86     0.046 A 
HETATM    5  C5  MIQ B 502      11.190   5.222 -15.649  1.00139.53     0.031 A 
HETATM    6  C12 MIQ B 502      11.642   6.156 -16.671  1.00139.38     0.030 A 
HETATM    7  C13 MIQ B 502      10.725   7.080 -17.241  1.00141.18     0.019 A 
HETATM    8  C14 MIQ B 502       9.304   7.093 -16.795  1.00138.77     0.033 A 
HETATM    9  C15 MIQ B 502       8.041   7.931 -17.177  1.00142.10     0.195 A 
HETATM   10  N17 MIQ B 502       7.055   7.469 -16.425  1.00139.42    -0.288 N 
HETATM   11  O16 MIQ B 502       7.973   8.959 -18.119  1.00148.93    -0.171 OA
ENDROOT
BRANCH  10  12
HETATM   12  C18 MIQ B 502       5.719   8.030 -16.500  1.00139.82     0.187 C 
HETATM   13  C19 MIQ B 502       5.322   8.481 -15.089  1.00140.06     0.247 C 
HETATM   14  O25 MIQ B 502       6.056   9.173 -14.478  1.00143.95    -0.271 OA
HETATM   15  N20 MIQ B 502       4.065   8.086 -14.486  1.00140.02    -0.296 N 
HETATM   16  H13 MIQ B 502       3.820   8.383 -13.562  1.00142.77     0.171 HD
HETATM   17  C21 MIQ B 502       3.190   7.232 -15.248  1.00142.22     0.224 C 
HETATM   18  C22 MIQ B 502       3.853   6.223 -16.165  1.00139.52     0.106 C 
HETATM   19  O24 MIQ B 502       2.015   7.320 -15.165  1.00146.13    -0.273 OA
HETATM   20  C23 MIQ B 502       4.749   7.013 -17.101  1.00139.15     0.045 C 
ENDBRANCH  10  12
BRANCH   5  21
HETATM   21  N6  MIQ B 502      12.120   4.283 -15.049  1.00140.95    -0.377 N 
HETATM   22  C7  MIQ B 502      13.483   4.239 -15.549  1.00142.12     0.149 C 
HETATM   23  C8  MIQ B 502      14.124   2.873 -15.335  1.00144.10     0.187 C 
HETATM   24  O9  MIQ B 502      13.948   2.387 -14.038  1.00148.65    -0.388 OA
HETATM   25  C10 MIQ B 502      13.070   3.024 -13.157  1.00147.44     0.187 C 
HETATM   26  C11 MIQ B 502      11.850   3.737 -13.730  1.00144.08     0.149 C 
ENDBRANCH   5  21
TORSDOF 2
ENDMDL
