MODEL 1
REMARK VINA RESULT:      -7.4      0.000      0.000
REMARK  2 active torsions:
REMARK  status: ('A' for Active; 'I' for Inactive)
REMARK    1  A    between atoms: C5_5  and  N6_21 
REMARK    2  A    between atoms: C18_14  and  N17_19 
ROOT
HETATM    1  O1  MIQ B 502      -8.500  -7.261   9.848  1.00142.91    -0.171 OA
HETATM    2  C2  MIQ B 502      -9.643  -6.462   9.772  1.00141.17     0.195 A 
HETATM    3  C3  MIQ B 502     -10.679  -6.443   8.603  1.00141.71     0.035 A 
HETATM    4  C4  MIQ B 502     -10.788  -7.187   7.326  1.00142.86     0.046 A 
HETATM    5  C5  MIQ B 502     -11.875  -6.946   6.447  1.00139.53     0.031 A 
HETATM    6  C12 MIQ B 502     -12.888  -5.963   6.802  1.00139.38     0.030 A 
HETATM    7  C13 MIQ B 502     -12.784  -5.250   8.027  1.00141.18     0.019 A 
HETATM    8  C14 MIQ B 502     -11.643  -5.509   8.947  1.00138.77     0.033 A 
HETATM    9  C15 MIQ B 502     -11.202  -4.945  10.338  1.00142.10     0.195 A 
HETATM   10  N17 MIQ B 502     -10.083  -5.577  10.650  1.00139.42    -0.288 N 
HETATM   11  O16 MIQ B 502     -11.859  -3.970  11.091  1.00148.93    -0.171 OA
ENDROOT
BRANCH  10  12
HETATM   12  C18 MIQ B 502      -9.372  -5.294  11.883  1.00139.82     0.187 C 
HETATM   13  C19 MIQ B 502     -10.351  -5.499  13.045  1.00140.06     0.247 C 
HETATM   14  O25 MIQ B 502     -10.963  -6.505  13.112  1.00143.95    -0.271 OA
HETATM   15  N20 MIQ B 502     -10.541  -4.493  14.070  1.00140.02    -0.296 N 
HETATM   16  H13 MIQ B 502     -11.188  -4.637  14.820  1.00142.77     0.171 HD
HETATM   17  C21 MIQ B 502      -9.790  -3.269  13.962  1.00142.22     0.224 C 
HETATM   18  C22 MIQ B 502      -9.504  -2.768  12.559  1.00139.52     0.106 C 
HETATM   19  O24 MIQ B 502      -9.412  -2.689  14.920  1.00146.13    -0.273 OA
HETATM   20  C23 MIQ B 502      -8.775  -3.888  11.841  1.00139.15     0.045 C 
ENDBRANCH  10  12
BRANCH   5  21
HETATM   21  N6  MIQ B 502     -11.961  -7.671   5.192  1.00140.95    -0.377 N 
HETATM   22  C7  MIQ B 502     -12.616  -7.032   4.064  1.00142.12     0.149 C 
HETATM   23  C8  MIQ B 502     -13.200  -8.050   3.094  1.00144.10     0.187 C 
HETATM   24  O9  MIQ B 502     -12.300  -9.065   2.764  1.00148.65    -0.388 OA
HETATM   25  C10 MIQ B 502     -11.099  -9.201   3.465  1.00147.44     0.187 C 
HETATM   26  C11 MIQ B 502     -11.057  -8.777   4.930  1.00144.08     0.149 C 
ENDBRANCH   5  21
TORSDOF 2
ENDMDL
MODEL 2
REMARK VINA RESULT:      -7.3      2.161      8.387
REMARK  2 active torsions:
REMARK  status: ('A' for Active; 'I' for Inactive)
REMARK    1  A    between atoms: C5_5  and  N6_21 
REMARK    2  A    between atoms: C18_14  and  N17_19 
ROOT
HETATM    1  O1  MIQ B 502     -13.736  -4.283   7.699  1.00142.91    -0.171 OA
HETATM    2  C2  MIQ B 502     -12.889  -5.365   7.447  1.00141.17     0.195 A 
HETATM    3  C3  MIQ B 502     -11.640  -5.775   8.290  1.00141.71     0.035 A 
HETATM    4  C4  MIQ B 502     -11.006  -5.218   9.508  1.00142.86     0.046 A 
HETATM    5  C5  MIQ B 502      -9.848  -5.827  10.056  1.00139.53     0.031 A 
HETATM    6  C12 MIQ B 502      -9.282  -7.007   9.418  1.00139.38     0.030 A 
HETATM    7  C13 MIQ B 502      -9.890  -7.542   8.251  1.00141.18     0.019 A 
HETATM    8  C14 MIQ B 502     -11.107  -6.899   7.681  1.00138.77     0.033 A 
HETATM    9  C15 MIQ B 502     -12.030  -7.189   6.453  1.00142.10     0.195 A 
HETATM   10  N17 MIQ B 502     -12.964  -6.253   6.470  1.00139.42    -0.288 N 
HETATM   11  O16 MIQ B 502     -11.890  -8.225   5.529  1.00148.93    -0.171 OA
ENDROOT
BRANCH  10  12
HETATM   12  C18 MIQ B 502     -14.000  -6.198   5.455  1.00139.82     0.187 C 
HETATM   13  C19 MIQ B 502     -14.680  -7.571   5.405  1.00140.06     0.247 C 
HETATM   14  O25 MIQ B 502     -15.071  -8.056   6.407  1.00143.95    -0.271 OA
HETATM   15  N20 MIQ B 502     -14.862  -8.289   4.161  1.00140.02    -0.296 N 
HETATM   16  H13 MIQ B 502     -15.302  -9.188   4.143  1.00142.77     0.171 HD
HETATM   17  C21 MIQ B 502     -14.367  -7.681   2.953  1.00142.22     0.224 C 
HETATM   18  C22 MIQ B 502     -13.109  -6.843   3.078  1.00139.52     0.106 C 
HETATM   19  O24 MIQ B 502     -14.918  -7.825   1.917  1.00146.13    -0.273 OA
HETATM   20  C23 MIQ B 502     -13.406  -5.772   4.113  1.00139.15     0.045 C 
ENDBRANCH  10  12
BRANCH   5  21
HETATM   21  N6  MIQ B 502      -9.229  -5.262  11.241  1.00140.95    -0.377 N 
HETATM   22  C7  MIQ B 502      -9.866  -4.126  11.884  1.00142.12     0.149 C 
HETATM   23  C8  MIQ B 502      -8.864  -3.266  12.643  1.00144.10     0.187 C 
HETATM   24  O9  MIQ B 502      -8.015  -4.015  13.460  1.00148.65    -0.388 OA
HETATM   25  C10 MIQ B 502      -7.986  -5.408  13.363  1.00147.44     0.187 C 
HETATM   26  C11 MIQ B 502      -8.284  -6.051  12.012  1.00144.08     0.149 C 
ENDBRANCH   5  21
TORSDOF 2
ENDMDL
MODEL 3
REMARK VINA RESULT:      -7.2      1.892      3.096
REMARK  2 active torsions:
REMARK  status: ('A' for Active; 'I' for Inactive)
REMARK    1  A    between atoms: C5_5  and  N6_21 
REMARK    2  A    between atoms: C18_14  and  N17_19 
ROOT
HETATM    1  O1  MIQ B 502     -12.744  -4.264  10.679  1.00142.91    -0.171 OA
HETATM    2  C2  MIQ B 502     -11.734  -5.058  10.130  1.00141.17     0.195 A 
HETATM    3  C3  MIQ B 502     -11.730  -5.686   8.700  1.00141.71     0.035 A 
HETATM    4  C4  MIQ B 502     -12.688  -5.652   7.570  1.00142.86     0.046 A 
HETATM    5  C5  MIQ B 502     -12.397  -6.338   6.363  1.00139.53     0.031 A 
HETATM    6  C12 MIQ B 502     -11.151  -7.079   6.236  1.00139.38     0.030 A 
HETATM    7  C13 MIQ B 502     -10.231  -7.111   7.319  1.00141.18     0.019 A 
HETATM    8  C14 MIQ B 502     -10.541  -6.386   8.582  1.00138.77     0.033 A 
HETATM    9  C15 MIQ B 502      -9.802  -6.191   9.946  1.00142.10     0.195 A 
HETATM   10  N17 MIQ B 502     -10.595  -5.432  10.685  1.00139.42    -0.288 N 
HETATM   11  O16 MIQ B 502      -8.560  -6.717  10.307  1.00148.93    -0.171 OA
ENDROOT
BRANCH  10  12
HETATM   12  C18 MIQ B 502     -10.234  -5.054  12.039  1.00139.82     0.187 C 
HETATM   13  C19 MIQ B 502      -8.856  -4.384  11.986  1.00140.06     0.247 C 
HETATM   14  O25 MIQ B 502      -8.672  -3.506  11.220  1.00143.95    -0.271 OA
HETATM   15  N20 MIQ B 502      -7.773  -4.794  12.856  1.00140.02    -0.296 N 
HETATM   16  H13 MIQ B 502      -6.876  -4.353  12.808  1.00142.77     0.171 HD
HETATM   17  C21 MIQ B 502      -8.020  -5.875  13.776  1.00142.22     0.224 C 
HETATM   18  C22 MIQ B 502      -8.969  -6.962  13.311  1.00139.52     0.106 C 
HETATM   19  O24 MIQ B 502      -7.510  -5.908  14.842  1.00146.13    -0.273 OA
HETATM   20  C23 MIQ B 502     -10.275  -6.273  12.960  1.00139.15     0.045 C 
ENDBRANCH  10  12
BRANCH   5  21
HETATM   21  N6  MIQ B 502     -13.351  -6.309   5.270  1.00140.95    -0.377 N 
HETATM   22  C7  MIQ B 502     -12.910  -6.731   3.952  1.00142.12     0.149 C 
HETATM   23  C8  MIQ B 502     -13.722  -6.075   2.842  1.00144.10     0.187 C 
HETATM   24  O9  MIQ B 502     -15.099  -6.146   3.062  1.00148.65    -0.388 OA
HETATM   25  C10 MIQ B 502     -15.598  -6.575   4.295  1.00147.44     0.187 C 
HETATM   26  C11 MIQ B 502     -14.776  -6.298   5.550  1.00144.08     0.149 C 
ENDBRANCH   5  21
TORSDOF 2
ENDMDL
MODEL 4
REMARK VINA RESULT:      -6.8      2.375      8.622
REMARK  2 active torsions:
REMARK  status: ('A' for Active; 'I' for Inactive)
REMARK    1  A    between atoms: C5_5  and  N6_21 
REMARK    2  A    between atoms: C18_14  and  N17_19 
ROOT
HETATM    1  O1  MIQ B 502     -14.232  -4.033   6.895  1.00142.91    -0.171 OA
HETATM    2  C2  MIQ B 502     -13.433  -5.118   6.527  1.00141.17     0.195 A 
HETATM    3  C3  MIQ B 502     -12.204  -5.669   7.317  1.00141.71     0.035 A 
HETATM    4  C4  MIQ B 502     -11.546  -5.271   8.585  1.00142.86     0.046 A 
HETATM    5  C5  MIQ B 502     -10.417  -5.984   9.060  1.00139.53     0.031 A 
HETATM    6  C12 MIQ B 502      -9.902  -7.113   8.299  1.00139.38     0.030 A 
HETATM    7  C13 MIQ B 502     -10.533  -7.496   7.085  1.00141.18     0.019 A 
HETATM    8  C14 MIQ B 502     -11.719  -6.745   6.591  1.00138.77     0.033 A 
HETATM    9  C15 MIQ B 502     -12.654  -6.863   5.344  1.00142.10     0.195 A 
HETATM   10  N17 MIQ B 502     -13.547  -5.894   5.463  1.00139.42    -0.288 N 
HETATM   11  O16 MIQ B 502     -12.560  -7.802   4.315  1.00148.93    -0.171 OA
ENDROOT
BRANCH  10  12
HETATM   12  C18 MIQ B 502     -14.578  -5.688   4.463  1.00139.82     0.187 C 
HETATM   13  C19 MIQ B 502     -15.245  -7.042   4.192  1.00140.06     0.247 C 
HETATM   14  O25 MIQ B 502     -15.635  -7.684   5.101  1.00143.95    -0.271 OA
HETATM   15  N20 MIQ B 502     -15.415  -7.554   2.848  1.00140.02    -0.296 N 
HETATM   16  H13 MIQ B 502     -15.846  -8.443   2.685  1.00142.77     0.171 HD
HETATM   17  C21 MIQ B 502     -14.920  -6.757   1.755  1.00142.22     0.224 C 
HETATM   18  C22 MIQ B 502     -13.672  -5.938   2.019  1.00139.52     0.106 C 
HETATM   19  O24 MIQ B 502     -15.466  -6.740   0.707  1.00146.13    -0.273 OA
HETATM   20  C23 MIQ B 502     -13.983  -5.049   3.209  1.00139.15     0.045 C 
ENDBRANCH  10  12
BRANCH   5  21
HETATM   21  N6  MIQ B 502      -9.773  -5.575  10.295  1.00140.95    -0.377 N 
HETATM   22  C7  MIQ B 502     -10.526  -4.761  11.234  1.00142.12     0.149 C 
HETATM   23  C8  MIQ B 502      -9.615  -3.899  12.098  1.00144.10     0.187 C 
HETATM   24  O9  MIQ B 502      -8.551  -4.616  12.650  1.00148.65    -0.388 OA
HETATM   25  C10 MIQ B 502      -8.280  -5.918  12.224  1.00147.44     0.187 C 
HETATM   26  C11 MIQ B 502      -8.615  -6.300  10.785  1.00144.08     0.149 C 
ENDBRANCH   5  21
TORSDOF 2
ENDMDL
MODEL 5
REMARK VINA RESULT:      -6.8      2.230      8.593
REMARK  2 active torsions:
REMARK  status: ('A' for Active; 'I' for Inactive)
REMARK    1  A    between atoms: C5_5  and  N6_21 
REMARK    2  A    between atoms: C18_14  and  N17_19 
ROOT
HETATM    1  O1  MIQ B 502     -14.586  -4.647   7.353  1.00142.91    -0.171 OA
HETATM    2  C2  MIQ B 502     -13.570  -5.473   6.865  1.00141.17     0.195 A 
HETATM    3  C3  MIQ B 502     -12.328  -5.978   7.666  1.00141.71     0.035 A 
HETATM    4  C4  MIQ B 502     -11.863  -5.777   9.059  1.00142.86     0.046 A 
HETATM    5  C5  MIQ B 502     -10.663  -6.383   9.509  1.00139.53     0.031 A 
HETATM    6  C12 MIQ B 502      -9.884  -7.208   8.596  1.00139.38     0.030 A 
HETATM    7  C13 MIQ B 502     -10.330  -7.402   7.261  1.00141.18     0.019 A 
HETATM    8  C14 MIQ B 502     -11.592  -6.765   6.795  1.00138.77     0.033 A 
HETATM    9  C15 MIQ B 502     -12.382  -6.749   5.446  1.00142.10     0.195 A 
HETATM   10  N17 MIQ B 502     -13.448  -5.994   5.656  1.00139.42    -0.288 N 
HETATM   11  O16 MIQ B 502     -12.029  -7.399   4.263  1.00148.93    -0.171 OA
ENDROOT
BRANCH  10  12
HETATM   12  C18 MIQ B 502     -14.414  -5.738   4.604  1.00139.82     0.187 C 
HETATM   13  C19 MIQ B 502     -14.809  -7.088   3.994  1.00140.06     0.247 C 
HETATM   14  O25 MIQ B 502     -15.154  -7.963   4.705  1.00143.95    -0.271 OA
HETATM   15  N20 MIQ B 502     -14.776  -7.319   2.564  1.00140.02    -0.296 N 
HETATM   16  H13 MIQ B 502     -15.030  -8.207   2.178  1.00142.77     0.171 HD
HETATM   17  C21 MIQ B 502     -14.341  -6.239   1.716  1.00142.22     0.224 C 
HETATM   18  C22 MIQ B 502     -13.281  -5.314   2.282  1.00139.52     0.106 C 
HETATM   19  O24 MIQ B 502     -14.793  -6.080   0.636  1.00146.13    -0.273 OA
HETATM   20  C23 MIQ B 502     -13.839  -4.760   3.580  1.00139.15     0.045 C 
ENDBRANCH  10  12
BRANCH   5  21
HETATM   21  N6  MIQ B 502     -10.212  -6.165  10.871  1.00140.95    -0.377 N 
HETATM   22  C7  MIQ B 502      -8.870  -5.649  11.085  1.00142.12     0.149 C 
HETATM   23  C8  MIQ B 502      -8.310  -6.065  12.438  1.00144.10     0.187 C 
HETATM   24  O9  MIQ B 502      -9.206  -5.850  13.487  1.00148.65    -0.388 OA
HETATM   25  C10 MIQ B 502     -10.536  -5.511  13.224  1.00147.44     0.187 C 
HETATM   26  C11 MIQ B 502     -11.182  -6.032  11.944  1.00144.08     0.149 C 
ENDBRANCH   5  21
TORSDOF 2
ENDMDL
MODEL 6
REMARK VINA RESULT:      -6.8      1.552      2.736
REMARK  2 active torsions:
REMARK  status: ('A' for Active; 'I' for Inactive)
REMARK    1  A    between atoms: C5_5  and  N6_21 
REMARK    2  A    between atoms: C18_14  and  N17_19 
ROOT
HETATM    1  O1  MIQ B 502     -11.933  -4.075  10.871  1.00142.91    -0.171 OA
HETATM    2  C2  MIQ B 502     -11.180  -5.035  10.191  1.00141.17     0.195 A 
HETATM    3  C3  MIQ B 502     -11.494  -5.623   8.779  1.00141.71     0.035 A 
HETATM    4  C4  MIQ B 502     -12.574  -5.384   7.793  1.00142.86     0.046 A 
HETATM    5  C5  MIQ B 502     -12.590  -6.088   6.562  1.00139.53     0.031 A 
HETATM    6  C12 MIQ B 502     -11.539  -7.051   6.267  1.00139.38     0.030 A 
HETATM    7  C13 MIQ B 502     -10.502  -7.279   7.211  1.00141.18     0.019 A 
HETATM    8  C14 MIQ B 502     -10.489  -6.535   8.500  1.00138.77     0.033 A 
HETATM    9  C15 MIQ B 502      -9.545  -6.513   9.747  1.00142.10     0.195 A 
HETATM   10  N17 MIQ B 502     -10.067  -5.632  10.584  1.00139.42    -0.288 N 
HETATM   11  O16 MIQ B 502      -8.389  -7.272   9.934  1.00148.93    -0.171 OA
ENDROOT
BRANCH  10  12
HETATM   12  C18 MIQ B 502      -9.457  -5.357  11.872  1.00139.82     0.187 C 
HETATM   13  C19 MIQ B 502     -10.539  -5.524  12.947  1.00140.06     0.247 C 
HETATM   14  O25 MIQ B 502     -11.183  -6.511  12.966  1.00143.95    -0.271 OA
HETATM   15  N20 MIQ B 502     -10.788  -4.503  13.944  1.00140.02    -0.296 N 
HETATM   16  H13 MIQ B 502     -11.501  -4.622  14.636  1.00142.77     0.171 HD
HETATM   17  C21 MIQ B 502      -9.995  -3.302  13.893  1.00142.22     0.224 C 
HETATM   18  C22 MIQ B 502      -9.574  -2.822  12.517  1.00139.52     0.106 C 
HETATM   19  O24 MIQ B 502      -9.684  -2.724  14.876  1.00146.13    -0.273 OA
HETATM   20  C23 MIQ B 502      -8.818  -3.969  11.872  1.00139.15     0.045 C 
ENDBRANCH  10  12
BRANCH   5  21
HETATM   21  N6  MIQ B 502     -13.663  -5.855   5.612  1.00140.95    -0.377 N 
HETATM   22  C7  MIQ B 502     -14.662  -4.848   5.926  1.00142.12     0.149 C 
HETATM   23  C8  MIQ B 502     -15.994  -5.138   5.247  1.00144.10     0.187 C 
HETATM   24  O9  MIQ B 502     -15.858  -5.442   3.891  1.00148.65    -0.388 OA
HETATM   25  C10 MIQ B 502     -14.595  -5.670   3.340  1.00147.44     0.187 C 
HETATM   26  C11 MIQ B 502     -13.509  -6.268   4.228  1.00144.08     0.149 C 
ENDBRANCH   5  21
TORSDOF 2
ENDMDL
MODEL 7
REMARK VINA RESULT:      -6.7      3.332      8.136
REMARK  2 active torsions:
REMARK  status: ('A' for Active; 'I' for Inactive)
REMARK    1  A    between atoms: C5_5  and  N6_21 
REMARK    2  A    between atoms: C18_14  and  N17_19 
ROOT
HETATM    1  O1  MIQ B 502     -14.250  -3.829   7.281  1.00142.91    -0.171 OA
HETATM    2  C2  MIQ B 502     -13.513  -4.932   6.845  1.00141.17     0.195 A 
HETATM    3  C3  MIQ B 502     -12.257  -5.538   7.548  1.00141.71     0.035 A 
HETATM    4  C4  MIQ B 502     -11.509  -5.188   8.778  1.00142.86     0.046 A 
HETATM    5  C5  MIQ B 502     -10.378  -5.947   9.170  1.00139.53     0.031 A 
HETATM    6  C12 MIQ B 502      -9.950  -7.078   8.359  1.00139.38     0.030 A 
HETATM    7  C13 MIQ B 502     -10.667  -7.415   7.180  1.00141.18     0.019 A 
HETATM    8  C14 MIQ B 502     -11.856  -6.616   6.774  1.00138.77     0.033 A 
HETATM    9  C15 MIQ B 502     -12.869  -6.679   5.585  1.00142.10     0.195 A 
HETATM   10  N17 MIQ B 502     -13.719  -5.683   5.776  1.00139.42    -0.288 N 
HETATM   11  O16 MIQ B 502     -12.870  -7.600   4.536  1.00148.93    -0.171 OA
ENDROOT
BRANCH  10  12
HETATM   12  C18 MIQ B 502     -14.802  -5.423   4.847  1.00139.82     0.187 C 
HETATM   13  C19 MIQ B 502     -14.703  -3.956   4.412  1.00140.06     0.247 C 
HETATM   14  O25 MIQ B 502     -13.673  -3.541   4.014  1.00143.95    -0.271 OA
HETATM   15  N20 MIQ B 502     -15.843  -3.064   4.469  1.00140.02    -0.296 N 
HETATM   16  H13 MIQ B 502     -15.763  -2.106   4.188  1.00142.77     0.171 HD
HETATM   17  C21 MIQ B 502     -17.087  -3.590   4.968  1.00142.22     0.224 C 
HETATM   18  C22 MIQ B 502     -16.994  -4.647   6.051  1.00139.52     0.106 C 
HETATM   19  O24 MIQ B 502     -18.127  -3.219   4.548  1.00146.13    -0.273 OA
HETATM   20  C23 MIQ B 502     -16.146  -5.771   5.485  1.00139.15     0.045 C 
ENDBRANCH  10  12
BRANCH   5  21
HETATM   21  N6  MIQ B 502      -9.646  -5.583  10.370  1.00140.95    -0.377 N 
HETATM   22  C7  MIQ B 502     -10.237  -4.614  11.277  1.00142.12     0.149 C 
HETATM   23  C8  MIQ B 502      -9.179  -3.865  12.078  1.00144.10     0.187 C 
HETATM   24  O9  MIQ B 502      -8.227  -4.713  12.647  1.00148.65    -0.388 OA
HETATM   25  C10 MIQ B 502      -8.175  -6.062  12.286  1.00147.44     0.187 C 
HETATM   26  C11 MIQ B 502      -8.603  -6.457  10.877  1.00144.08     0.149 C 
ENDBRANCH   5  21
TORSDOF 2
ENDMDL
MODEL 8
REMARK VINA RESULT:      -6.7      2.406      8.704
REMARK  2 active torsions:
REMARK  status: ('A' for Active; 'I' for Inactive)
REMARK    1  A    between atoms: C5_5  and  N6_21 
REMARK    2  A    between atoms: C18_14  and  N17_19 
ROOT
HETATM    1  O1  MIQ B 502     -14.151  -5.188   5.673  1.00142.91    -0.171 OA
HETATM    2  C2  MIQ B 502     -13.093  -6.089   5.814  1.00141.17     0.195 A 
HETATM    3  C3  MIQ B 502     -12.090  -6.155   7.010  1.00141.71     0.035 A 
HETATM    4  C4  MIQ B 502     -11.943  -5.373   8.260  1.00142.86     0.046 A 
HETATM    5  C5  MIQ B 502     -10.907  -5.678   9.178  1.00139.53     0.031 A 
HETATM    6  C12 MIQ B 502      -9.983  -6.766   8.890  1.00139.38     0.030 A 
HETATM    7  C13 MIQ B 502     -10.125  -7.516   7.692  1.00141.18     0.019 A 
HETATM    8  C14 MIQ B 502     -11.216  -7.193   6.733  1.00138.77     0.033 A 
HETATM    9  C15 MIQ B 502     -11.679  -7.776   5.357  1.00142.10     0.195 A 
HETATM   10  N17 MIQ B 502     -12.726  -7.056   4.990  1.00139.42    -0.288 N 
HETATM   11  O16 MIQ B 502     -11.099  -8.838   4.662  1.00148.93    -0.171 OA
ENDROOT
BRANCH  10  12
HETATM   12  C18 MIQ B 502     -13.416  -7.306   3.738  1.00139.82     0.187 C 
HETATM   13  C19 MIQ B 502     -13.507  -5.977   2.980  1.00140.06     0.247 C 
HETATM   14  O25 MIQ B 502     -12.530  -5.335   2.823  1.00143.95    -0.271 OA
HETATM   15  N20 MIQ B 502     -14.761  -5.487   2.444  1.00140.02    -0.296 N 
HETATM   16  H13 MIQ B 502     -14.808  -4.614   1.956  1.00142.77     0.171 HD
HETATM   17  C21 MIQ B 502     -15.942  -6.284   2.657  1.00142.22     0.224 C 
HETATM   18  C22 MIQ B 502     -16.014  -7.061   3.957  1.00139.52     0.106 C 
HETATM   19  O24 MIQ B 502     -16.808  -6.331   1.854  1.00146.13    -0.273 OA
HETATM   20  C23 MIQ B 502     -14.780  -7.943   4.001  1.00139.15     0.045 C 
ENDBRANCH  10  12
BRANCH   5  21
HETATM   21  N6  MIQ B 502     -10.765  -4.895  10.392  1.00140.95    -0.377 N 
HETATM   22  C7  MIQ B 502     -11.955  -4.606  11.175  1.00142.12     0.149 C 
HETATM   23  C8  MIQ B 502     -11.806  -3.323  11.983  1.00144.10     0.187 C 
HETATM   24  O9  MIQ B 502     -10.600  -3.259  12.683  1.00148.65    -0.388 OA
HETATM   25  C10 MIQ B 502      -9.588  -4.191  12.438  1.00147.44     0.187 C 
HETATM   26  C11 MIQ B 502      -9.469  -4.787  11.039  1.00144.08     0.149 C 
ENDBRANCH   5  21
TORSDOF 2
ENDMDL
MODEL 9
REMARK VINA RESULT:      -6.6      2.932      9.495
REMARK  2 active torsions:
REMARK  status: ('A' for Active; 'I' for Inactive)
REMARK    1  A    between atoms: C5_5  and  N6_21 
REMARK    2  A    between atoms: C18_14  and  N17_19 
ROOT
HETATM    1  O1  MIQ B 502     -15.646  -5.526   5.526  1.00142.91    -0.171 OA
HETATM    2  C2  MIQ B 502     -14.656  -6.344   4.978  1.00141.17     0.195 A 
HETATM    3  C3  MIQ B 502     -13.297  -6.724   5.649  1.00141.71     0.035 A 
HETATM    4  C4  MIQ B 502     -12.673  -6.384   6.950  1.00142.86     0.046 A 
HETATM    5  C5  MIQ B 502     -11.395  -6.896   7.287  1.00139.53     0.031 A 
HETATM    6  C12 MIQ B 502     -10.692  -7.760   6.349  1.00139.38     0.030 A 
HETATM    7  C13 MIQ B 502     -11.290  -8.087   5.103  1.00141.18     0.019 A 
HETATM    8  C14 MIQ B 502     -12.634  -7.548   4.755  1.00138.77     0.033 A 
HETATM    9  C15 MIQ B 502     -13.586  -7.683   3.522  1.00142.10     0.195 A 
HETATM   10  N17 MIQ B 502     -14.657  -6.960   3.808  1.00139.42    -0.288 N 
HETATM   11  O16 MIQ B 502     -13.348  -8.415   2.358  1.00148.93    -0.171 OA
ENDROOT
BRANCH  10  12
HETATM   12  C18 MIQ B 502     -15.760  -6.838   2.873  1.00139.82     0.187 C 
HETATM   13  C19 MIQ B 502     -16.220  -8.254   2.505  1.00140.06     0.247 C 
HETATM   14  O25 MIQ B 502     -16.456  -9.025   3.366  1.00143.95    -0.271 OA
HETATM   15  N20 MIQ B 502     -16.379  -8.672   1.127  1.00140.02    -0.296 N 
HETATM   16  H13 MIQ B 502     -16.674  -9.601   0.900  1.00142.77     0.171 HD
HETATM   17  C21 MIQ B 502     -16.075  -7.717   0.093  1.00142.22     0.224 C 
HETATM   18  C22 MIQ B 502     -14.957  -6.733   0.382  1.00139.52     0.106 C 
HETATM   19  O24 MIQ B 502     -16.671  -7.699  -0.927  1.00146.13    -0.273 OA
HETATM   20  C23 MIQ B 502     -15.340  -6.009   1.660  1.00139.15     0.045 C 
ENDBRANCH  10  12
BRANCH   5  21
HETATM   21  N6  MIQ B 502     -10.789  -6.543   8.558  1.00140.95    -0.377 N 
HETATM   22  C7  MIQ B 502     -11.592  -5.828   9.535  1.00142.12     0.149 C 
HETATM   23  C8  MIQ B 502     -10.734  -4.987  10.472  1.00144.10     0.187 C 
HETATM   24  O9  MIQ B 502      -9.647  -5.693  10.993  1.00148.65    -0.388 OA
HETATM   25  C10 MIQ B 502      -9.311  -6.950  10.485  1.00147.44     0.187 C 
HETATM   26  C11 MIQ B 502      -9.607  -7.248   9.019  1.00144.08     0.149 C 
ENDBRANCH   5  21
TORSDOF 2
ENDMDL
