MODEL 1
REMARK VINA RESULT:      -6.6      0.000      0.000
REMARK  2 active torsions:
REMARK  status: ('A' for Active; 'I' for Inactive)
REMARK    1  A    between atoms: C5_5  and  N6_21 
REMARK    2  A    between atoms: C18_14  and  N17_19 
ROOT
HETATM    1  O1  MIQ B 502     -12.594  14.358 -11.460  1.00142.91    -0.171 OA
HETATM    2  C2  MIQ B 502     -13.448  15.394 -11.847  1.00141.17     0.195 A 
HETATM    3  C3  MIQ B 502     -15.002  15.307 -11.979  1.00141.71     0.035 A 
HETATM    4  C4  MIQ B 502     -15.984  14.219 -11.760  1.00142.86     0.046 A 
HETATM    5  C5  MIQ B 502     -17.368  14.451 -11.966  1.00139.53     0.031 A 
HETATM    6  C12 MIQ B 502     -17.824  15.765 -12.396  1.00139.38     0.030 A 
HETATM    7  C13 MIQ B 502     -16.883  16.808 -12.605  1.00141.18     0.019 A 
HETATM    8  C14 MIQ B 502     -15.432  16.560 -12.384  1.00138.77     0.033 A 
HETATM    9  C15 MIQ B 502     -14.138  17.430 -12.503  1.00142.10     0.195 A 
HETATM   10  N17 MIQ B 502     -13.133  16.636 -12.170  1.00139.42    -0.288 N 
HETATM   11  O16 MIQ B 502     -14.063  18.770 -12.887  1.00148.93    -0.171 OA
ENDROOT
BRANCH  10  12
HETATM   12  C18 MIQ B 502     -11.760  17.107 -12.182  1.00139.82     0.187 C 
HETATM   13  C19 MIQ B 502     -10.938  16.128 -13.029  1.00140.06     0.247 C 
HETATM   14  O25 MIQ B 502     -11.315  15.845 -14.110  1.00143.95    -0.271 OA
HETATM   15  N20 MIQ B 502      -9.704  15.545 -12.542  1.00140.02    -0.296 N 
HETATM   16  H13 MIQ B 502      -9.180  14.903 -13.103  1.00142.77     0.171 HD
HETATM   17  C21 MIQ B 502      -9.270  15.899 -11.215  1.00142.22     0.224 C 
HETATM   18  C22 MIQ B 502     -10.355  16.154 -10.188  1.00139.52     0.106 C 
HETATM   19  O24 MIQ B 502      -8.123  15.991 -10.945  1.00146.13    -0.273 OA
HETATM   20  C23 MIQ B 502     -11.236  17.253 -10.754  1.00139.15     0.045 C 
ENDBRANCH  10  12
BRANCH   5  21
HETATM   21  N6  MIQ B 502     -18.317  13.372 -11.762  1.00140.95    -0.377 N 
HETATM   22  C7  MIQ B 502     -18.971  13.258 -10.470  1.00142.12     0.149 C 
HETATM   23  C8  MIQ B 502     -19.392  11.825 -10.171  1.00144.10     0.187 C 
HETATM   24  O9  MIQ B 502     -20.065  11.222 -11.235  1.00148.65    -0.388 OA
HETATM   25  C10 MIQ B 502     -20.103  11.839 -12.488  1.00147.44     0.187 C 
HETATM   26  C11 MIQ B 502     -18.928  12.717 -12.906  1.00144.08     0.149 C 
ENDBRANCH   5  21
TORSDOF 2
ENDMDL
MODEL 2
REMARK VINA RESULT:      -6.6      2.170      3.700
REMARK  2 active torsions:
REMARK  status: ('A' for Active; 'I' for Inactive)
REMARK    1  A    between atoms: C5_5  and  N6_21 
REMARK    2  A    between atoms: C18_14  and  N17_19 
ROOT
HETATM    1  O1  MIQ B 502     -11.448  17.542 -14.275  1.00142.91    -0.171 OA
HETATM    2  C2  MIQ B 502     -11.314  16.907 -13.038  1.00141.17     0.195 A 
HETATM    3  C3  MIQ B 502     -12.421  16.093 -12.295  1.00141.71     0.035 A 
HETATM    4  C4  MIQ B 502     -13.828  15.754 -12.618  1.00142.86     0.046 A 
HETATM    5  C5  MIQ B 502     -14.602  14.976 -11.722  1.00139.53     0.031 A 
HETATM    6  C12 MIQ B 502     -14.011  14.505 -10.477  1.00139.38     0.030 A 
HETATM    7  C13 MIQ B 502     -12.662  14.829 -10.167  1.00141.18     0.019 A 
HETATM    8  C14 MIQ B 502     -11.853  15.645 -11.113  1.00138.77     0.033 A 
HETATM    9  C15 MIQ B 502     -10.385  16.184 -11.123  1.00142.10     0.195 A 
HETATM   10  N17 MIQ B 502     -10.251  16.856 -12.254  1.00139.42    -0.288 N 
HETATM   11  O16 MIQ B 502      -9.419  15.993 -10.134  1.00148.93    -0.171 OA
ENDROOT
BRANCH  10  12
HETATM   12  C18 MIQ B 502      -9.006  17.517 -12.599  1.00139.82     0.187 C 
HETATM   13  C19 MIQ B 502      -7.882  16.479 -12.500  1.00140.06     0.247 C 
HETATM   14  O25 MIQ B 502      -8.001  15.446 -13.058  1.00143.95    -0.271 OA
HETATM   15  N20 MIQ B 502      -6.672  16.732 -11.744  1.00140.02    -0.296 N 
HETATM   16  H13 MIQ B 502      -5.949  16.043 -11.682  1.00142.77     0.171 HD
HETATM   17  C21 MIQ B 502      -6.555  17.996 -11.063  1.00142.22     0.224 C 
HETATM   18  C22 MIQ B 502      -7.836  18.599 -10.520  1.00139.52     0.106 C 
HETATM   19  O24 MIQ B 502      -5.511  18.536 -10.939  1.00146.13    -0.273 OA
HETATM   20  C23 MIQ B 502      -8.783  18.732 -11.699  1.00139.15     0.045 C 
ENDBRANCH  10  12
BRANCH   5  21
HETATM   21  N6  MIQ B 502     -15.982  14.664 -12.044  1.00140.95    -0.377 N 
HETATM   22  C7  MIQ B 502     -16.398  14.711 -13.435  1.00142.12     0.149 C 
HETATM   23  C8  MIQ B 502     -17.886  15.008 -13.575  1.00144.10     0.187 C 
HETATM   24  O9  MIQ B 502     -18.678  14.215 -12.742  1.00148.65    -0.388 OA
HETATM   25  C10 MIQ B 502     -18.092  13.428 -11.747  1.00147.44     0.187 C 
HETATM   26  C11 MIQ B 502     -16.794  13.909 -11.106  1.00144.08     0.149 C 
ENDBRANCH   5  21
TORSDOF 2
ENDMDL
MODEL 3
REMARK VINA RESULT:      -6.3      3.361      9.703
REMARK  2 active torsions:
REMARK  status: ('A' for Active; 'I' for Inactive)
REMARK    1  A    between atoms: C5_5  and  N6_21 
REMARK    2  A    between atoms: C18_14  and  N17_19 
ROOT
HETATM    1  O1  MIQ B 502     -11.081  18.237  -9.210  1.00142.91    -0.171 OA
HETATM    2  C2  MIQ B 502     -10.736  17.428 -10.295  1.00141.17     0.195 A 
HETATM    3  C3  MIQ B 502      -9.304  17.247 -10.891  1.00141.71     0.035 A 
HETATM    4  C4  MIQ B 502      -7.976  17.806 -10.542  1.00142.86     0.046 A 
HETATM    5  C5  MIQ B 502      -6.827  17.443 -11.288  1.00139.53     0.031 A 
HETATM    6  C12 MIQ B 502      -6.952  16.513 -12.401  1.00139.38     0.030 A 
HETATM    7  C13 MIQ B 502      -8.224  15.976 -12.736  1.00141.18     0.019 A 
HETATM    8  C14 MIQ B 502      -9.427  16.360 -11.948  1.00138.77     0.033 A 
HETATM    9  C15 MIQ B 502     -10.945  15.988 -12.008  1.00142.10     0.195 A 
HETATM   10  N17 MIQ B 502     -11.525  16.660 -11.027  1.00139.42    -0.288 N 
HETATM   11  O16 MIQ B 502     -11.558  15.123 -12.916  1.00148.93    -0.171 OA
ENDROOT
BRANCH  10  12
HETATM   12  C18 MIQ B 502     -12.953  16.571 -10.789  1.00139.82     0.187 C 
HETATM   13  C19 MIQ B 502     -13.311  15.087 -10.642  1.00140.06     0.247 C 
HETATM   14  O25 MIQ B 502     -12.696  14.418  -9.890  1.00143.95    -0.271 OA
HETATM   15  N20 MIQ B 502     -14.388  14.482 -11.399  1.00140.02    -0.296 N 
HETATM   16  H13 MIQ B 502     -14.607  13.511 -11.299  1.00142.77     0.171 HD
HETATM   17  C21 MIQ B 502     -15.117  15.317 -12.319  1.00142.22     0.224 C 
HETATM   18  C22 MIQ B 502     -14.333  16.417 -13.009  1.00139.52     0.106 C 
HETATM   19  O24 MIQ B 502     -16.270  15.154 -12.520  1.00146.13    -0.273 OA
HETATM   20  C23 MIQ B 502     -13.724  17.267 -11.909  1.00139.15     0.045 C 
ENDBRANCH  10  12
BRANCH   5  21
HETATM   21  N6  MIQ B 502      -5.535  18.010 -10.944  1.00140.95    -0.377 N 
HETATM   22  C7  MIQ B 502      -4.635  17.233 -10.109  1.00142.12     0.149 C 
HETATM   23  C8  MIQ B 502      -3.681  18.121  -9.321  1.00144.10     0.187 C 
HETATM   24  O9  MIQ B 502      -3.070  19.097 -10.111  1.00148.65    -0.388 OA
HETATM   25  C10 MIQ B 502      -3.509  19.327 -11.418  1.00147.44     0.187 C 
HETATM   26  C11 MIQ B 502      -4.978  19.084 -11.747  1.00144.08     0.149 C 
ENDBRANCH   5  21
TORSDOF 2
ENDMDL
MODEL 4
REMARK VINA RESULT:      -6.3      3.887     10.106
REMARK  2 active torsions:
REMARK  status: ('A' for Active; 'I' for Inactive)
REMARK    1  A    between atoms: C5_5  and  N6_21 
REMARK    2  A    between atoms: C18_14  and  N17_19 
ROOT
HETATM    1  O1  MIQ B 502     -10.023  16.086 -10.122  1.00142.91    -0.171 OA
HETATM    2  C2  MIQ B 502      -9.629  16.922 -11.169  1.00141.17     0.195 A 
HETATM    3  C3  MIQ B 502      -8.196  17.498 -11.399  1.00141.71     0.035 A 
HETATM    4  C4  MIQ B 502      -6.913  17.364 -10.668  1.00142.86     0.046 A 
HETATM    5  C5  MIQ B 502      -5.749  18.024 -11.135  1.00139.53     0.031 A 
HETATM    6  C12 MIQ B 502      -5.814  18.838 -12.341  1.00139.38     0.030 A 
HETATM    7  C13 MIQ B 502      -7.043  18.966 -13.043  1.00141.18     0.019 A 
HETATM    8  C14 MIQ B 502      -8.262  18.269 -12.549  1.00138.77     0.033 A 
HETATM    9  C15 MIQ B 502      -9.745  18.170 -13.035  1.00142.10     0.195 A 
HETATM   10  N17 MIQ B 502     -10.363  17.388 -12.164  1.00139.42    -0.288 N 
HETATM   11  O16 MIQ B 502     -10.299  18.786 -14.158  1.00148.93    -0.171 OA
ENDROOT
BRANCH  10  12
HETATM   12  C18 MIQ B 502     -11.775  17.082 -12.292  1.00139.82     0.187 C 
HETATM   13  C19 MIQ B 502     -12.444  17.391 -10.946  1.00140.06     0.247 C 
HETATM   14  O25 MIQ B 502     -12.265  18.442 -10.442  1.00143.95    -0.271 OA
HETATM   15  N20 MIQ B 502     -13.296  16.428 -10.278  1.00140.02    -0.296 N 
HETATM   16  H13 MIQ B 502     -13.721  16.639  -9.397  1.00142.77     0.171 HD
HETATM   17  C21 MIQ B 502     -13.490  15.148 -10.908  1.00142.22     0.224 C 
HETATM   18  C22 MIQ B 502     -12.320  14.591 -11.696  1.00139.52     0.106 C 
HETATM   19  O24 MIQ B 502     -14.515  14.565 -10.819  1.00146.13    -0.273 OA
HETATM   20  C23 MIQ B 502     -11.967  15.634 -12.740  1.00139.15     0.045 C 
ENDBRANCH  10  12
BRANCH   5  21
HETATM   21  N6  MIQ B 502      -4.504  17.895 -10.401  1.00140.95    -0.377 N 
HETATM   22  C7  MIQ B 502      -4.173  16.608  -9.814  1.00142.12     0.149 C 
HETATM   23  C8  MIQ B 502      -3.261  16.753  -8.603  1.00144.10     0.187 C 
HETATM   24  O9  MIQ B 502      -2.175  17.598  -8.837  1.00148.65    -0.388 OA
HETATM   25  C10 MIQ B 502      -2.122  18.377  -9.996  1.00147.44     0.187 C 
HETATM   26  C11 MIQ B 502      -3.432  18.852 -10.617  1.00144.08     0.149 C 
ENDBRANCH   5  21
TORSDOF 2
ENDMDL
MODEL 5
REMARK VINA RESULT:      -6.2      1.950      7.823
REMARK  2 active torsions:
REMARK  status: ('A' for Active; 'I' for Inactive)
REMARK    1  A    between atoms: C5_5  and  N6_21 
REMARK    2  A    between atoms: C18_14  and  N17_19 
ROOT
HETATM    1  O1  MIQ B 502     -15.981  12.936 -12.735  1.00142.91    -0.171 OA
HETATM    2  C2  MIQ B 502     -16.130  14.324 -12.706  1.00141.17     0.195 A 
HETATM    3  C3  MIQ B 502     -15.003  15.366 -12.417  1.00141.71     0.035 A 
HETATM    4  C4  MIQ B 502     -13.557  15.246 -12.115  1.00142.86     0.046 A 
HETATM    5  C5  MIQ B 502     -12.772  16.406 -11.895  1.00139.53     0.031 A 
HETATM    6  C12 MIQ B 502     -13.390  17.722 -11.969  1.00139.38     0.030 A 
HETATM    7  C13 MIQ B 502     -14.776  17.837 -12.260  1.00141.18     0.019 A 
HETATM    8  C14 MIQ B 502     -15.595  16.616 -12.492  1.00138.77     0.033 A 
HETATM    9  C15 MIQ B 502     -17.098  16.349 -12.829  1.00142.10     0.195 A 
HETATM   10  N17 MIQ B 502     -17.224  15.035 -12.916  1.00139.42    -0.288 N 
HETATM   11  O16 MIQ B 502     -18.099  17.306 -13.001  1.00148.93    -0.171 OA
ENDROOT
BRANCH  10  12
HETATM   12  C18 MIQ B 502     -18.504  14.414 -13.204  1.00139.82     0.187 C 
HETATM   13  C19 MIQ B 502     -18.747  13.330 -12.147  1.00140.06     0.247 C 
HETATM   14  O25 MIQ B 502     -18.639  13.605 -11.005  1.00143.95    -0.271 OA
HETATM   15  N20 MIQ B 502     -19.113  11.977 -12.511  1.00140.02    -0.296 N 
HETATM   16  H13 MIQ B 502     -19.263  11.277 -11.812  1.00142.77     0.171 HD
HETATM   17  C21 MIQ B 502     -19.229  11.663 -13.912  1.00142.22     0.224 C 
HETATM   18  C22 MIQ B 502     -18.289  12.391 -14.854  1.00139.52     0.106 C 
HETATM   19  O24 MIQ B 502     -20.022  10.881 -14.306  1.00146.13    -0.273 OA
HETATM   20  C23 MIQ B 502     -18.523  13.875 -14.634  1.00139.15     0.045 C 
ENDBRANCH  10  12
BRANCH   5  21
HETATM   21  N6  MIQ B 502     -11.360  16.273 -11.585  1.00140.95    -0.377 N 
HETATM   22  C7  MIQ B 502     -10.981  15.768 -10.276  1.00142.12     0.149 C 
HETATM   23  C8  MIQ B 502      -9.606  16.267  -9.851  1.00144.10     0.187 C 
HETATM   24  O9  MIQ B 502      -8.641  16.120 -10.849  1.00148.65    -0.388 OA
HETATM   25  C10 MIQ B 502      -9.016  15.768 -12.149  1.00147.44     0.187 C 
HETATM   26  C11 MIQ B 502     -10.384  16.210 -12.658  1.00144.08     0.149 C 
ENDBRANCH   5  21
TORSDOF 2
ENDMDL
MODEL 6
REMARK VINA RESULT:      -6.1      2.097      8.207
REMARK  2 active torsions:
REMARK  status: ('A' for Active; 'I' for Inactive)
REMARK    1  A    between atoms: C5_5  and  N6_21 
REMARK    2  A    between atoms: C18_14  and  N17_19 
ROOT
HETATM    1  O1  MIQ B 502     -14.934  16.437 -14.763  1.00142.91    -0.171 OA
HETATM    2  C2  MIQ B 502     -14.974  15.815 -13.513  1.00141.17     0.195 A 
HETATM    3  C3  MIQ B 502     -13.783  15.679 -12.512  1.00141.71     0.035 A 
HETATM    4  C4  MIQ B 502     -12.368  16.117 -12.546  1.00142.86     0.046 A 
HETATM    5  C5  MIQ B 502     -11.505  15.840 -11.456  1.00139.53     0.031 A 
HETATM    6  C12 MIQ B 502     -12.014  15.123 -10.296  1.00139.38     0.030 A 
HETATM    7  C13 MIQ B 502     -13.371  14.704 -10.262  1.00141.18     0.019 A 
HETATM    8  C14 MIQ B 502     -14.273  14.999 -11.408  1.00138.77     0.033 A 
HETATM    9  C15 MIQ B 502     -15.777  14.712 -11.726  1.00142.10     0.195 A 
HETATM   10  N17 MIQ B 502     -16.003  15.231 -12.922  1.00139.42    -0.288 N 
HETATM   11  O16 MIQ B 502     -16.691  14.043 -10.910  1.00148.93    -0.171 OA
ENDROOT
BRANCH  10  12
HETATM   12  C18 MIQ B 502     -17.306  15.138 -13.554  1.00139.82     0.187 C 
HETATM   13  C19 MIQ B 502     -18.340  15.716 -12.580  1.00140.06     0.247 C 
HETATM   14  O25 MIQ B 502     -18.154  16.780 -12.107  1.00143.95    -0.271 OA
HETATM   15  N20 MIQ B 502     -19.544  14.992 -12.227  1.00140.02    -0.296 N 
HETATM   16  H13 MIQ B 502     -20.208  15.377 -11.584  1.00142.77     0.171 HD
HETATM   17  C21 MIQ B 502     -19.743  13.690 -12.809  1.00142.22     0.224 C 
HETATM   18  C22 MIQ B 502     -18.500  12.860 -13.064  1.00139.52     0.106 C 
HETATM   19  O24 MIQ B 502     -20.823  13.292 -13.078  1.00146.13    -0.273 OA
HETATM   20  C23 MIQ B 502     -17.600  13.694 -13.957  1.00139.15     0.045 C 
ENDBRANCH  10  12
BRANCH   5  21
HETATM   21  N6  MIQ B 502     -10.117  16.262 -11.510  1.00140.95    -0.377 N 
HETATM   22  C7  MIQ B 502      -9.492  16.750 -10.293  1.00142.12     0.149 C 
HETATM   23  C8  MIQ B 502      -8.350  17.715 -10.587  1.00144.10     0.187 C 
HETATM   24  O9  MIQ B 502      -7.470  17.235 -11.559  1.00148.65    -0.388 OA
HETATM   25  C10 MIQ B 502      -7.792  16.099 -12.306  1.00147.44     0.187 C 
HETATM   26  C11 MIQ B 502      -9.261  15.805 -12.590  1.00144.08     0.149 C 
ENDBRANCH   5  21
TORSDOF 2
ENDMDL
MODEL 7
REMARK VINA RESULT:      -6.1      2.126      7.977
REMARK  2 active torsions:
REMARK  status: ('A' for Active; 'I' for Inactive)
REMARK    1  A    between atoms: C5_5  and  N6_21 
REMARK    2  A    between atoms: C18_14  and  N17_19 
ROOT
HETATM    1  O1  MIQ B 502     -16.746  13.702 -10.541  1.00142.91    -0.171 OA
HETATM    2  C2  MIQ B 502     -16.557  14.439 -11.712  1.00141.17     0.195 A 
HETATM    3  C3  MIQ B 502     -15.219  15.092 -12.185  1.00141.71     0.035 A 
HETATM    4  C4  MIQ B 502     -13.851  15.139 -11.615  1.00142.86     0.046 A 
HETATM    5  C5  MIQ B 502     -12.815  15.827 -12.296  1.00139.53     0.031 A 
HETATM    6  C12 MIQ B 502     -13.097  16.489 -13.561  1.00139.38     0.030 A 
HETATM    7  C13 MIQ B 502     -14.407  16.443 -14.108  1.00141.18     0.019 A 
HETATM    8  C14 MIQ B 502     -15.491  15.717 -13.391  1.00138.77     0.033 A 
HETATM    9  C15 MIQ B 502     -17.006  15.451 -13.669  1.00142.10     0.195 A 
HETATM   10  N17 MIQ B 502     -17.444  14.731 -12.649  1.00139.42    -0.288 N 
HETATM   11  O16 MIQ B 502     -17.744  15.890 -14.770  1.00148.93    -0.171 OA
ENDROOT
BRANCH  10  12
HETATM   12  C18 MIQ B 502     -18.828  14.306 -12.560  1.00139.82     0.187 C 
HETATM   13  C19 MIQ B 502     -19.492  15.107 -11.433  1.00140.06     0.247 C 
HETATM   14  O25 MIQ B 502     -19.390  16.283 -11.425  1.00143.95    -0.271 OA
HETATM   15  N20 MIQ B 502     -20.246  14.461 -10.378  1.00140.02    -0.296 N 
HETATM   16  H13 MIQ B 502     -20.669  14.995  -9.645  1.00142.77     0.171 HD
HETATM   17  C21 MIQ B 502     -20.347  13.025 -10.404  1.00142.22     0.224 C 
HETATM   18  C22 MIQ B 502     -19.151  12.268 -10.948  1.00139.52     0.106 C 
HETATM   19  O24 MIQ B 502     -21.317  12.467 -10.024  1.00146.13    -0.273 OA
HETATM   20  C23 MIQ B 502     -18.909  12.795 -12.351  1.00139.15     0.045 C 
ENDBRANCH  10  12
BRANCH   5  21
HETATM   21  N6  MIQ B 502     -11.484  15.879 -11.719  1.00140.95    -0.377 N 
HETATM   22  C7  MIQ B 502     -10.394  16.391 -12.531  1.00142.12     0.149 C 
HETATM   23  C8  MIQ B 502      -9.049  15.817 -12.105  1.00144.10     0.187 C 
HETATM   24  O9  MIQ B 502      -8.844  15.878 -10.725  1.00148.65    -0.388 OA
HETATM   25  C10 MIQ B 502      -9.894  16.219  -9.869  1.00147.44     0.187 C 
HETATM   26  C11 MIQ B 502     -11.317  15.852 -10.276  1.00144.08     0.149 C 
ENDBRANCH   5  21
TORSDOF 2
ENDMDL
MODEL 8
REMARK VINA RESULT:      -6.1     25.548     26.640
REMARK  2 active torsions:
REMARK  status: ('A' for Active; 'I' for Inactive)
REMARK    1  A    between atoms: C5_5  and  N6_21 
REMARK    2  A    between atoms: C18_14  and  N17_19 
ROOT
HETATM    1  O1  MIQ B 502      -4.398  -4.811 -27.031  1.00142.91    -0.171 OA
HETATM    2  C2  MIQ B 502      -4.563  -5.495 -25.824  1.00141.17     0.195 A 
HETATM    3  C3  MIQ B 502      -5.923  -5.839 -25.138  1.00141.71     0.035 A 
HETATM    4  C4  MIQ B 502      -7.338  -5.587 -25.498  1.00142.86     0.046 A 
HETATM    5  C5  MIQ B 502      -8.384  -6.036 -24.651  1.00139.53     0.031 A 
HETATM    6  C12 MIQ B 502      -8.063  -6.748 -23.423  1.00139.38     0.030 A 
HETATM    7  C13 MIQ B 502      -6.706  -6.991 -23.078  1.00141.18     0.019 A 
HETATM    8  C14 MIQ B 502      -5.613  -6.520 -23.972  1.00138.77     0.033 A 
HETATM    9  C15 MIQ B 502      -4.052  -6.599 -23.934  1.00142.10     0.195 A 
HETATM   10  N17 MIQ B 502      -3.629  -5.989 -25.029  1.00139.42    -0.288 N 
HETATM   11  O16 MIQ B 502      -3.269  -7.191 -22.942  1.00148.93    -0.171 OA
ENDROOT
BRANCH  10  12
HETATM   12  C18 MIQ B 502      -2.214  -5.854 -25.323  1.00139.82     0.187 C 
HETATM   13  C19 MIQ B 502      -1.587  -7.252 -25.251  1.00140.06     0.247 C 
HETATM   14  O25 MIQ B 502      -2.080  -8.137 -25.855  1.00143.95    -0.271 OA
HETATM   15  N20 MIQ B 502      -0.400  -7.516 -24.464  1.00140.02    -0.296 N 
HETATM   16  H13 MIQ B 502      -0.004  -8.434 -24.420  1.00142.77     0.171 HD
HETATM   17  C21 MIQ B 502       0.178  -6.422 -23.726  1.00142.22     0.224 C 
HETATM   18  C22 MIQ B 502      -0.784  -5.385 -23.180  1.00139.52     0.106 C 
HETATM   19  O24 MIQ B 502       1.345  -6.337 -23.561  1.00146.13    -0.273 OA
HETATM   20  C23 MIQ B 502      -1.566  -4.854 -24.368  1.00139.15     0.045 C 
ENDBRANCH  10  12
BRANCH   5  21
HETATM   21  N6  MIQ B 502      -9.765  -5.769 -25.009  1.00140.95    -0.377 N 
HETATM   22  C7  MIQ B 502     -10.783  -6.724 -24.608  1.00142.12     0.149 C 
HETATM   23  C8  MIQ B 502     -11.989  -6.694 -25.537  1.00144.10     0.187 C 
HETATM   24  O9  MIQ B 502     -12.451  -5.400 -25.786  1.00148.65    -0.388 OA
HETATM   25  C10 MIQ B 502     -11.699  -4.291 -25.388  1.00147.44     0.187 C 
HETATM   26  C11 MIQ B 502     -10.180  -4.418 -25.344  1.00144.08     0.149 C 
ENDBRANCH   5  21
TORSDOF 2
ENDMDL
MODEL 9
REMARK VINA RESULT:      -6.1      8.829     13.168
REMARK  2 active torsions:
REMARK  status: ('A' for Active; 'I' for Inactive)
REMARK    1  A    between atoms: C5_5  and  N6_21 
REMARK    2  A    between atoms: C18_14  and  N17_19 
ROOT
HETATM    1  O1  MIQ B 502     -20.270   3.790 -14.290  1.00142.91    -0.171 OA
HETATM    2  C2  MIQ B 502     -19.499   3.807 -13.126  1.00141.17     0.195 A 
HETATM    3  C3  MIQ B 502     -19.400   4.984 -12.103  1.00141.71     0.035 A 
HETATM    4  C4  MIQ B 502     -20.022   6.327 -12.032  1.00142.86     0.046 A 
HETATM    5  C5  MIQ B 502     -19.731   7.195 -10.950  1.00139.53     0.031 A 
HETATM    6  C12 MIQ B 502     -18.815   6.764  -9.904  1.00139.38     0.030 A 
HETATM    7  C13 MIQ B 502     -18.219   5.476  -9.971  1.00141.18     0.019 A 
HETATM    8  C14 MIQ B 502     -18.530   4.568 -11.108  1.00138.77     0.033 A 
HETATM    9  C15 MIQ B 502     -18.088   3.124 -11.515  1.00142.10     0.195 A 
HETATM   10  N17 MIQ B 502     -18.715   2.856 -12.648  1.00139.42    -0.288 N 
HETATM   11  O16 MIQ B 502     -17.208   2.293 -10.820  1.00148.93    -0.171 OA
ENDROOT
BRANCH  10  12
HETATM   12  C18 MIQ B 502     -18.529   1.591 -13.336  1.00139.82     0.187 C 
HETATM   13  C19 MIQ B 502     -18.761   0.467 -12.319  1.00140.06     0.247 C 
HETATM   14  O25 MIQ B 502     -19.745   0.474 -11.668  1.00143.95    -0.271 OA
HETATM   15  N20 MIQ B 502     -17.808  -0.608 -12.138  1.00140.02    -0.296 N 
HETATM   16  H13 MIQ B 502     -17.968  -1.332 -11.466  1.00142.77     0.171 HD
HETATM   17  C21 MIQ B 502     -16.610  -0.589 -12.937  1.00142.22     0.224 C 
HETATM   18  C22 MIQ B 502     -16.042   0.775 -13.279  1.00139.52     0.106 C 
HETATM   19  O24 MIQ B 502     -16.100  -1.588 -13.310  1.00146.13    -0.273 OA
HETATM   20  C23 MIQ B 502     -17.147   1.538 -13.986  1.00139.15     0.045 C 
ENDBRANCH  10  12
BRANCH   5  21
HETATM   21  N6  MIQ B 502     -20.336   8.514 -10.900  1.00140.95    -0.377 N 
HETATM   22  C7  MIQ B 502     -20.536   9.233 -12.146  1.00142.12     0.149 C 
HETATM   23  C8  MIQ B 502     -20.548  10.742 -11.936  1.00144.10     0.187 C 
HETATM   24  O9  MIQ B 502     -21.372  11.137 -10.880  1.00148.65    -0.388 OA
HETATM   25  C10 MIQ B 502     -21.908  10.187 -10.007  1.00147.44     0.187 C 
HETATM   26  C11 MIQ B 502     -21.115   8.912  -9.740  1.00144.08     0.149 C 
ENDBRANCH   5  21
TORSDOF 2
ENDMDL
