MODEL 1
REMARK VINA RESULT:      -7.1      0.000      0.000
REMARK  2 active torsions:
REMARK  status: ('A' for Active; 'I' for Inactive)
REMARK    1  A    between atoms: C5_5  and  N6_21 
REMARK    2  A    between atoms: C18_14  and  N17_19 
ROOT
HETATM    1  O1  MIQ B 502      21.001   4.555   9.114  1.00142.91    -0.171 OA
HETATM    2  C2  MIQ B 502      21.534   3.437   8.469  1.00141.17     0.195 A 
HETATM    3  C3  MIQ B 502      22.253   2.232   9.154  1.00141.71     0.035 A 
HETATM    4  C4  MIQ B 502      22.573   1.904  10.564  1.00142.86     0.046 A 
HETATM    5  C5  MIQ B 502      23.252   0.701  10.884  1.00139.53     0.031 A 
HETATM    6  C12 MIQ B 502      23.636  -0.216   9.821  1.00139.38     0.030 A 
HETATM    7  C13 MIQ B 502      23.328   0.097   8.470  1.00141.18     0.019 A 
HETATM    8  C14 MIQ B 502      22.614   1.360   8.140  1.00138.77     0.033 A 
HETATM    9  C15 MIQ B 502      22.115   2.027   6.817  1.00142.10     0.195 A 
HETATM   10  N17 MIQ B 502      21.540   3.164   7.175  1.00139.42    -0.288 N 
HETATM   11  O16 MIQ B 502      22.253   1.523   5.523  1.00148.93    -0.171 OA
ENDROOT
BRANCH  10  12
HETATM   12  C18 MIQ B 502      20.969   4.066   6.193  1.00139.82     0.187 C 
HETATM   13  C19 MIQ B 502      21.559   5.460   6.439  1.00140.06     0.247 C 
HETATM   14  O25 MIQ B 502      22.729   5.583   6.522  1.00143.95    -0.271 OA
HETATM   15  N20 MIQ B 502      20.719   6.633   6.567  1.00140.02    -0.296 N 
HETATM   16  H13 MIQ B 502      21.116   7.537   6.734  1.00142.77     0.171 HD
HETATM   17  C21 MIQ B 502      19.293   6.455   6.472  1.00142.22     0.224 C 
HETATM   18  C22 MIQ B 502      18.732   5.154   7.011  1.00139.52     0.106 C 
HETATM   19  O24 MIQ B 502      18.598   7.282   5.993  1.00146.13    -0.273 OA
HETATM   20  C23 MIQ B 502      19.443   4.037   6.269  1.00139.15     0.045 C 
ENDBRANCH  10  12
BRANCH   5  21
HETATM   21  N6  MIQ B 502      23.572   0.400  12.268  1.00140.95    -0.377 N 
HETATM   22  C7  MIQ B 502      22.529   0.544  13.269  1.00142.12     0.149 C 
HETATM   23  C8  MIQ B 502      23.103   0.835  14.650  1.00144.10     0.187 C 
HETATM   24  O9  MIQ B 502      24.148  -0.024  14.996  1.00148.65    -0.388 OA
HETATM   25  C10 MIQ B 502      24.710  -0.875  14.041  1.00147.44     0.187 C 
HETATM   26  C11 MIQ B 502      24.722  -0.429  12.583  1.00144.08     0.149 C 
ENDBRANCH   5  21
TORSDOF 2
ENDMDL
MODEL 2
REMARK VINA RESULT:      -7.0      0.344      1.038
REMARK  2 active torsions:
REMARK  status: ('A' for Active; 'I' for Inactive)
REMARK    1  A    between atoms: C5_5  and  N6_21 
REMARK    2  A    between atoms: C18_14  and  N17_19 
ROOT
HETATM    1  O1  MIQ B 502      20.998   4.641   9.131  1.00142.91    -0.171 OA
HETATM    2  C2  MIQ B 502      21.474   3.540   8.416  1.00141.17     0.195 A 
HETATM    3  C3  MIQ B 502      22.175   2.281   9.020  1.00141.71     0.035 A 
HETATM    4  C4  MIQ B 502      22.527   1.875  10.401  1.00142.86     0.046 A 
HETATM    5  C5  MIQ B 502      23.175   0.638  10.641  1.00139.53     0.031 A 
HETATM    6  C12 MIQ B 502      23.496  -0.238   9.523  1.00139.38     0.030 A 
HETATM    7  C13 MIQ B 502      23.158   0.150   8.199  1.00141.18     0.019 A 
HETATM    8  C14 MIQ B 502      22.475   1.449   7.954  1.00138.77     0.033 A 
HETATM    9  C15 MIQ B 502      21.957   2.196   6.681  1.00142.10     0.195 A 
HETATM   10  N17 MIQ B 502      21.431   3.331   7.112  1.00139.42    -0.288 N 
HETATM   11  O16 MIQ B 502      22.039   1.751   5.360  1.00148.93    -0.171 OA
ENDROOT
BRANCH  10  12
HETATM   12  C18 MIQ B 502      20.860   4.297   6.193  1.00139.82     0.187 C 
HETATM   13  C19 MIQ B 502      21.508   5.657   6.481  1.00140.06     0.247 C 
HETATM   14  O25 MIQ B 502      22.684   5.736   6.528  1.00143.95    -0.271 OA
HETATM   15  N20 MIQ B 502      20.716   6.851   6.693  1.00140.02    -0.296 N 
HETATM   16  H13 MIQ B 502      21.151   7.732   6.886  1.00142.77     0.171 HD
HETATM   17  C21 MIQ B 502      19.282   6.727   6.641  1.00142.22     0.224 C 
HETATM   18  C22 MIQ B 502      18.693   5.422   7.140  1.00139.52     0.106 C 
HETATM   19  O24 MIQ B 502      18.601   7.600   6.226  1.00146.13    -0.273 OA
HETATM   20  C23 MIQ B 502      19.337   4.318   6.322  1.00139.15     0.045 C 
ENDBRANCH  10  12
BRANCH   5  21
HETATM   21  N6  MIQ B 502      23.528   0.259  11.997  1.00140.95    -0.377 N 
HETATM   22  C7  MIQ B 502      24.906  -0.103  12.282  1.00142.12     0.149 C 
HETATM   23  C8  MIQ B 502      25.011  -1.051  13.469  1.00144.10     0.187 C 
HETATM   24  O9  MIQ B 502      24.266  -0.626  14.571  1.00148.65    -0.388 OA
HETATM   25  C10 MIQ B 502      23.361   0.431  14.449  1.00147.44     0.187 C 
HETATM   26  C11 MIQ B 502      22.674   0.652  13.105  1.00144.08     0.149 C 
ENDBRANCH   5  21
TORSDOF 2
ENDMDL
MODEL 3
REMARK VINA RESULT:      -6.8      2.942      4.418
REMARK  2 active torsions:
REMARK  status: ('A' for Active; 'I' for Inactive)
REMARK    1  A    between atoms: C5_5  and  N6_21 
REMARK    2  A    between atoms: C18_14  and  N17_19 
ROOT
HETATM    1  O1  MIQ B 502      18.918   3.908   5.227  1.00142.91    -0.171 OA
HETATM    2  C2  MIQ B 502      19.971   4.486   5.940  1.00141.17     0.195 A 
HETATM    3  C3  MIQ B 502      21.055   3.722   6.765  1.00141.71     0.035 A 
HETATM    4  C4  MIQ B 502      21.305   2.286   7.036  1.00142.86     0.046 A 
HETATM    5  C5  MIQ B 502      22.400   1.889   7.844  1.00139.53     0.031 A 
HETATM    6  C12 MIQ B 502      23.284   2.899   8.410  1.00139.38     0.030 A 
HETATM    7  C13 MIQ B 502      23.045   4.275   8.150  1.00141.18     0.019 A 
HETATM    8  C14 MIQ B 502      21.895   4.686   7.299  1.00138.77     0.033 A 
HETATM    9  C15 MIQ B 502      21.329   6.056   6.801  1.00142.10     0.195 A 
HETATM   10  N17 MIQ B 502      20.270   5.767   6.062  1.00139.42    -0.288 N 
HETATM   11  O16 MIQ B 502      21.841   7.323   7.084  1.00148.93    -0.171 OA
ENDROOT
BRANCH  10  12
HETATM   12  C18 MIQ B 502      19.474   6.809   5.441  1.00139.82     0.187 C 
HETATM   13  C19 MIQ B 502      18.022   6.622   5.896  1.00140.06     0.247 C 
HETATM   14  O25 MIQ B 502      17.788   6.517   7.048  1.00143.95    -0.271 OA
HETATM   15  N20 MIQ B 502      16.925   6.576   4.951  1.00140.02    -0.296 N 
HETATM   16  H13 MIQ B 502      15.982   6.447   5.260  1.00142.77     0.171 HD
HETATM   17  C21 MIQ B 502      17.236   6.696   3.550  1.00142.22     0.224 C 
HETATM   18  C22 MIQ B 502      18.555   6.104   3.092  1.00139.52     0.106 C 
HETATM   19  O24 MIQ B 502      16.501   7.234   2.797  1.00146.13    -0.273 OA
HETATM   20  C23 MIQ B 502      19.638   6.769   3.922  1.00139.15     0.045 C 
ENDBRANCH  10  12
BRANCH   5  21
HETATM   21  N6  MIQ B 502      22.625   0.481   8.113  1.00140.95    -0.377 N 
HETATM   22  C7  MIQ B 502      23.404   0.113   9.283  1.00142.12     0.149 C 
HETATM   23  C8  MIQ B 502      24.090  -1.236   9.107  1.00144.10     0.187 C 
HETATM   24  O9  MIQ B 502      23.229  -2.226   8.628  1.00148.65    -0.388 OA
HETATM   25  C10 MIQ B 502      21.957  -1.890   8.159  1.00147.44     0.187 C 
HETATM   26  C11 MIQ B 502      21.752  -0.519   7.522  1.00144.08     0.149 C 
ENDBRANCH   5  21
TORSDOF 2
ENDMDL
MODEL 4
REMARK VINA RESULT:      -6.7      2.503      3.766
REMARK  2 active torsions:
REMARK  status: ('A' for Active; 'I' for Inactive)
REMARK    1  A    between atoms: C5_5  and  N6_21 
REMARK    2  A    between atoms: C18_14  and  N17_19 
ROOT
HETATM    1  O1  MIQ B 502      21.790   7.021   7.259  1.00142.91    -0.171 OA
HETATM    2  C2  MIQ B 502      21.247   5.798   6.857  1.00141.17     0.195 A 
HETATM    3  C3  MIQ B 502      21.771   4.382   7.256  1.00141.71     0.035 A 
HETATM    4  C4  MIQ B 502      22.893   3.911   8.102  1.00142.86     0.046 A 
HETATM    5  C5  MIQ B 502      23.123   2.523   8.280  1.00139.53     0.031 A 
HETATM    6  C12 MIQ B 502      22.250   1.557   7.629  1.00139.38     0.030 A 
HETATM    7  C13 MIQ B 502      21.174   2.008   6.819  1.00141.18     0.019 A 
HETATM    8  C14 MIQ B 502      20.936   3.466   6.637  1.00138.77     0.033 A 
HETATM    9  C15 MIQ B 502      19.888   4.319   5.850  1.00142.10     0.195 A 
HETATM   10  N17 MIQ B 502      20.200   5.584   6.080  1.00139.42    -0.288 N 
HETATM   11  O16 MIQ B 502      18.839   3.838   5.065  1.00148.93    -0.171 OA
ENDROOT
BRANCH  10  12
HETATM   12  C18 MIQ B 502      19.441   6.670   5.490  1.00139.82     0.187 C 
HETATM   13  C19 MIQ B 502      17.980   6.515   5.932  1.00140.06     0.247 C 
HETATM   14  O25 MIQ B 502      17.737   6.379   7.078  1.00143.95    -0.271 OA
HETATM   15  N20 MIQ B 502      16.888   6.535   4.980  1.00140.02    -0.296 N 
HETATM   16  H13 MIQ B 502      15.940   6.426   5.280  1.00142.77     0.171 HD
HETATM   17  C21 MIQ B 502      17.212   6.691   3.585  1.00142.22     0.224 C 
HETATM   18  C22 MIQ B 502      18.514   6.073   3.115  1.00139.52     0.106 C 
HETATM   19  O24 MIQ B 502      16.499   7.277   2.847  1.00146.13    -0.273 OA
HETATM   20  C23 MIQ B 502      19.612   6.675   3.972  1.00139.15     0.045 C 
ENDBRANCH  10  12
BRANCH   5  21
HETATM   21  N6  MIQ B 502      24.234   2.076   9.100  1.00140.95    -0.377 N 
HETATM   22  C7  MIQ B 502      23.981   1.092  10.138  1.00142.12     0.149 C 
HETATM   23  C8  MIQ B 502      24.987   1.193  11.276  1.00144.10     0.187 C 
HETATM   24  O9  MIQ B 502      26.308   1.262  10.829  1.00148.65    -0.388 OA
HETATM   25  C10 MIQ B 502      26.588   1.452   9.473  1.00147.44     0.187 C 
HETATM   26  C11 MIQ B 502      25.598   2.247   8.629  1.00144.08     0.149 C 
ENDBRANCH   5  21
TORSDOF 2
ENDMDL
MODEL 5
REMARK VINA RESULT:      -6.5      2.962      4.050
REMARK  2 active torsions:
REMARK  status: ('A' for Active; 'I' for Inactive)
REMARK    1  A    between atoms: C5_5  and  N6_21 
REMARK    2  A    between atoms: C18_14  and  N17_19 
ROOT
HETATM    1  O1  MIQ B 502      21.189   2.840   4.476  1.00142.91    -0.171 OA
HETATM    2  C2  MIQ B 502      21.342   3.036   5.851  1.00141.17     0.195 A 
HETATM    3  C3  MIQ B 502      21.765   1.954   6.895  1.00141.71     0.035 A 
HETATM    4  C4  MIQ B 502      22.111   0.516   6.789  1.00142.86     0.046 A 
HETATM    5  C5  MIQ B 502      22.466  -0.222   7.947  1.00139.53     0.031 A 
HETATM    6  C12 MIQ B 502      22.490   0.436   9.245  1.00139.38     0.030 A 
HETATM    7  C13 MIQ B 502      22.159   1.815   9.346  1.00141.18     0.019 A 
HETATM    8  C14 MIQ B 502      21.790   2.586   8.127  1.00138.77     0.033 A 
HETATM    9  C15 MIQ B 502      21.382   4.068   7.847  1.00142.10     0.195 A 
HETATM   10  N17 MIQ B 502      21.172   4.149   6.543  1.00139.42    -0.288 N 
HETATM   11  O16 MIQ B 502      21.261   5.094   8.786  1.00148.93    -0.171 OA
ENDROOT
BRANCH  10  12
HETATM   12  C18 MIQ B 502      20.756   5.391   5.918  1.00139.82     0.187 C 
HETATM   13  C19 MIQ B 502      21.701   6.497   6.403  1.00140.06     0.247 C 
HETATM   14  O25 MIQ B 502      22.867   6.334   6.326  1.00143.95    -0.271 OA
HETATM   15  N20 MIQ B 502      21.202   7.743   6.949  1.00140.02    -0.296 N 
HETATM   16  H13 MIQ B 502      21.829   8.455   7.268  1.00142.77     0.171 HD
HETATM   17  C21 MIQ B 502      19.775   7.914   7.043  1.00142.22     0.224 C 
HETATM   18  C22 MIQ B 502      18.956   6.670   7.327  1.00139.52     0.106 C 
HETATM   19  O24 MIQ B 502      19.269   8.973   6.900  1.00146.13    -0.273 OA
HETATM   20  C23 MIQ B 502      19.287   5.676   6.228  1.00139.15     0.045 C 
ENDBRANCH  10  12
BRANCH   5  21
HETATM   21  N6  MIQ B 502      22.788  -1.633   7.831  1.00140.95    -0.377 N 
HETATM   22  C7  MIQ B 502      21.718  -2.604   7.981  1.00142.12     0.149 C 
HETATM   23  C8  MIQ B 502      22.236  -3.949   8.474  1.00144.10     0.187 C 
HETATM   24  O9  MIQ B 502      23.352  -4.395   7.764  1.00148.65    -0.388 OA
HETATM   25  C10 MIQ B 502      24.010  -3.544   6.873  1.00147.44     0.187 C 
HETATM   26  C11 MIQ B 502      24.006  -2.046   7.157  1.00144.08     0.149 C 
ENDBRANCH   5  21
TORSDOF 2
ENDMDL
MODEL 6
REMARK VINA RESULT:      -6.5      3.244      5.126
REMARK  2 active torsions:
REMARK  status: ('A' for Active; 'I' for Inactive)
REMARK    1  A    between atoms: C5_5  and  N6_21 
REMARK    2  A    between atoms: C18_14  and  N17_19 
ROOT
HETATM    1  O1  MIQ B 502      22.693   7.713   5.417  1.00142.91    -0.171 OA
HETATM    2  C2  MIQ B 502      21.774   7.071   6.249  1.00141.17     0.195 A 
HETATM    3  C3  MIQ B 502      22.059   5.830   7.154  1.00141.71     0.035 A 
HETATM    4  C4  MIQ B 502      23.268   5.010   7.408  1.00142.86     0.046 A 
HETATM    5  C5  MIQ B 502      23.216   3.917   8.309  1.00139.53     0.031 A 
HETATM    6  C12 MIQ B 502      21.968   3.599   8.989  1.00139.38     0.030 A 
HETATM    7  C13 MIQ B 502      20.810   4.385   8.746  1.00141.18     0.019 A 
HETATM    8  C14 MIQ B 502      20.871   5.533   7.801  1.00138.77     0.033 A 
HETATM    9  C15 MIQ B 502      19.842   6.596   7.295  1.00142.10     0.195 A 
HETATM   10  N17 MIQ B 502      20.502   7.369   6.448  1.00139.42    -0.288 N 
HETATM   11  O16 MIQ B 502      18.499   6.702   7.664  1.00148.93    -0.171 OA
ENDROOT
BRANCH  10  12
HETATM   12  C18 MIQ B 502      19.851   8.470   5.763  1.00139.82     0.187 C 
HETATM   13  C19 MIQ B 502      20.036   8.257   4.255  1.00140.06     0.247 C 
HETATM   14  O25 MIQ B 502      19.753   7.215   3.782  1.00143.95    -0.271 OA
HETATM   15  N20 MIQ B 502      20.544   9.304   3.393  1.00140.02    -0.296 N 
HETATM   16  H13 MIQ B 502      20.667   9.151   2.411  1.00142.77     0.171 HD
HETATM   17  C21 MIQ B 502      20.893  10.565   3.996  1.00142.22     0.224 C 
HETATM   18  C22 MIQ B 502      21.447  10.515   5.407  1.00139.52     0.106 C 
HETATM   19  O24 MIQ B 502      20.748  11.587   3.420  1.00146.13    -0.273 OA
HETATM   20  C23 MIQ B 502      20.407   9.806   6.254  1.00139.15     0.045 C 
ENDBRANCH  10  12
BRANCH   5  21
HETATM   21  N6  MIQ B 502      24.403   3.114   8.537  1.00140.95    -0.377 N 
HETATM   22  C7  MIQ B 502      24.264   1.855   9.249  1.00142.12     0.149 C 
HETATM   23  C8  MIQ B 502      25.550   1.461   9.964  1.00144.10     0.187 C 
HETATM   24  O9  MIQ B 502      26.679   1.564   9.149  1.00148.65    -0.388 OA
HETATM   25  C10 MIQ B 502      26.597   2.191   7.903  1.00147.44     0.187 C 
HETATM   26  C11 MIQ B 502      25.585   3.317   7.718  1.00144.08     0.149 C 
ENDBRANCH   5  21
TORSDOF 2
ENDMDL
MODEL 7
REMARK VINA RESULT:      -6.5      2.300      8.540
REMARK  2 active torsions:
REMARK  status: ('A' for Active; 'I' for Inactive)
REMARK    1  A    between atoms: C5_5  and  N6_21 
REMARK    2  A    between atoms: C18_14  and  N17_19 
ROOT
HETATM    1  O1  MIQ B 502      22.778   1.660   5.284  1.00142.91    -0.171 OA
HETATM    2  C2  MIQ B 502      22.291   2.246   6.455  1.00141.17     0.195 A 
HETATM    3  C3  MIQ B 502      21.275   3.429   6.541  1.00141.71     0.035 A 
HETATM    4  C4  MIQ B 502      20.562   4.236   5.523  1.00142.86     0.046 A 
HETATM    5  C5  MIQ B 502      19.677   5.271   5.919  1.00139.53     0.031 A 
HETATM    6  C12 MIQ B 502      19.468   5.541   7.334  1.00139.38     0.030 A 
HETATM    7  C13 MIQ B 502      20.151   4.766   8.311  1.00141.18     0.019 A 
HETATM    8  C14 MIQ B 502      21.077   3.680   7.889  1.00138.77     0.033 A 
HETATM    9  C15 MIQ B 502      21.974   2.646   8.644  1.00142.10     0.195 A 
HETATM   10  N17 MIQ B 502      22.574   1.930   7.707  1.00139.42    -0.288 N 
HETATM   11  O16 MIQ B 502      22.113   2.512  10.027  1.00148.93    -0.171 OA
ENDROOT
BRANCH  10  12
HETATM   12  C18 MIQ B 502      23.508   0.872   8.044  1.00139.82     0.187 C 
HETATM   13  C19 MIQ B 502      22.802  -0.083   9.014  1.00140.06     0.247 C 
HETATM   14  O25 MIQ B 502      21.738  -0.508   8.732  1.00143.95    -0.271 OA
HETATM   15  N20 MIQ B 502      23.407  -0.485  10.267  1.00140.02    -0.296 N 
HETATM   16  H13 MIQ B 502      22.933  -1.104  10.895  1.00142.77     0.171 HD
HETATM   17  C21 MIQ B 502      24.702   0.055  10.594  1.00142.22     0.224 C 
HETATM   18  C22 MIQ B 502      24.992   1.465  10.119  1.00139.52     0.106 C 
HETATM   19  O24 MIQ B 502      25.499  -0.574  11.199  1.00146.13    -0.273 OA
HETATM   20  C23 MIQ B 502      24.797   1.462   8.614  1.00139.15     0.045 C 
ENDBRANCH  10  12
BRANCH   5  21
HETATM   21  N6  MIQ B 502      18.997   6.063   4.910  1.00140.95    -0.377 N 
HETATM   22  C7  MIQ B 502      19.532   6.076   3.560  1.00142.12     0.149 C 
HETATM   23  C8  MIQ B 502      19.173   7.357   2.818  1.00144.10     0.187 C 
HETATM   24  O9  MIQ B 502      17.821   7.688   2.928  1.00148.65    -0.388 OA
HETATM   25  C10 MIQ B 502      16.997   7.008   3.827  1.00147.44     0.187 C 
HETATM   26  C11 MIQ B 502      17.613   6.457   5.109  1.00144.08     0.149 C 
ENDBRANCH   5  21
TORSDOF 2
ENDMDL
MODEL 8
REMARK VINA RESULT:      -6.2      1.495      2.601
REMARK  2 active torsions:
REMARK  status: ('A' for Active; 'I' for Inactive)
REMARK    1  A    between atoms: C5_5  and  N6_21 
REMARK    2  A    between atoms: C18_14  and  N17_19 
ROOT
HETATM    1  O1  MIQ B 502      22.114   1.220   5.755  1.00142.91    -0.171 OA
HETATM    2  C2  MIQ B 502      21.951   1.951   6.933  1.00141.17     0.195 A 
HETATM    3  C3  MIQ B 502      22.510   1.567   8.341  1.00141.71     0.035 A 
HETATM    4  C4  MIQ B 502      23.313   0.427   8.842  1.00142.86     0.046 A 
HETATM    5  C5  MIQ B 502      23.677   0.354  10.211  1.00139.53     0.031 A 
HETATM    6  C12 MIQ B 502      23.260   1.406  11.127  1.00139.38     0.030 A 
HETATM    7  C13 MIQ B 502      22.491   2.499  10.646  1.00141.18     0.019 A 
HETATM    8  C14 MIQ B 502      22.113   2.572   9.208  1.00138.77     0.033 A 
HETATM    9  C15 MIQ B 502      21.304   3.585   8.334  1.00142.10     0.195 A 
HETATM   10  N17 MIQ B 502      21.312   3.095   7.105  1.00139.42    -0.288 N 
HETATM   11  O16 MIQ B 502      20.697   4.765   8.768  1.00148.93    -0.171 OA
ENDROOT
BRANCH  10  12
HETATM   12  C18 MIQ B 502      20.636   3.773   6.015  1.00139.82     0.187 C 
HETATM   13  C19 MIQ B 502      21.134   5.223   5.985  1.00140.06     0.247 C 
HETATM   14  O25 MIQ B 502      22.294   5.433   5.981  1.00143.95    -0.271 OA
HETATM   15  N20 MIQ B 502      20.218   6.345   5.955  1.00140.02    -0.296 N 
HETATM   16  H13 MIQ B 502      20.556   7.287   5.941  1.00142.77     0.171 HD
HETATM   17  C21 MIQ B 502      18.805   6.063   5.971  1.00142.22     0.224 C 
HETATM   18  C22 MIQ B 502      18.363   4.843   6.756  1.00139.52     0.106 C 
HETATM   19  O24 MIQ B 502      18.032   6.747   5.395  1.00146.13    -0.273 OA
HETATM   20  C23 MIQ B 502      19.121   3.661   6.179  1.00139.15     0.045 C 
ENDBRANCH  10  12
BRANCH   5  21
HETATM   21  N6  MIQ B 502      24.452  -0.776  10.691  1.00140.95    -0.377 N 
HETATM   22  C7  MIQ B 502      24.738  -0.868  12.112  1.00142.12     0.149 C 
HETATM   23  C8  MIQ B 502      26.014  -1.653  12.386  1.00144.10     0.187 C 
HETATM   24  O9  MIQ B 502      26.071  -2.860  11.687  1.00148.65    -0.388 OA
HETATM   25  C10 MIQ B 502      25.139  -3.141  10.685  1.00147.44     0.187 C 
HETATM   26  C11 MIQ B 502      24.552  -1.981   9.887  1.00144.08     0.149 C 
ENDBRANCH   5  21
TORSDOF 2
ENDMDL
MODEL 9
REMARK VINA RESULT:      -6.2      1.764      2.903
REMARK  2 active torsions:
REMARK  status: ('A' for Active; 'I' for Inactive)
REMARK    1  A    between atoms: C5_5  and  N6_21 
REMARK    2  A    between atoms: C18_14  and  N17_19 
ROOT
HETATM    1  O1  MIQ B 502      21.800   2.060   5.078  1.00142.91    -0.171 OA
HETATM    2  C2  MIQ B 502      21.609   2.839   6.222  1.00141.17     0.195 A 
HETATM    3  C3  MIQ B 502      22.050   2.469   7.674  1.00141.71     0.035 A 
HETATM    4  C4  MIQ B 502      22.746   1.300   8.261  1.00142.86     0.046 A 
HETATM    5  C5  MIQ B 502      23.016   1.251   9.652  1.00139.53     0.031 A 
HETATM    6  C12 MIQ B 502      22.607   2.356  10.507  1.00139.38     0.030 A 
HETATM    7  C13 MIQ B 502      21.941   3.478   9.944  1.00141.18     0.019 A 
HETATM    8  C14 MIQ B 502      21.662   3.525   8.483  1.00138.77     0.033 A 
HETATM    9  C15 MIQ B 502      20.977   4.556   7.527  1.00142.10     0.195 A 
HETATM   10  N17 MIQ B 502      21.034   4.025   6.317  1.00139.42    -0.288 N 
HETATM   11  O16 MIQ B 502      20.419   5.784   7.885  1.00148.93    -0.171 OA
ENDROOT
BRANCH  10  12
HETATM   12  C18 MIQ B 502      20.472   4.706   5.165  1.00139.82     0.187 C 
HETATM   13  C19 MIQ B 502      21.032   6.134   5.147  1.00140.06     0.247 C 
HETATM   14  O25 MIQ B 502      22.198   6.297   5.230  1.00143.95    -0.271 OA
HETATM   15  N20 MIQ B 502      20.169   7.291   5.024  1.00140.02    -0.296 N 
HETATM   16  H13 MIQ B 502      20.547   8.218   5.020  1.00142.77     0.171 HD
HETATM   17  C21 MIQ B 502      18.749   7.067   4.935  1.00142.22     0.224 C 
HETATM   18  C22 MIQ B 502      18.197   5.884   5.705  1.00139.52     0.106 C 
HETATM   19  O24 MIQ B 502      18.053   7.769   4.288  1.00146.13    -0.273 OA
HETATM   20  C23 MIQ B 502      18.946   4.659   5.211  1.00139.15     0.045 C 
ENDBRANCH  10  12
BRANCH   5  21
HETATM   21  N6  MIQ B 502      23.685   0.092  10.215  1.00140.95    -0.377 N 
HETATM   22  C7  MIQ B 502      24.427  -0.783   9.325  1.00142.12     0.149 C 
HETATM   23  C8  MIQ B 502      24.510  -2.205   9.864  1.00144.10     0.187 C 
HETATM   24  O9  MIQ B 502      24.892  -2.257  11.206  1.00148.65    -0.388 OA
HETATM   25  C10 MIQ B 502      24.945  -1.089  11.971  1.00147.44     0.187 C 
HETATM   26  C11 MIQ B 502      23.985   0.048  11.636  1.00144.08     0.149 C 
ENDBRANCH   5  21
TORSDOF 2
ENDMDL
