MODEL 1
REMARK VINA RESULT:      -6.7      0.000      0.000
REMARK  2 active torsions:
REMARK  status: ('A' for Active; 'I' for Inactive)
REMARK    1  A    between atoms: C5_5  and  N6_21 
REMARK    2  A    between atoms: C18_14  and  N17_19 
ROOT
HETATM    1  O1  MIQ B 502     -17.693   2.492 -11.278  1.00142.91    -0.171 OA
HETATM    2  C2  MIQ B 502     -16.692   1.668 -10.759  1.00141.17     0.195 A 
HETATM    3  C3  MIQ B 502     -15.194   1.644 -11.203  1.00141.71     0.035 A 
HETATM    4  C4  MIQ B 502     -14.418   2.406 -12.210  1.00142.86     0.046 A 
HETATM    5  C5  MIQ B 502     -13.034   2.155 -12.388  1.00139.53     0.031 A 
HETATM    6  C12 MIQ B 502     -12.373   1.144 -11.576  1.00139.38     0.030 A 
HETATM    7  C13 MIQ B 502     -13.117   0.414 -10.609  1.00141.18     0.019 A 
HETATM    8  C14 MIQ B 502     -14.569   0.684 -10.425  1.00138.77     0.033 A 
HETATM    9  C15 MIQ B 502     -15.684   0.108  -9.492  1.00142.10     0.195 A 
HETATM   10  N17 MIQ B 502     -16.792   0.761  -9.803  1.00139.42    -0.288 N 
HETATM   11  O16 MIQ B 502     -15.535  -0.893  -8.531  1.00148.93    -0.171 OA
ENDROOT
BRANCH  10  12
HETATM   12  C18 MIQ B 502     -18.051   0.474  -9.140  1.00139.82     0.187 C 
HETATM   13  C19 MIQ B 502     -17.803   0.516  -7.627  1.00140.06     0.247 C 
HETATM   14  O25 MIQ B 502     -17.262   1.454  -7.158  1.00143.95    -0.271 OA
HETATM   15  N20 MIQ B 502     -18.220  -0.562  -6.754  1.00140.02    -0.296 N 
HETATM   16  H13 MIQ B 502     -18.046  -0.525  -5.769  1.00142.77     0.171 HD
HETATM   17  C21 MIQ B 502     -18.869  -1.700  -7.351  1.00142.22     0.224 C 
HETATM   18  C22 MIQ B 502     -18.416  -2.089  -8.745  1.00139.52     0.106 C 
HETATM   19  O24 MIQ B 502     -19.716  -2.297  -6.783  1.00146.13    -0.273 OA
HETATM   20  C23 MIQ B 502     -18.611  -0.864  -9.620  1.00139.15     0.045 C 
ENDBRANCH  10  12
BRANCH   5  21
HETATM   21  N6  MIQ B 502     -12.290   2.897 -13.389  1.00140.95    -0.377 N 
HETATM   22  C7  MIQ B 502     -13.007   3.836 -14.234  1.00142.12     0.149 C 
HETATM   23  C8  MIQ B 502     -12.316   4.037 -15.576  1.00144.10     0.187 C 
HETATM   24  O9  MIQ B 502     -10.945   4.273 -15.452  1.00148.65    -0.388 OA
HETATM   25  C10 MIQ B 502     -10.305   4.095 -14.223  1.00147.44     0.187 C 
HETATM   26  C11 MIQ B 502     -10.850   3.043 -13.262  1.00144.08     0.149 C 
ENDBRANCH   5  21
TORSDOF 2
ENDMDL
MODEL 2
REMARK VINA RESULT:      -6.7      1.674      2.668
REMARK  2 active torsions:
REMARK  status: ('A' for Active; 'I' for Inactive)
REMARK    1  A    between atoms: C5_5  and  N6_21 
REMARK    2  A    between atoms: C18_14  and  N17_19 
ROOT
HETATM    1  O1  MIQ B 502     -16.295   1.560 -10.497  1.00142.91    -0.171 OA
HETATM    2  C2  MIQ B 502     -14.926   1.401 -10.271  1.00141.17     0.195 A 
HETATM    3  C3  MIQ B 502     -13.776   1.838 -11.232  1.00141.71     0.035 A 
HETATM    4  C4  MIQ B 502     -13.752   2.497 -12.559  1.00142.86     0.046 A 
HETATM    5  C5  MIQ B 502     -12.518   2.773 -13.201  1.00139.53     0.031 A 
HETATM    6  C12 MIQ B 502     -11.268   2.407 -12.551  1.00139.38     0.030 A 
HETATM    7  C13 MIQ B 502     -11.290   1.775 -11.278  1.00141.18     0.019 A 
HETATM    8  C14 MIQ B 502     -12.589   1.490 -10.608  1.00138.77     0.033 A 
HETATM    9  C15 MIQ B 502     -13.005   0.834  -9.251  1.00142.10     0.195 A 
HETATM   10  N17 MIQ B 502     -14.327   0.866  -9.221  1.00139.42    -0.288 N 
HETATM   11  O16 MIQ B 502     -12.150   0.319  -8.275  1.00148.93    -0.171 OA
ENDROOT
BRANCH  10  12
HETATM   12  C18 MIQ B 502     -15.072   0.322  -8.101  1.00139.82     0.187 C 
HETATM   13  C19 MIQ B 502     -16.113  -0.655  -8.662  1.00140.06     0.247 C 
HETATM   14  O25 MIQ B 502     -15.767  -1.497  -9.412  1.00143.95    -0.271 OA
HETATM   15  N20 MIQ B 502     -17.511  -0.576  -8.292  1.00140.02    -0.296 N 
HETATM   16  H13 MIQ B 502     -18.182  -1.216  -8.670  1.00142.77     0.171 HD
HETATM   17  C21 MIQ B 502     -17.911   0.467  -7.383  1.00142.22     0.224 C 
HETATM   18  C22 MIQ B 502     -17.156   1.779  -7.478  1.00139.52     0.106 C 
HETATM   19  O24 MIQ B 502     -18.780   0.304  -6.599  1.00146.13    -0.273 OA
HETATM   20  C23 MIQ B 502     -15.689   1.449  -7.274  1.00139.15     0.045 C 
ENDBRANCH  10  12
BRANCH   5  21
HETATM   21  N6  MIQ B 502     -12.510   3.407 -14.507  1.00140.95    -0.377 N 
HETATM   22  C7  MIQ B 502     -11.232   3.661 -15.148  1.00142.12     0.149 C 
HETATM   23  C8  MIQ B 502     -11.304   4.836 -16.115  1.00144.10     0.187 C 
HETATM   24  O9  MIQ B 502     -12.400   4.762 -16.978  1.00148.65    -0.388 OA
HETATM   25  C10 MIQ B 502     -13.407   3.817 -16.764  1.00147.44     0.187 C 
HETATM   26  C11 MIQ B 502     -13.704   3.378 -15.334  1.00144.08     0.149 C 
ENDBRANCH   5  21
TORSDOF 2
ENDMDL
MODEL 3
REMARK VINA RESULT:      -6.6      1.387      2.649
REMARK  2 active torsions:
REMARK  status: ('A' for Active; 'I' for Inactive)
REMARK    1  A    between atoms: C5_5  and  N6_21 
REMARK    2  A    between atoms: C18_14  and  N17_19 
ROOT
HETATM    1  O1  MIQ B 502     -13.145   0.232  -8.913  1.00142.91    -0.171 OA
HETATM    2  C2  MIQ B 502     -14.227   0.706  -9.658  1.00141.17     0.195 A 
HETATM    3  C3  MIQ B 502     -14.145   1.577 -10.952  1.00141.71     0.035 A 
HETATM    4  C4  MIQ B 502     -13.017   2.130 -11.739  1.00142.86     0.046 A 
HETATM    5  C5  MIQ B 502     -13.265   2.903 -12.901  1.00139.53     0.031 A 
HETATM    6  C12 MIQ B 502     -14.636   3.155 -13.322  1.00139.38     0.030 A 
HETATM    7  C13 MIQ B 502     -15.717   2.624 -12.569  1.00141.18     0.019 A 
HETATM    8  C14 MIQ B 502     -15.451   1.811 -11.351  1.00138.77     0.033 A 
HETATM    9  C15 MIQ B 502     -16.348   1.080 -10.299  1.00142.10     0.195 A 
HETATM   10  N17 MIQ B 502     -15.517   0.520  -9.436  1.00139.42    -0.288 N 
HETATM   11  O16 MIQ B 502     -17.743   1.035 -10.278  1.00148.93    -0.171 OA
ENDROOT
BRANCH  10  12
HETATM   12  C18 MIQ B 502     -16.004  -0.239  -8.299  1.00139.82     0.187 C 
HETATM   13  C19 MIQ B 502     -16.922  -1.345  -8.834  1.00140.06     0.247 C 
HETATM   14  O25 MIQ B 502     -16.535  -2.048  -9.699  1.00143.95    -0.271 OA
HETATM   15  N20 MIQ B 502     -18.253  -1.556  -8.301  1.00140.02    -0.296 N 
HETATM   16  H13 MIQ B 502     -18.845  -2.277  -8.663  1.00142.77     0.171 HD
HETATM   17  C21 MIQ B 502     -18.707  -0.679  -7.253  1.00142.22     0.224 C 
HETATM   18  C22 MIQ B 502     -18.212   0.753  -7.301  1.00139.52     0.106 C 
HETATM   19  O24 MIQ B 502     -19.426  -1.061  -6.396  1.00146.13    -0.273 OA
HETATM   20  C23 MIQ B 502     -16.696   0.686  -7.300  1.00139.15     0.045 C 
ENDBRANCH  10  12
BRANCH   5  21
HETATM   21  N6  MIQ B 502     -12.151   3.450 -13.653  1.00140.95    -0.377 N 
HETATM   22  C7  MIQ B 502     -10.802   3.077 -13.267  1.00142.12     0.149 C 
HETATM   23  C8  MIQ B 502      -9.784   4.144 -13.652  1.00144.10     0.187 C 
HETATM   24  O9  MIQ B 502      -9.928   4.581 -14.970  1.00148.65    -0.388 OA
HETATM   25  C10 MIQ B 502     -11.049   4.213 -15.719  1.00147.44     0.187 C 
HETATM   26  C11 MIQ B 502     -12.367   3.974 -14.991  1.00144.08     0.149 C 
ENDBRANCH   5  21
TORSDOF 2
ENDMDL
MODEL 4
REMARK VINA RESULT:      -6.4     19.835     22.033
REMARK  2 active torsions:
REMARK  status: ('A' for Active; 'I' for Inactive)
REMARK    1  A    between atoms: C5_5  and  N6_21 
REMARK    2  A    between atoms: C18_14  and  N17_19 
ROOT
HETATM    1  O1  MIQ B 502      -9.875  20.799 -10.053  1.00142.91    -0.171 OA
HETATM    2  C2  MIQ B 502      -8.506  20.648  -9.822  1.00141.17     0.195 A 
HETATM    3  C3  MIQ B 502      -7.806  20.595  -8.427  1.00141.71     0.035 A 
HETATM    4  C4  MIQ B 502      -8.304  20.675  -7.033  1.00142.86     0.046 A 
HETATM    5  C5  MIQ B 502      -7.401  20.592  -5.944  1.00139.53     0.031 A 
HETATM    6  C12 MIQ B 502      -5.976  20.427  -6.197  1.00139.38     0.030 A 
HETATM    7  C13 MIQ B 502      -5.499  20.349  -7.533  1.00141.18     0.019 A 
HETATM    8  C14 MIQ B 502      -6.452  20.434  -8.673  1.00138.77     0.033 A 
HETATM    9  C15 MIQ B 502      -6.311  20.387 -10.229  1.00142.10     0.195 A 
HETATM   10  N17 MIQ B 502      -7.536  20.515 -10.711  1.00139.42    -0.288 N 
HETATM   11  O16 MIQ B 502      -5.129  20.240 -10.957  1.00148.93    -0.171 OA
ENDROOT
BRANCH  10  12
HETATM   12  C18 MIQ B 502      -7.791  20.531 -12.139  1.00139.82     0.187 C 
HETATM   13  C19 MIQ B 502      -8.600  21.794 -12.457  1.00140.06     0.247 C 
HETATM   14  O25 MIQ B 502      -8.214  22.839 -12.067  1.00143.95    -0.271 OA
HETATM   15  N20 MIQ B 502      -9.825  21.743 -13.228  1.00140.02    -0.296 N 
HETATM   16  H13 MIQ B 502     -10.348  22.574 -13.423  1.00142.77     0.171 HD
HETATM   17  C21 MIQ B 502     -10.281  20.455 -13.684  1.00142.22     0.224 C 
HETATM   18  C22 MIQ B 502      -9.995  19.272 -12.780  1.00139.52     0.106 C 
HETATM   19  O24 MIQ B 502     -10.845  20.329 -14.715  1.00146.13    -0.273 OA
HETATM   20  C23 MIQ B 502      -8.493  19.244 -12.569  1.00139.15     0.045 C 
ENDBRANCH  10  12
BRANCH   5  21
HETATM   21  N6  MIQ B 502      -7.900  20.687  -4.584  1.00140.95    -0.377 N 
HETATM   22  C7  MIQ B 502      -7.065  20.197  -3.501  1.00142.12     0.149 C 
HETATM   23  C8  MIQ B 502      -7.892  19.760  -2.299  1.00144.10     0.187 C 
HETATM   24  O9  MIQ B 502      -8.855  20.702  -1.930  1.00148.65    -0.388 OA
HETATM   25  C10 MIQ B 502      -9.133  21.791  -2.760  1.00147.44     0.187 C 
HETATM   26  C11 MIQ B 502      -8.965  21.623  -4.266  1.00144.08     0.149 C 
ENDBRANCH   5  21
TORSDOF 2
ENDMDL
MODEL 5
REMARK VINA RESULT:      -6.4      2.237      8.250
REMARK  2 active torsions:
REMARK  status: ('A' for Active; 'I' for Inactive)
REMARK    1  A    between atoms: C5_5  and  N6_21 
REMARK    2  A    between atoms: C18_14  and  N17_19 
ROOT
HETATM    1  O1  MIQ B 502     -16.428   0.012 -12.429  1.00142.91    -0.171 OA
HETATM    2  C2  MIQ B 502     -15.770   0.637 -11.368  1.00141.17     0.195 A 
HETATM    3  C3  MIQ B 502     -16.346   0.868  -9.934  1.00141.71     0.035 A 
HETATM    4  C4  MIQ B 502     -17.639   0.537  -9.289  1.00142.86     0.046 A 
HETATM    5  C5  MIQ B 502     -17.874   0.884  -7.935  1.00139.53     0.031 A 
HETATM    6  C12 MIQ B 502     -16.839   1.569  -7.174  1.00139.38     0.030 A 
HETATM    7  C13 MIQ B 502     -15.599   1.886  -7.792  1.00141.18     0.019 A 
HETATM    8  C14 MIQ B 502     -15.357   1.517  -9.213  1.00138.77     0.033 A 
HETATM    9  C15 MIQ B 502     -14.160   1.689 -10.205  1.00142.10     0.195 A 
HETATM   10  N17 MIQ B 502     -14.551   1.147 -11.347  1.00139.42    -0.288 N 
HETATM   11  O16 MIQ B 502     -12.931   2.294  -9.935  1.00148.93    -0.171 OA
ENDROOT
BRANCH  10  12
HETATM   12  C18 MIQ B 502     -13.690   1.138 -12.515  1.00139.82     0.187 C 
HETATM   13  C19 MIQ B 502     -12.278   0.757 -12.052  1.00140.06     0.247 C 
HETATM   14  O25 MIQ B 502     -12.130  -0.207 -11.389  1.00143.95    -0.271 OA
HETATM   15  N20 MIQ B 502     -11.118   1.545 -12.413  1.00140.02    -0.296 N 
HETATM   16  H13 MIQ B 502     -10.202   1.289 -12.099  1.00142.77     0.171 HD
HETATM   17  C21 MIQ B 502     -11.325   2.723 -13.214  1.00142.22     0.224 C 
HETATM   18  C22 MIQ B 502     -12.620   3.480 -12.991  1.00139.52     0.106 C 
HETATM   19  O24 MIQ B 502     -10.526   3.077 -14.010  1.00146.13    -0.273 OA
HETATM   20  C23 MIQ B 502     -13.745   2.489 -13.226  1.00139.15     0.045 C 
ENDBRANCH  10  12
BRANCH   5  21
HETATM   21  N6  MIQ B 502     -19.150   0.566  -7.321  1.00140.95    -0.377 N 
HETATM   22  C7  MIQ B 502     -20.351   1.182  -7.857  1.00142.12     0.149 C 
HETATM   23  C8  MIQ B 502     -21.448   1.301  -6.806  1.00144.10     0.187 C 
HETATM   24  O9  MIQ B 502     -21.650   0.116  -6.096  1.00148.65    -0.388 OA
HETATM   25  C10 MIQ B 502     -20.753  -0.948  -6.223  1.00147.44     0.187 C 
HETATM   26  C11 MIQ B 502     -19.290  -0.636  -6.518  1.00144.08     0.149 C 
ENDBRANCH   5  21
TORSDOF 2
ENDMDL
MODEL 6
REMARK VINA RESULT:      -6.3     21.719     24.228
REMARK  2 active torsions:
REMARK  status: ('A' for Active; 'I' for Inactive)
REMARK    1  A    between atoms: C5_5  and  N6_21 
REMARK    2  A    between atoms: C18_14  and  N17_19 
ROOT
HETATM    1  O1  MIQ B 502      -4.705  20.375  -3.247  1.00142.91    -0.171 OA
HETATM    2  C2  MIQ B 502      -5.884  20.222  -2.514  1.00141.17     0.195 A 
HETATM    3  C3  MIQ B 502      -6.003  20.183  -0.957  1.00141.71     0.035 A 
HETATM    4  C4  MIQ B 502      -5.016  20.287   0.143  1.00142.86     0.046 A 
HETATM    5  C5  MIQ B 502      -5.439  20.215   1.495  1.00139.53     0.031 A 
HETATM    6  C12 MIQ B 502      -6.851  20.039   1.802  1.00139.38     0.030 A 
HETATM    7  C13 MIQ B 502      -7.798  19.941   0.747  1.00141.18     0.019 A 
HETATM    8  C14 MIQ B 502      -7.349  20.019  -0.670  1.00138.77     0.033 A 
HETATM    9  C15 MIQ B 502      -8.069  19.957  -2.056  1.00142.10     0.195 A 
HETATM   10  N17 MIQ B 502      -7.118  20.087  -2.967  1.00139.42    -0.288 N 
HETATM   11  O16 MIQ B 502      -9.437  19.794  -2.281  1.00148.93    -0.171 OA
ENDROOT
BRANCH  10  12
HETATM   12  C18 MIQ B 502      -7.421  20.059  -4.386  1.00139.82     0.187 C 
HETATM   13  C19 MIQ B 502      -6.473  19.051  -5.047  1.00140.06     0.247 C 
HETATM   14  O25 MIQ B 502      -6.381  17.965  -4.596  1.00143.95    -0.271 OA
HETATM   15  N20 MIQ B 502      -5.689  19.393  -6.217  1.00140.02    -0.296 N 
HETATM   16  H13 MIQ B 502      -5.069  18.728  -6.635  1.00142.77     0.171 HD
HETATM   17  C21 MIQ B 502      -5.811  20.728  -6.743  1.00142.22     0.224 C 
HETATM   18  C22 MIQ B 502      -6.054  21.837  -5.739  1.00139.52     0.106 C 
HETATM   19  O24 MIQ B 502      -5.730  20.945  -7.902  1.00146.13    -0.273 OA
HETATM   20  C23 MIQ B 502      -7.315  21.463  -4.980  1.00139.15     0.045 C 
ENDBRANCH  10  12
BRANCH   5  21
HETATM   21  N6  MIQ B 502      -4.459  20.304   2.562  1.00140.95    -0.377 N 
HETATM   22  C7  MIQ B 502      -3.184  19.628   2.393  1.00142.12     0.149 C 
HETATM   23  C8  MIQ B 502      -2.558  19.251   3.729  1.00144.10     0.187 C 
HETATM   24  O9  MIQ B 502      -2.558  20.304   4.646  1.00148.65    -0.388 OA
HETATM   25  C10 MIQ B 502      -3.280  21.471   4.383  1.00147.44     0.187 C 
HETATM   26  C11 MIQ B 502      -4.550  21.370   3.545  1.00144.08     0.149 C 
ENDBRANCH   5  21
TORSDOF 2
ENDMDL
MODEL 7
REMARK VINA RESULT:      -6.3     19.049     22.040
REMARK  2 active torsions:
REMARK  status: ('A' for Active; 'I' for Inactive)
REMARK    1  A    between atoms: C5_5  and  N6_21 
REMARK    2  A    between atoms: C18_14  and  N17_19 
ROOT
HETATM    1  O1  MIQ B 502     -10.427  22.688  -7.691  1.00142.91    -0.171 OA
HETATM    2  C2  MIQ B 502      -9.125  22.246  -7.936  1.00141.17     0.195 A 
HETATM    3  C3  MIQ B 502      -8.650  21.418  -9.171  1.00141.71     0.035 A 
HETATM    4  C4  MIQ B 502      -9.342  20.884 -10.368  1.00142.86     0.046 A 
HETATM    5  C5  MIQ B 502      -8.623  20.151 -11.345  1.00139.53     0.031 A 
HETATM    6  C12 MIQ B 502      -7.196  19.922 -11.171  1.00139.38     0.030 A 
HETATM    7  C13 MIQ B 502      -6.531  20.434 -10.024  1.00141.18     0.019 A 
HETATM    8  C14 MIQ B 502      -7.291  21.205  -9.003  1.00138.77     0.033 A 
HETATM    9  C15 MIQ B 502      -6.921  21.907  -7.655  1.00142.10     0.195 A 
HETATM   10  N17 MIQ B 502      -8.045  22.433  -7.197  1.00139.42    -0.288 N 
HETATM   11  O16 MIQ B 502      -5.660  21.960  -7.060  1.00148.93    -0.171 OA
ENDROOT
BRANCH  10  12
HETATM   12  C18 MIQ B 502      -8.084  23.157  -5.940  1.00139.82     0.187 C 
HETATM   13  C19 MIQ B 502      -9.143  22.493  -5.051  1.00140.06     0.247 C 
HETATM   14  O25 MIQ B 502      -9.106  21.326  -4.886  1.00143.95    -0.271 OA
HETATM   15  N20 MIQ B 502     -10.186  23.261  -4.402  1.00140.02    -0.296 N 
HETATM   16  H13 MIQ B 502     -10.875  22.815  -3.830  1.00142.77     0.171 HD
HETATM   17  C21 MIQ B 502     -10.216  24.683  -4.628  1.00142.22     0.224 C 
HETATM   18  C22 MIQ B 502      -9.763  25.166  -5.992  1.00139.52     0.106 C 
HETATM   19  O24 MIQ B 502     -10.572  25.435  -3.788  1.00146.13    -0.273 OA
HETATM   20  C23 MIQ B 502      -8.353  24.641  -6.190  1.00139.15     0.045 C 
ENDBRANCH  10  12
BRANCH   5  21
HETATM   21  N6  MIQ B 502      -9.317  19.622 -12.505  1.00140.95    -0.377 N 
HETATM   22  C7  MIQ B 502     -10.014  20.548 -13.381  1.00142.12     0.149 C 
HETATM   23  C8  MIQ B 502     -11.169  19.879 -14.114  1.00144.10     0.187 C 
HETATM   24  O9  MIQ B 502     -10.810  18.662 -14.697  1.00148.65    -0.388 OA
HETATM   25  C10 MIQ B 502      -9.579  18.071 -14.401  1.00147.44     0.187 C 
HETATM   26  C11 MIQ B 502      -8.967  18.311 -13.025  1.00144.08     0.149 C 
ENDBRANCH   5  21
TORSDOF 2
ENDMDL
MODEL 8
REMARK VINA RESULT:      -6.3      3.213      8.285
REMARK  2 active torsions:
REMARK  status: ('A' for Active; 'I' for Inactive)
REMARK    1  A    between atoms: C5_5  and  N6_21 
REMARK    2  A    between atoms: C18_14  and  N17_19 
ROOT
HETATM    1  O1  MIQ B 502     -14.361   2.667  -7.524  1.00142.91    -0.171 OA
HETATM    2  C2  MIQ B 502     -14.599   1.439  -8.145  1.00141.17     0.195 A 
HETATM    3  C3  MIQ B 502     -15.958   0.668  -8.173  1.00141.71     0.035 A 
HETATM    4  C4  MIQ B 502     -17.302   0.951  -7.615  1.00142.86     0.046 A 
HETATM    5  C5  MIQ B 502     -18.367   0.037  -7.813  1.00139.53     0.031 A 
HETATM    6  C12 MIQ B 502     -18.138  -1.186  -8.569  1.00139.38     0.030 A 
HETATM    7  C13 MIQ B 502     -16.850  -1.457  -9.105  1.00141.18     0.019 A 
HETATM    8  C14 MIQ B 502     -15.736  -0.492  -8.896  1.00138.77     0.033 A 
HETATM    9  C15 MIQ B 502     -14.232  -0.442  -9.319  1.00142.10     0.195 A 
HETATM   10  N17 MIQ B 502     -13.752   0.689  -8.827  1.00139.42    -0.288 N 
HETATM   11  O16 MIQ B 502     -13.540  -1.399 -10.063  1.00148.93    -0.171 OA
ENDROOT
BRANCH  10  12
HETATM   12  C18 MIQ B 502     -12.363   1.066  -9.013  1.00139.82     0.187 C 
HETATM   13  C19 MIQ B 502     -12.052   0.980 -10.512  1.00140.06     0.247 C 
HETATM   14  O25 MIQ B 502     -12.762   1.524 -11.281  1.00143.95    -0.271 OA
HETATM   15  N20 MIQ B 502     -10.903   0.253 -11.013  1.00140.02    -0.296 N 
HETATM   16  H13 MIQ B 502     -10.715   0.199 -11.995  1.00142.77     0.171 HD
HETATM   17  C21 MIQ B 502     -10.056  -0.412 -10.057  1.00142.22     0.224 C 
HETATM   18  C22 MIQ B 502     -10.734  -0.975  -8.823  1.00139.52     0.106 C 
HETATM   19  O24 MIQ B 502      -8.891  -0.508 -10.226  1.00146.13    -0.273 OA
HETATM   20  C23 MIQ B 502     -11.454   0.185  -8.159  1.00139.15     0.045 C 
ENDBRANCH  10  12
BRANCH   5  21
HETATM   21  N6  MIQ B 502     -19.674   0.319  -7.249  1.00140.95    -0.377 N 
HETATM   22  C7  MIQ B 502     -19.977  -0.174  -5.917  1.00142.12     0.149 C 
HETATM   23  C8  MIQ B 502     -21.471  -0.388  -5.715  1.00144.10     0.187 C 
HETATM   24  O9  MIQ B 502     -22.238   0.700  -6.137  1.00148.65    -0.388 OA
HETATM   25  C10 MIQ B 502     -21.653   1.736  -6.870  1.00147.44     0.187 C 
HETATM   26  C11 MIQ B 502     -20.473   1.410  -7.780  1.00144.08     0.149 C 
ENDBRANCH   5  21
TORSDOF 2
ENDMDL
MODEL 9
REMARK VINA RESULT:      -6.2     12.881     13.904
REMARK  2 active torsions:
REMARK  status: ('A' for Active; 'I' for Inactive)
REMARK    1  A    between atoms: C5_5  and  N6_21 
REMARK    2  A    between atoms: C18_14  and  N17_19 
ROOT
HETATM    1  O1  MIQ B 502      -7.599   9.930 -13.593  1.00142.91    -0.171 OA
HETATM    2  C2  MIQ B 502      -6.488   9.705 -14.408  1.00141.17     0.195 A 
HETATM    3  C3  MIQ B 502      -6.516   9.277 -15.910  1.00141.71     0.035 A 
HETATM    4  C4  MIQ B 502      -7.611   8.999 -16.869  1.00142.86     0.046 A 
HETATM    5  C5  MIQ B 502      -7.316   8.621 -18.203  1.00139.53     0.031 A 
HETATM    6  C12 MIQ B 502      -5.930   8.507 -18.632  1.00139.38     0.030 A 
HETATM    7  C13 MIQ B 502      -4.880   8.775 -17.713  1.00141.18     0.019 A 
HETATM    8  C14 MIQ B 502      -5.196   9.173 -16.314  1.00138.77     0.033 A 
HETATM    9  C15 MIQ B 502      -4.342   9.540 -15.056  1.00142.10     0.195 A 
HETATM   10  N17 MIQ B 502      -5.208   9.810 -14.093  1.00139.42    -0.288 N 
HETATM   11  O16 MIQ B 502      -2.949   9.572 -14.972  1.00148.93    -0.171 OA
ENDROOT
BRANCH  10  12
HETATM   12  C18 MIQ B 502      -4.768  10.178 -12.761  1.00139.82     0.187 C 
HETATM   13  C19 MIQ B 502      -5.483   9.261 -11.761  1.00140.06     0.247 C 
HETATM   14  O25 MIQ B 502      -5.454   8.094 -11.928  1.00143.95    -0.271 OA
HETATM   15  N20 MIQ B 502      -6.192   9.788 -10.613  1.00140.02    -0.296 N 
HETATM   16  H13 MIQ B 502      -6.660   9.179  -9.972  1.00142.77     0.171 HD
HETATM   17  C21 MIQ B 502      -6.223  11.217 -10.437  1.00142.22     0.224 C 
HETATM   18  C22 MIQ B 502      -6.249  12.058 -11.699  1.00139.52     0.106 C 
HETATM   19  O24 MIQ B 502      -6.222  11.708  -9.362  1.00146.13    -0.273 OA
HETATM   20  C23 MIQ B 502      -5.027  11.662 -12.507  1.00139.15     0.045 C 
ENDBRANCH  10  12
BRANCH   5  21
HETATM   21  N6  MIQ B 502      -8.399   8.338 -19.128  1.00140.95    -0.377 N 
HETATM   22  C7  MIQ B 502      -9.426   9.345 -19.325  1.00142.12     0.149 C 
HETATM   23  C8  MIQ B 502     -10.752   8.729 -19.755  1.00144.10     0.187 C 
HETATM   24  O9  MIQ B 502     -10.611   7.809 -20.796  1.00148.65    -0.388 OA
HETATM   25  C10 MIQ B 502      -9.343   7.374 -21.189  1.00147.44     0.187 C 
HETATM   26  C11 MIQ B 502      -8.236   7.309 -20.141  1.00144.08     0.149 C 
ENDBRANCH   5  21
TORSDOF 2
ENDMDL
