MODEL 1
REMARK VINA RESULT:      -7.1      0.000      0.000
REMARK  2 active torsions:
REMARK  status: ('A' for Active; 'I' for Inactive)
REMARK    1  A    between atoms: C5_5  and  N6_21 
REMARK    2  A    between atoms: C18_14  and  N17_19 
ROOT
HETATM    1  O1  MIQ B 502     -10.968  -1.326  13.546  1.00142.91    -0.171 OA
HETATM    2  C2  MIQ B 502     -10.480  -0.315  14.376  1.00141.17     0.195 A 
HETATM    3  C3  MIQ B 502     -11.129   1.088  14.601  1.00141.71     0.035 A 
HETATM    4  C4  MIQ B 502     -12.349   1.743  14.071  1.00142.86     0.046 A 
HETATM    5  C5  MIQ B 502     -12.687   3.060  14.473  1.00139.53     0.031 A 
HETATM    6  C12 MIQ B 502     -11.831   3.771  15.411  1.00139.38     0.030 A 
HETATM    7  C13 MIQ B 502     -10.663   3.143  15.920  1.00141.18     0.019 A 
HETATM    8  C14 MIQ B 502     -10.314   1.760  15.497  1.00138.77     0.033 A 
HETATM    9  C15 MIQ B 502      -9.152   0.768  15.831  1.00142.10     0.195 A 
HETATM   10  N17 MIQ B 502      -9.395  -0.328  15.133  1.00139.42    -0.288 N 
HETATM   11  O16 MIQ B 502      -8.076   1.000  16.690  1.00148.93    -0.171 OA
ENDROOT
BRANCH  10  12
HETATM   12  C18 MIQ B 502      -8.504  -1.472  15.183  1.00139.82     0.187 C 
HETATM   13  C19 MIQ B 502      -8.086  -1.804  13.745  1.00140.06     0.247 C 
HETATM   14  O25 MIQ B 502      -7.662  -0.945  13.057  1.00143.95    -0.271 OA
HETATM   15  N20 MIQ B 502      -8.192  -3.145  13.209  1.00140.02    -0.296 N 
HETATM   16  H13 MIQ B 502      -7.922  -3.347  12.267  1.00142.77     0.171 HD
HETATM   17  C21 MIQ B 502      -8.722  -4.174  14.066  1.00142.22     0.224 C 
HETATM   18  C22 MIQ B 502      -9.788  -3.751  15.059  1.00139.52     0.106 C 
HETATM   19  O24 MIQ B 502      -8.341  -5.291  14.000  1.00146.13    -0.273 OA
HETATM   20  C23 MIQ B 502      -9.180  -2.642  15.898  1.00139.15     0.045 C 
ENDBRANCH  10  12
BRANCH   5  21
HETATM   21  N6  MIQ B 502     -13.876   3.694  13.934  1.00140.95    -0.377 N 
HETATM   22  C7  MIQ B 502     -14.931   2.852  13.397  1.00142.12     0.149 C 
HETATM   23  C8  MIQ B 502     -15.752   3.575  12.337  1.00144.10     0.187 C 
HETATM   24  O9  MIQ B 502     -16.154   4.850  12.738  1.00148.65    -0.388 OA
HETATM   25  C10 MIQ B 502     -15.627   5.427  13.897  1.00147.44     0.187 C 
HETATM   26  C11 MIQ B 502     -14.208   5.056  14.315  1.00144.08     0.149 C 
ENDBRANCH   5  21
TORSDOF 2
ENDMDL
MODEL 2
REMARK VINA RESULT:      -6.5      2.147      8.031
REMARK  2 active torsions:
REMARK  status: ('A' for Active; 'I' for Inactive)
REMARK    1  A    between atoms: C5_5  and  N6_21 
REMARK    2  A    between atoms: C18_14  and  N17_19 
ROOT
HETATM    1  O1  MIQ B 502     -14.484   2.117  13.540  1.00142.91    -0.171 OA
HETATM    2  C2  MIQ B 502     -13.503   2.548  14.436  1.00141.17     0.195 A 
HETATM    3  C3  MIQ B 502     -12.085   1.921  14.622  1.00141.71     0.035 A 
HETATM    4  C4  MIQ B 502     -11.379   0.787  13.980  1.00142.86     0.046 A 
HETATM    5  C5  MIQ B 502     -10.059   0.450  14.370  1.00139.53     0.031 A 
HETATM    6  C12 MIQ B 502      -9.393   1.224  15.408  1.00139.38     0.030 A 
HETATM    7  C13 MIQ B 502     -10.068   2.312  16.024  1.00141.18     0.019 A 
HETATM    8  C14 MIQ B 502     -11.454   2.663  15.608  1.00138.77     0.033 A 
HETATM    9  C15 MIQ B 502     -12.487   3.756  16.036  1.00142.10     0.195 A 
HETATM   10  N17 MIQ B 502     -13.562   3.554  15.292  1.00139.42    -0.288 N 
HETATM   11  O16 MIQ B 502     -12.306   4.741  17.008  1.00148.93    -0.171 OA
ENDROOT
BRANCH  10  12
HETATM   12  C18 MIQ B 502     -14.745   4.383  15.429  1.00139.82     0.187 C 
HETATM   13  C19 MIQ B 502     -15.942   3.454  15.664  1.00140.06     0.247 C 
HETATM   14  O25 MIQ B 502     -15.878   2.635  16.510  1.00143.95    -0.271 OA
HETATM   15  N20 MIQ B 502     -17.155   3.558  14.879  1.00140.02    -0.296 N 
HETATM   16  H13 MIQ B 502     -17.927   2.941  15.038  1.00142.77     0.171 HD
HETATM   17  C21 MIQ B 502     -17.205   4.559  13.845  1.00142.22     0.224 C 
HETATM   18  C22 MIQ B 502     -15.903   4.867  13.131  1.00139.52     0.106 C 
HETATM   19  O24 MIQ B 502     -18.211   5.115  13.572  1.00146.13    -0.273 OA
HETATM   20  C23 MIQ B 502     -14.911   5.280  14.203  1.00139.15     0.045 C 
ENDBRANCH  10  12
BRANCH   5  21
HETATM   21  N6  MIQ B 502      -9.385  -0.672  13.743  1.00140.95    -0.377 N 
HETATM   22  C7  MIQ B 502      -8.049  -0.471  13.210  1.00142.12     0.149 C 
HETATM   23  C8  MIQ B 502      -7.738  -1.437  12.075  1.00144.10     0.187 C 
HETATM   24  O9  MIQ B 502      -8.065  -2.759  12.381  1.00148.65    -0.388 OA
HETATM   25  C10 MIQ B 502      -8.810  -3.057  13.525  1.00147.44     0.187 C 
HETATM   26  C11 MIQ B 502      -9.818  -2.029  14.027  1.00144.08     0.149 C 
ENDBRANCH   5  21
TORSDOF 2
ENDMDL
MODEL 3
REMARK VINA RESULT:      -6.4      5.194      8.162
REMARK  2 active torsions:
REMARK  status: ('A' for Active; 'I' for Inactive)
REMARK    1  A    between atoms: C5_5  and  N6_21 
REMARK    2  A    between atoms: C18_14  and  N17_19 
ROOT
HETATM    1  O1  MIQ B 502     -12.642   3.982  12.459  1.00142.91    -0.171 OA
HETATM    2  C2  MIQ B 502     -13.040   4.038  13.796  1.00141.17     0.195 A 
HETATM    3  C3  MIQ B 502     -12.117   4.329  15.022  1.00141.71     0.035 A 
HETATM    4  C4  MIQ B 502     -10.670   4.616  15.162  1.00142.86     0.046 A 
HETATM    5  C5  MIQ B 502     -10.106   4.846  16.443  1.00139.53     0.031 A 
HETATM    6  C12 MIQ B 502     -10.955   4.802  17.625  1.00139.38     0.030 A 
HETATM    7  C13 MIQ B 502     -12.342   4.528  17.490  1.00141.18     0.019 A 
HETATM    8  C14 MIQ B 502     -12.930   4.289  16.144  1.00138.77     0.033 A 
HETATM    9  C15 MIQ B 502     -14.365   3.972  15.611  1.00142.10     0.195 A 
HETATM   10  N17 MIQ B 502     -14.252   3.866  14.297  1.00139.42    -0.288 N 
HETATM   11  O16 MIQ B 502     -15.526   3.827  16.372  1.00148.93    -0.171 OA
ENDROOT
BRANCH  10  12
HETATM   12  C18 MIQ B 502     -15.396   3.557  13.461  1.00139.82     0.187 C 
HETATM   13  C19 MIQ B 502     -16.512   4.551  13.808  1.00140.06     0.247 C 
HETATM   14  O25 MIQ B 502     -16.271   5.706  13.817  1.00143.95    -0.271 OA
HETATM   15  N20 MIQ B 502     -17.856   4.112  14.121  1.00140.02    -0.296 N 
HETATM   16  H13 MIQ B 502     -18.573   4.770  14.353  1.00142.77     0.171 HD
HETATM   17  C21 MIQ B 502     -18.122   2.696  14.115  1.00142.22     0.224 C 
HETATM   18  C22 MIQ B 502     -16.989   1.788  14.553  1.00139.52     0.106 C 
HETATM   19  O24 MIQ B 502     -19.170   2.266  13.778  1.00146.13    -0.273 OA
HETATM   20  C23 MIQ B 502     -15.812   2.099  13.646  1.00139.15     0.045 C 
ENDBRANCH  10  12
BRANCH   5  21
HETATM   21  N6  MIQ B 502      -8.684   5.111  16.567  1.00140.95    -0.377 N 
HETATM   22  C7  MIQ B 502      -8.226   5.939  17.669  1.00142.12     0.149 C 
HETATM   23  C8  MIQ B 502      -6.918   6.648  17.342  1.00144.10     0.187 C 
HETATM   24  O9  MIQ B 502      -5.957   5.793  16.798  1.00148.65    -0.388 OA
HETATM   25  C10 MIQ B 502      -6.304   4.498  16.405  1.00147.44     0.187 C 
HETATM   26  C11 MIQ B 502      -7.724   4.241  15.911  1.00144.08     0.149 C 
ENDBRANCH   5  21
TORSDOF 2
ENDMDL
MODEL 4
REMARK VINA RESULT:      -6.3      1.972      7.960
REMARK  2 active torsions:
REMARK  status: ('A' for Active; 'I' for Inactive)
REMARK    1  A    between atoms: C5_5  and  N6_21 
REMARK    2  A    between atoms: C18_14  and  N17_19 
ROOT
HETATM    1  O1  MIQ B 502     -14.212   1.676  14.404  1.00142.91    -0.171 OA
HETATM    2  C2  MIQ B 502     -12.987   2.178  14.848  1.00141.17     0.195 A 
HETATM    3  C3  MIQ B 502     -11.659   1.369  15.000  1.00141.71     0.035 A 
HETATM    4  C4  MIQ B 502     -11.293  -0.045  14.749  1.00142.86     0.046 A 
HETATM    5  C5  MIQ B 502      -9.970  -0.496  14.987  1.00139.53     0.031 A 
HETATM    6  C12 MIQ B 502      -8.966   0.437  15.479  1.00139.38     0.030 A 
HETATM    7  C13 MIQ B 502      -9.317   1.793  15.719  1.00141.18     0.019 A 
HETATM    8  C14 MIQ B 502     -10.707   2.261  15.466  1.00138.77     0.033 A 
HETATM    9  C15 MIQ B 502     -11.447   3.631  15.603  1.00142.10     0.195 A 
HETATM   10  N17 MIQ B 502     -12.694   3.412  15.220  1.00139.42    -0.288 N 
HETATM   11  O16 MIQ B 502     -10.899   4.837  16.043  1.00148.93    -0.171 OA
ENDROOT
BRANCH  10  12
HETATM   12  C18 MIQ B 502     -13.687   4.471  15.231  1.00139.82     0.187 C 
HETATM   13  C19 MIQ B 502     -14.907   3.959  16.007  1.00140.06     0.247 C 
HETATM   14  O25 MIQ B 502     -14.753   3.489  17.078  1.00143.95    -0.271 OA
HETATM   15  N20 MIQ B 502     -16.247   4.043  15.464  1.00140.02    -0.296 N 
HETATM   16  H13 MIQ B 502     -17.035   3.699  15.978  1.00142.77     0.171 HD
HETATM   17  C21 MIQ B 502     -16.409   4.612  14.151  1.00142.22     0.224 C 
HETATM   18  C22 MIQ B 502     -15.287   4.368  13.161  1.00139.52     0.106 C 
HETATM   19  O24 MIQ B 502     -17.367   5.241  13.864  1.00146.13    -0.273 OA
HETATM   20  C23 MIQ B 502     -14.020   4.903  13.804  1.00139.15     0.045 C 
ENDBRANCH  10  12
BRANCH   5  21
HETATM   21  N6  MIQ B 502      -9.629  -1.887  14.750  1.00140.95    -0.377 N 
HETATM   22  C7  MIQ B 502     -10.536  -2.915  15.229  1.00142.12     0.149 C 
HETATM   23  C8  MIQ B 502      -9.813  -4.228  15.505  1.00144.10     0.187 C 
HETATM   24  O9  MIQ B 502      -8.971  -4.614  14.461  1.00148.65    -0.388 OA
HETATM   25  C10 MIQ B 502      -8.688  -3.731  13.416  1.00147.44     0.187 C 
HETATM   26  C11 MIQ B 502      -8.679  -2.234  13.707  1.00144.08     0.149 C 
ENDBRANCH   5  21
TORSDOF 2
ENDMDL
MODEL 5
REMARK VINA RESULT:      -6.1      3.889      7.941
REMARK  2 active torsions:
REMARK  status: ('A' for Active; 'I' for Inactive)
REMARK    1  A    between atoms: C5_5  and  N6_21 
REMARK    2  A    between atoms: C18_14  and  N17_19 
ROOT
HETATM    1  O1  MIQ B 502     -14.051   0.382  15.476  1.00142.91    -0.171 OA
HETATM    2  C2  MIQ B 502     -13.928   1.692  15.009  1.00141.17     0.195 A 
HETATM    3  C3  MIQ B 502     -12.676   2.613  15.166  1.00141.71     0.035 A 
HETATM    4  C4  MIQ B 502     -11.345   2.426  15.790  1.00142.86     0.046 A 
HETATM    5  C5  MIQ B 502     -10.391   3.474  15.772  1.00139.53     0.031 A 
HETATM    6  C12 MIQ B 502     -10.721   4.741  15.136  1.00139.38     0.030 A 
HETATM    7  C13 MIQ B 502     -11.997   4.921  14.536  1.00141.18     0.019 A 
HETATM    8  C14 MIQ B 502     -12.994   3.816  14.556  1.00138.77     0.033 A 
HETATM    9  C15 MIQ B 502     -14.451   3.640  14.017  1.00142.10     0.195 A 
HETATM   10  N17 MIQ B 502     -14.818   2.413  14.348  1.00139.42    -0.288 N 
HETATM   11  O16 MIQ B 502     -15.208   4.591  13.330  1.00148.93    -0.171 OA
ENDROOT
BRANCH  10  12
HETATM   12  C18 MIQ B 502     -16.135   1.901  14.019  1.00139.82     0.187 C 
HETATM   13  C19 MIQ B 502     -16.358   2.116  12.517  1.00140.06     0.247 C 
HETATM   14  O25 MIQ B 502     -15.538   1.745  11.754  1.00143.95    -0.271 OA
HETATM   15  N20 MIQ B 502     -17.552   2.757  12.006  1.00140.02    -0.296 N 
HETATM   16  H13 MIQ B 502     -17.683   2.898  11.024  1.00142.77     0.171 HD
HETATM   17  C21 MIQ B 502     -18.534   3.211  12.958  1.00142.22     0.224 C 
HETATM   18  C22 MIQ B 502     -18.011   3.708  14.291  1.00139.52     0.106 C 
HETATM   19  O24 MIQ B 502     -19.689   3.190  12.710  1.00146.13    -0.273 OA
HETATM   20  C23 MIQ B 502     -17.198   2.572  14.886  1.00139.15     0.045 C 
ENDBRANCH  10  12
BRANCH   5  21
HETATM   21  N6  MIQ B 502      -9.096   3.282  16.400  1.00140.95    -0.377 N 
HETATM   22  C7  MIQ B 502      -8.779   1.975  16.950  1.00142.12     0.149 C 
HETATM   23  C8  MIQ B 502      -7.765   2.066  18.083  1.00144.10     0.187 C 
HETATM   24  O9  MIQ B 502      -6.663   2.863  17.764  1.00148.65    -0.388 OA
HETATM   25  C10 MIQ B 502      -6.670   3.649  16.609  1.00147.44     0.187 C 
HETATM   26  C11 MIQ B 502      -8.003   4.190  16.102  1.00144.08     0.149 C 
ENDBRANCH   5  21
TORSDOF 2
ENDMDL
MODEL 6
REMARK VINA RESULT:      -6.1      3.958      6.209
REMARK  2 active torsions:
REMARK  status: ('A' for Active; 'I' for Inactive)
REMARK    1  A    between atoms: C5_5  and  N6_21 
REMARK    2  A    between atoms: C18_14  and  N17_19 
ROOT
HETATM    1  O1  MIQ B 502      -7.144   0.712  15.076  1.00142.91    -0.171 OA
HETATM    2  C2  MIQ B 502      -8.278   1.470  15.376  1.00141.17     0.195 A 
HETATM    3  C3  MIQ B 502      -8.291   2.903  15.998  1.00141.71     0.035 A 
HETATM    4  C4  MIQ B 502      -7.223   3.837  16.427  1.00142.86     0.046 A 
HETATM    5  C5  MIQ B 502      -7.555   5.105  16.968  1.00139.53     0.031 A 
HETATM    6  C12 MIQ B 502      -8.952   5.491  17.101  1.00139.38     0.030 A 
HETATM    7  C13 MIQ B 502      -9.976   4.596  16.689  1.00141.18     0.019 A 
HETATM    8  C14 MIQ B 502      -9.622   3.267  16.119  1.00138.77     0.033 A 
HETATM    9  C15 MIQ B 502     -10.440   2.053  15.570  1.00142.10     0.195 A 
HETATM   10  N17 MIQ B 502      -9.548   1.149  15.199  1.00139.42    -0.288 N 
HETATM   11  O16 MIQ B 502     -11.830   1.949  15.491  1.00148.93    -0.171 OA
ENDROOT
BRANCH  10  12
HETATM   12  C18 MIQ B 502      -9.951  -0.131  14.648  1.00139.82     0.187 C 
HETATM   13  C19 MIQ B 502      -9.190  -1.226  15.405  1.00140.06     0.247 C 
HETATM   14  O25 MIQ B 502      -9.208  -1.229  16.585  1.00143.95    -0.271 OA
HETATM   15  N20 MIQ B 502      -8.454  -2.263  14.712  1.00140.02    -0.296 N 
HETATM   16  H13 MIQ B 502      -7.956  -2.969  15.218  1.00142.77     0.171 HD
HETATM   17  C21 MIQ B 502      -8.439  -2.232  13.272  1.00142.22     0.224 C 
HETATM   18  C22 MIQ B 502      -8.466  -0.864  12.620  1.00139.52     0.106 C 
HETATM   19  O24 MIQ B 502      -8.413  -3.226  12.633  1.00146.13    -0.273 OA
HETATM   20  C23 MIQ B 502      -9.707  -0.162  13.140  1.00139.15     0.045 C 
ENDBRANCH  10  12
BRANCH   5  21
HETATM   21  N6  MIQ B 502      -6.499   6.004  17.398  1.00140.95    -0.377 N 
HETATM   22  C7  MIQ B 502      -6.490   7.362  16.882  1.00142.12     0.149 C 
HETATM   23  C8  MIQ B 502      -5.086   7.954  16.865  1.00144.10     0.187 C 
HETATM   24  O9  MIQ B 502      -4.404   7.769  18.069  1.00148.65    -0.388 OA
HETATM   25  C10 MIQ B 502      -4.920   6.920  19.052  1.00147.44     0.187 C 
HETATM   26  C11 MIQ B 502      -5.757   5.723  18.615  1.00144.08     0.149 C 
ENDBRANCH   5  21
TORSDOF 2
ENDMDL
MODEL 7
REMARK VINA RESULT:      -6.1      6.070      9.746
REMARK  2 active torsions:
REMARK  status: ('A' for Active; 'I' for Inactive)
REMARK    1  A    between atoms: C5_5  and  N6_21 
REMARK    2  A    between atoms: C18_14  and  N17_19 
ROOT
HETATM    1  O1  MIQ B 502     -19.582   5.063  13.256  1.00142.91    -0.171 OA
HETATM    2  C2  MIQ B 502     -19.045   3.852  13.697  1.00141.17     0.195 A 
HETATM    3  C3  MIQ B 502     -19.849   2.640  14.268  1.00141.71     0.035 A 
HETATM    4  C4  MIQ B 502     -21.292   2.395  14.503  1.00142.86     0.046 A 
HETATM    5  C5  MIQ B 502     -21.729   1.161  15.046  1.00139.53     0.031 A 
HETATM    6  C12 MIQ B 502     -20.755   0.130  15.374  1.00139.38     0.030 A 
HETATM    7  C13 MIQ B 502     -19.372   0.364  15.148  1.00141.18     0.019 A 
HETATM    8  C14 MIQ B 502     -18.919   1.661  14.575  1.00138.77     0.033 A 
HETATM    9  C15 MIQ B 502     -17.529   2.268  14.192  1.00142.10     0.195 A 
HETATM   10  N17 MIQ B 502     -17.777   3.479  13.722  1.00139.42    -0.288 N 
HETATM   11  O16 MIQ B 502     -16.283   1.652  14.325  1.00148.93    -0.171 OA
ENDROOT
BRANCH  10  12
HETATM   12  C18 MIQ B 502     -16.706   4.352  13.278  1.00139.82     0.187 C 
HETATM   13  C19 MIQ B 502     -15.809   3.548  12.330  1.00140.06     0.247 C 
HETATM   14  O25 MIQ B 502     -16.300   2.962  11.431  1.00143.95    -0.271 OA
HETATM   15  N20 MIQ B 502     -14.372   3.492  12.502  1.00140.02    -0.296 N 
HETATM   16  H13 MIQ B 502     -13.798   2.958  11.880  1.00142.77     0.171 HD
HETATM   17  C21 MIQ B 502     -13.797   4.207  13.613  1.00142.22     0.224 C 
HETATM   18  C22 MIQ B 502     -14.632   4.289  14.876  1.00139.52     0.106 C 
HETATM   19  O24 MIQ B 502     -12.730   4.709  13.538  1.00146.13    -0.273 OA
HETATM   20  C23 MIQ B 502     -15.953   4.923  14.479  1.00139.15     0.045 C 
ENDBRANCH  10  12
BRANCH   5  21
HETATM   21  N6  MIQ B 502     -23.144   0.940  15.285  1.00140.95    -0.377 N 
HETATM   22  C7  MIQ B 502     -24.105   1.785  14.598  1.00142.12     0.149 C 
HETATM   23  C8  MIQ B 502     -25.412   1.905  15.371  1.00144.10     0.187 C 
HETATM   24  O9  MIQ B 502     -25.903   0.672  15.803  1.00148.65    -0.388 OA
HETATM   25  C10 MIQ B 502     -25.114  -0.477  15.708  1.00147.44     0.187 C 
HETATM   26  C11 MIQ B 502     -23.600  -0.333  15.818  1.00144.08     0.149 C 
ENDBRANCH   5  21
TORSDOF 2
ENDMDL
MODEL 8
REMARK VINA RESULT:      -6.0      4.271      5.572
REMARK  2 active torsions:
REMARK  status: ('A' for Active; 'I' for Inactive)
REMARK    1  A    between atoms: C5_5  and  N6_21 
REMARK    2  A    between atoms: C18_14  and  N17_19 
ROOT
HETATM    1  O1  MIQ B 502     -11.653   1.387  14.824  1.00142.91    -0.171 OA
HETATM    2  C2  MIQ B 502     -11.455   0.005  14.856  1.00141.17     0.195 A 
HETATM    3  C3  MIQ B 502     -12.263  -1.022  15.711  1.00141.71     0.035 A 
HETATM    4  C4  MIQ B 502     -13.388  -0.891  16.667  1.00142.86     0.046 A 
HETATM    5  C5  MIQ B 502     -13.925  -2.038  17.304  1.00139.53     0.031 A 
HETATM    6  C12 MIQ B 502     -13.368  -3.352  17.015  1.00139.38     0.030 A 
HETATM    7  C13 MIQ B 502     -12.291  -3.479  16.098  1.00141.18     0.019 A 
HETATM    8  C14 MIQ B 502     -11.732  -2.271  15.431  1.00138.77     0.033 A 
HETATM    9  C15 MIQ B 502     -10.589  -2.017  14.395  1.00142.10     0.195 A 
HETATM   10  N17 MIQ B 502     -10.570  -0.711  14.184  1.00139.42    -0.288 N 
HETATM   11  O16 MIQ B 502      -9.757  -2.977  13.816  1.00148.93    -0.171 OA
ENDROOT
BRANCH  10  12
HETATM   12  C18 MIQ B 502      -9.612  -0.104  13.279  1.00139.82     0.187 C 
HETATM   13  C19 MIQ B 502      -9.873  -0.666  11.876  1.00140.06     0.247 C 
HETATM   14  O25 MIQ B 502     -10.969  -0.640  11.440  1.00143.95    -0.271 OA
HETATM   15  N20 MIQ B 502      -8.809  -1.223  11.066  1.00140.02    -0.296 N 
HETATM   16  H13 MIQ B 502      -8.994  -1.593  10.155  1.00142.77     0.171 HD
HETATM   17  C21 MIQ B 502      -7.482  -1.253  11.625  1.00142.22     0.224 C 
HETATM   18  C22 MIQ B 502      -7.378  -1.461  13.123  1.00139.52     0.106 C 
HETATM   19  O24 MIQ B 502      -6.523  -1.118  10.947  1.00146.13    -0.273 OA
HETATM   20  C23 MIQ B 502      -8.187  -0.350  13.770  1.00139.15     0.045 C 
ENDBRANCH  10  12
BRANCH   5  21
HETATM   21  N6  MIQ B 502     -15.017  -1.894  18.249  1.00140.95    -0.377 N 
HETATM   22  C7  MIQ B 502     -16.279  -1.352  17.775  1.00142.12     0.149 C 
HETATM   23  C8  MIQ B 502     -17.060  -0.670  18.891  1.00144.10     0.187 C 
HETATM   24  O9  MIQ B 502     -17.141  -1.444  20.050  1.00148.65    -0.388 OA
HETATM   25  C10 MIQ B 502     -16.368  -2.601  20.183  1.00147.44     0.187 C 
HETATM   26  C11 MIQ B 502     -15.014  -2.658  19.484  1.00144.08     0.149 C 
ENDBRANCH   5  21
TORSDOF 2
ENDMDL
MODEL 9
REMARK VINA RESULT:      -5.9      3.917      6.499
REMARK  2 active torsions:
REMARK  status: ('A' for Active; 'I' for Inactive)
REMARK    1  A    between atoms: C5_5  and  N6_21 
REMARK    2  A    between atoms: C18_14  and  N17_19 
ROOT
HETATM    1  O1  MIQ B 502      -9.919   0.784  16.682  1.00142.91    -0.171 OA
HETATM    2  C2  MIQ B 502      -8.905   0.937  15.734  1.00141.17     0.195 A 
HETATM    3  C3  MIQ B 502      -7.738   1.974  15.791  1.00141.71     0.035 A 
HETATM    4  C4  MIQ B 502      -7.356   3.025  16.764  1.00142.86     0.046 A 
HETATM    5  C5  MIQ B 502      -6.211   3.829  16.537  1.00139.53     0.031 A 
HETATM    6  C12 MIQ B 502      -5.406   3.620  15.342  1.00139.38     0.030 A 
HETATM    7  C13 MIQ B 502      -5.772   2.612  14.410  1.00141.18     0.019 A 
HETATM    8  C14 MIQ B 502      -6.974   1.769  14.654  1.00138.77     0.033 A 
HETATM    9  C15 MIQ B 502      -7.670   0.598  13.887  1.00142.10     0.195 A 
HETATM   10  N17 MIQ B 502      -8.717   0.253  14.619  1.00139.42    -0.288 N 
HETATM   11  O16 MIQ B 502      -7.266   0.036  12.675  1.00148.93    -0.171 OA
ENDROOT
BRANCH  10  12
HETATM   12  C18 MIQ B 502      -9.617  -0.806  14.201  1.00139.82     0.187 C 
HETATM   13  C19 MIQ B 502     -11.044  -0.247  14.238  1.00140.06     0.247 C 
HETATM   14  O25 MIQ B 502     -11.279   0.771  13.690  1.00143.95    -0.271 OA
HETATM   15  N20 MIQ B 502     -12.118  -0.939  14.921  1.00140.02    -0.296 N 
HETATM   16  H13 MIQ B 502     -13.044  -0.561  14.943  1.00142.77     0.171 HD
HETATM   17  C21 MIQ B 502     -11.805  -2.175  15.591  1.00142.22     0.224 C 
HETATM   18  C22 MIQ B 502     -10.423  -2.286  16.205  1.00139.52     0.106 C 
HETATM   19  O24 MIQ B 502     -12.586  -3.059  15.653  1.00146.13    -0.273 OA
HETATM   20  C23 MIQ B 502      -9.431  -2.040  15.083  1.00139.15     0.045 C 
ENDBRANCH  10  12
BRANCH   5  21
HETATM   21  N6  MIQ B 502      -5.856   4.865  17.491  1.00140.95    -0.377 N 
HETATM   22  C7  MIQ B 502      -6.114   6.251  17.139  1.00142.12     0.149 C 
HETATM   23  C8  MIQ B 502      -5.167   7.205  17.856  1.00144.10     0.187 C 
HETATM   24  O9  MIQ B 502      -5.066   6.945  19.224  1.00148.65    -0.388 OA
HETATM   25  C10 MIQ B 502      -5.615   5.779  19.765  1.00147.44     0.187 C 
HETATM   26  C11 MIQ B 502      -5.678   4.530  18.893  1.00144.08     0.149 C 
ENDBRANCH   5  21
TORSDOF 2
ENDMDL
