MODEL 1
REMARK VINA RESULT:      -6.8      0.000      0.000
REMARK  2 active torsions:
REMARK  status: ('A' for Active; 'I' for Inactive)
REMARK    1  A    between atoms: C5_5  and  N6_21 
REMARK    2  A    between atoms: C18_14  and  N17_19 
ROOT
HETATM    1  O1  MIQ B 502      19.043  10.181 -13.581  1.00142.91    -0.171 OA
HETATM    2  C2  MIQ B 502      18.236   9.743 -14.633  1.00141.17     0.195 A 
HETATM    3  C3  MIQ B 502      16.706  10.012 -14.795  1.00141.71     0.035 A 
HETATM    4  C4  MIQ B 502      15.708  10.745 -13.979  1.00142.86     0.046 A 
HETATM    5  C5  MIQ B 502      14.355  10.818 -14.398  1.00139.53     0.031 A 
HETATM    6  C12 MIQ B 502      13.946  10.171 -15.636  1.00139.38     0.030 A 
HETATM    7  C13 MIQ B 502      14.902   9.470 -16.418  1.00141.18     0.019 A 
HETATM    8  C14 MIQ B 502      16.321   9.398 -15.975  1.00138.77     0.033 A 
HETATM    9  C15 MIQ B 502      17.620   8.744 -16.550  1.00142.10     0.195 A 
HETATM   10  N17 MIQ B 502      18.584   9.031 -15.691  1.00139.42    -0.288 N 
HETATM   11  O16 MIQ B 502      17.733   8.006 -17.729  1.00148.93    -0.171 OA
ENDROOT
BRANCH  10  12
HETATM   12  C18 MIQ B 502      19.944   8.566 -15.895  1.00139.82     0.187 C 
HETATM   13  C19 MIQ B 502      20.360   8.950 -17.320  1.00140.06     0.247 C 
HETATM   14  O25 MIQ B 502      20.217  10.064 -17.681  1.00143.95    -0.271 OA
HETATM   15  N20 MIQ B 502      20.932   7.984 -18.235  1.00140.02    -0.296 N 
HETATM   16  H13 MIQ B 502      21.194   8.246 -19.165  1.00142.77     0.171 HD
HETATM   17  C21 MIQ B 502      21.087   6.628 -17.774  1.00142.22     0.224 C 
HETATM   18  C22 MIQ B 502      20.039   6.113 -16.807  1.00139.52     0.106 C 
HETATM   19  O24 MIQ B 502      21.991   5.954 -18.130  1.00146.13    -0.273 OA
HETATM   20  C23 MIQ B 502      20.039   7.065 -15.625  1.00139.15     0.045 C 
ENDBRANCH  10  12
BRANCH   5  21
HETATM   21  N6  MIQ B 502      13.386  11.526 -13.582  1.00140.95    -0.377 N 
HETATM   22  C7  MIQ B 502      13.062  10.994 -12.269  1.00142.12     0.149 C 
HETATM   23  C8  MIQ B 502      11.663  11.397 -11.822  1.00144.10     0.187 C 
HETATM   24  O9  MIQ B 502      11.408  12.759 -11.993  1.00148.65    -0.388 OA
HETATM   25  C10 MIQ B 502      12.295  13.559 -12.718  1.00147.44     0.187 C 
HETATM   26  C11 MIQ B 502      13.091  12.923 -13.853  1.00144.08     0.149 C 
ENDBRANCH   5  21
TORSDOF 2
ENDMDL
MODEL 2
REMARK VINA RESULT:      -6.7      1.712      8.560
REMARK  2 active torsions:
REMARK  status: ('A' for Active; 'I' for Inactive)
REMARK    1  A    between atoms: C5_5  and  N6_21 
REMARK    2  A    between atoms: C18_14  and  N17_19 
ROOT
HETATM    1  O1  MIQ B 502      16.358  11.948 -12.031  1.00142.91    -0.171 OA
HETATM    2  C2  MIQ B 502      15.482  11.357 -12.944  1.00141.17     0.195 A 
HETATM    3  C3  MIQ B 502      15.886  10.528 -14.206  1.00141.71     0.035 A 
HETATM    4  C4  MIQ B 502      17.189  10.132 -14.790  1.00142.86     0.046 A 
HETATM    5  C5  MIQ B 502      17.236   9.355 -15.975  1.00139.53     0.031 A 
HETATM    6  C12 MIQ B 502      15.997   8.945 -16.620  1.00139.38     0.030 A 
HETATM    7  C13 MIQ B 502      14.747   9.324 -16.059  1.00141.18     0.019 A 
HETATM    8  C14 MIQ B 502      14.704  10.138 -14.814  1.00138.77     0.033 A 
HETATM    9  C15 MIQ B 502      13.560  10.727 -13.925  1.00142.10     0.195 A 
HETATM   10  N17 MIQ B 502      14.161  11.368 -12.935  1.00139.42    -0.288 N 
HETATM   11  O16 MIQ B 502      12.187  10.601 -14.138  1.00148.93    -0.171 OA
ENDROOT
BRANCH  10  12
HETATM   12  C18 MIQ B 502      13.401  12.061 -11.911  1.00139.82     0.187 C 
HETATM   13  C19 MIQ B 502      12.324  11.099 -11.396  1.00140.06     0.247 C 
HETATM   14  O25 MIQ B 502      12.637  10.014 -11.054  1.00143.95    -0.271 OA
HETATM   15  N20 MIQ B 502      10.931  11.486 -11.312  1.00140.02    -0.296 N 
HETATM   16  H13 MIQ B 502      10.236  10.846 -10.979  1.00142.77     0.171 HD
HETATM   17  C21 MIQ B 502      10.572  12.812 -11.745  1.00142.22     0.224 C 
HETATM   18  C22 MIQ B 502      11.372  13.393 -12.895  1.00139.52     0.106 C 
HETATM   19  O24 MIQ B 502       9.700  13.417 -11.225  1.00146.13    -0.273 OA
HETATM   20  C23 MIQ B 502      12.828  13.364 -12.465  1.00139.15     0.045 C 
ENDBRANCH  10  12
BRANCH   5  21
HETATM   21  N6  MIQ B 502      18.519   8.986 -16.545  1.00140.95    -0.377 N 
HETATM   22  C7  MIQ B 502      18.549   8.429 -17.886  1.00142.12     0.149 C 
HETATM   23  C8  MIQ B 502      19.758   7.528 -18.102  1.00144.10     0.187 C 
HETATM   24  O9  MIQ B 502      20.952   8.109 -17.669  1.00148.65    -0.388 OA
HETATM   25  C10 MIQ B 502      20.935   9.286 -16.917  1.00147.44     0.187 C 
HETATM   26  C11 MIQ B 502      19.743   9.551 -16.004  1.00144.08     0.149 C 
ENDBRANCH   5  21
TORSDOF 2
ENDMDL
MODEL 3
REMARK VINA RESULT:      -6.6      4.831      7.304
REMARK  2 active torsions:
REMARK  status: ('A' for Active; 'I' for Inactive)
REMARK    1  A    between atoms: C5_5  and  N6_21 
REMARK    2  A    between atoms: C18_14  and  N17_19 
ROOT
HETATM    1  O1  MIQ B 502      19.318   7.351 -10.566  1.00142.91    -0.171 OA
HETATM    2  C2  MIQ B 502      19.662   6.574 -11.674  1.00141.17     0.195 A 
HETATM    3  C3  MIQ B 502      19.521   6.991 -13.173  1.00141.71     0.035 A 
HETATM    4  C4  MIQ B 502      19.034   8.217 -13.848  1.00142.86     0.046 A 
HETATM    5  C5  MIQ B 502      19.029   8.302 -15.263  1.00139.53     0.031 A 
HETATM    6  C12 MIQ B 502      19.506   7.179 -16.056  1.00139.38     0.030 A 
HETATM    7  C13 MIQ B 502      19.975   6.004 -15.410  1.00141.18     0.019 A 
HETATM    8  C14 MIQ B 502      19.980   5.921 -13.924  1.00138.77     0.033 A 
HETATM    9  C15 MIQ B 502      20.408   4.833 -12.885  1.00142.10     0.195 A 
HETATM   10  N17 MIQ B 502      20.171   5.354 -11.692  1.00139.42    -0.288 N 
HETATM   11  O16 MIQ B 502      20.932   3.570 -13.166  1.00148.93    -0.171 OA
ENDROOT
BRANCH  10  12
HETATM   12  C18 MIQ B 502      20.436   4.610 -10.475  1.00139.82     0.187 C 
HETATM   13  C19 MIQ B 502      19.148   4.599  -9.643  1.00140.06     0.247 C 
HETATM   14  O25 MIQ B 502      18.137   4.265 -10.151  1.00143.95    -0.271 OA
HETATM   15  N20 MIQ B 502      19.138   4.982  -8.246  1.00140.02    -0.296 N 
HETATM   16  H13 MIQ B 502      18.289   4.977  -7.716  1.00142.77     0.171 HD
HETATM   17  C21 MIQ B 502      20.382   5.396  -7.651  1.00142.22     0.224 C 
HETATM   18  C22 MIQ B 502      21.357   6.130  -8.551  1.00139.52     0.106 C 
HETATM   19  O24 MIQ B 502      20.631   5.169  -6.518  1.00146.13    -0.273 OA
HETATM   20  C23 MIQ B 502      21.627   5.214  -9.732  1.00139.15     0.045 C 
ENDBRANCH  10  12
BRANCH   5  21
HETATM   21  N6  MIQ B 502      18.534   9.504 -15.911  1.00140.95    -0.377 N 
HETATM   22  C7  MIQ B 502      18.890   9.740 -17.300  1.00142.12     0.149 C 
HETATM   23  C8  MIQ B 502      18.886  11.224 -17.643  1.00144.10     0.187 C 
HETATM   24  O9  MIQ B 502      17.737  11.882 -17.201  1.00148.65    -0.388 OA
HETATM   25  C10 MIQ B 502      16.842  11.241 -16.340  1.00147.44     0.187 C 
HETATM   26  C11 MIQ B 502      17.385  10.203 -15.364  1.00144.08     0.149 C 
ENDBRANCH   5  21
TORSDOF 2
ENDMDL
MODEL 4
REMARK VINA RESULT:      -6.3     21.722     23.097
REMARK  2 active torsions:
REMARK  status: ('A' for Active; 'I' for Inactive)
REMARK    1  A    between atoms: C5_5  and  N6_21 
REMARK    2  A    between atoms: C18_14  and  N17_19 
ROOT
HETATM    1  O1  MIQ B 502       5.192  -7.413 -28.615  1.00142.91    -0.171 OA
HETATM    2  C2  MIQ B 502       5.515  -6.953 -27.336  1.00141.17     0.195 A 
HETATM    3  C3  MIQ B 502       4.663  -5.975 -26.466  1.00141.71     0.035 A 
HETATM    4  C4  MIQ B 502       3.368  -5.286 -26.678  1.00142.86     0.046 A 
HETATM    5  C5  MIQ B 502       2.834  -4.438 -25.675  1.00139.53     0.031 A 
HETATM    6  C12 MIQ B 502       3.562  -4.244 -24.430  1.00139.38     0.030 A 
HETATM    7  C13 MIQ B 502       4.803  -4.905 -24.225  1.00141.18     0.019 A 
HETATM    8  C14 MIQ B 502       5.358  -5.796 -25.281  1.00138.77     0.033 A 
HETATM    9  C15 MIQ B 502       6.648  -6.669 -25.416  1.00142.10     0.195 A 
HETATM   10  N17 MIQ B 502       6.578  -7.242 -26.607  1.00139.42    -0.288 N 
HETATM   11  O16 MIQ B 502       7.666  -6.809 -24.471  1.00148.93    -0.171 OA
ENDROOT
BRANCH  10  12
HETATM   12  C18 MIQ B 502       7.627  -8.122 -27.086  1.00139.82     0.187 C 
HETATM   13  C19 MIQ B 502       8.140  -7.557 -28.417  1.00140.06     0.247 C 
HETATM   14  O25 MIQ B 502       8.456  -6.422 -28.477  1.00143.95    -0.271 OA
HETATM   15  N20 MIQ B 502       8.253  -8.381 -29.603  1.00140.02    -0.296 N 
HETATM   16  H13 MIQ B 502       8.583  -7.998 -30.467  1.00142.77     0.171 HD
HETATM   17  C21 MIQ B 502       7.852  -9.761 -29.507  1.00142.22     0.224 C 
HETATM   18  C22 MIQ B 502       6.702 -10.072 -28.569  1.00139.52     0.106 C 
HETATM   19  O24 MIQ B 502       8.397 -10.607 -30.125  1.00146.13    -0.273 OA
HETATM   20  C23 MIQ B 502       7.109  -9.554 -27.201  1.00139.15     0.045 C 
ENDBRANCH  10  12
BRANCH   5  21
HETATM   21  N6  MIQ B 502       1.572  -3.758 -25.903  1.00140.95    -0.377 N 
HETATM   22  C7  MIQ B 502       0.713  -3.487 -24.763  1.00142.12     0.149 C 
HETATM   23  C8  MIQ B 502      -0.753  -3.391 -25.165  1.00144.10     0.187 C 
HETATM   24  O9  MIQ B 502      -0.960  -2.572 -26.276  1.00148.65    -0.388 OA
HETATM   25  C10 MIQ B 502       0.125  -2.113 -27.029  1.00147.44     0.187 C 
HETATM   26  C11 MIQ B 502       1.372  -2.986 -27.117  1.00144.08     0.149 C 
ENDBRANCH   5  21
TORSDOF 2
ENDMDL
MODEL 5
REMARK VINA RESULT:      -6.3     17.423     20.737
REMARK  2 active torsions:
REMARK  status: ('A' for Active; 'I' for Inactive)
REMARK    1  A    between atoms: C5_5  and  N6_21 
REMARK    2  A    between atoms: C18_14  and  N17_19 
ROOT
HETATM    1  O1  MIQ B 502      18.382  -7.504 -20.974  1.00142.91    -0.171 OA
HETATM    2  C2  MIQ B 502      19.662  -7.832 -21.427  1.00141.17     0.195 A 
HETATM    3  C3  MIQ B 502      20.549  -9.010 -20.912  1.00141.71     0.035 A 
HETATM    4  C4  MIQ B 502      20.351 -10.061 -19.885  1.00142.86     0.046 A 
HETATM    5  C5  MIQ B 502      21.366 -11.019 -19.636  1.00139.53     0.031 A 
HETATM    6  C12 MIQ B 502      22.608 -10.970 -20.394  1.00139.38     0.030 A 
HETATM    7  C13 MIQ B 502      22.797  -9.964 -21.379  1.00141.18     0.019 A 
HETATM    8  C14 MIQ B 502      21.728  -8.962 -21.638  1.00138.77     0.033 A 
HETATM    9  C15 MIQ B 502      21.572  -7.747 -22.610  1.00142.10     0.195 A 
HETATM   10  N17 MIQ B 502      20.376  -7.236 -22.367  1.00139.42    -0.288 N 
HETATM   11  O16 MIQ B 502      22.509  -7.296 -23.541  1.00148.93    -0.171 OA
ENDROOT
BRANCH  10  12
HETATM   12  C18 MIQ B 502      19.890  -6.071 -23.083  1.00139.82     0.187 C 
HETATM   13  C19 MIQ B 502      20.024  -6.355 -24.584  1.00140.06     0.247 C 
HETATM   14  O25 MIQ B 502      19.582  -7.357 -25.022  1.00143.95    -0.271 OA
HETATM   15  N20 MIQ B 502      20.675  -5.424 -25.483  1.00140.02    -0.296 N 
HETATM   16  H13 MIQ B 502      20.761  -5.624 -26.459  1.00142.77     0.171 HD
HETATM   17  C21 MIQ B 502      21.216  -4.212 -24.922  1.00142.22     0.224 C 
HETATM   18  C22 MIQ B 502      21.772  -4.302 -23.514  1.00139.52     0.106 C 
HETATM   19  O24 MIQ B 502      21.220  -3.198 -25.530  1.00146.13    -0.273 OA
HETATM   20  C23 MIQ B 502      20.646  -4.820 -22.638  1.00139.15     0.045 C 
ENDBRANCH  10  12
BRANCH   5  21
HETATM   21  N6  MIQ B 502      21.165 -12.034 -18.617  1.00140.95    -0.377 N 
HETATM   22  C7  MIQ B 502      21.537 -13.405 -18.920  1.00142.12     0.149 C 
HETATM   23  C8  MIQ B 502      20.726 -14.407 -18.107  1.00144.10     0.187 C 
HETATM   24  O9  MIQ B 502      20.674 -14.089 -16.749  1.00148.65    -0.388 OA
HETATM   25  C10 MIQ B 502      21.134 -12.850 -16.294  1.00147.44     0.187 C 
HETATM   26  C11 MIQ B 502      21.029 -11.646 -17.224  1.00144.08     0.149 C 
ENDBRANCH   5  21
TORSDOF 2
ENDMDL
MODEL 6
REMARK VINA RESULT:      -6.1      9.755     12.358
REMARK  2 active torsions:
REMARK  status: ('A' for Active; 'I' for Inactive)
REMARK    1  A    between atoms: C5_5  and  N6_21 
REMARK    2  A    between atoms: C18_14  and  N17_19 
ROOT
HETATM    1  O1  MIQ B 502      10.076  17.316  -7.724  1.00142.91    -0.171 OA
HETATM    2  C2  MIQ B 502      10.735  16.631  -8.747  1.00141.17     0.195 A 
HETATM    3  C3  MIQ B 502      10.077  16.045 -10.037  1.00141.71     0.035 A 
HETATM    4  C4  MIQ B 502       8.688  16.025 -10.553  1.00142.86     0.046 A 
HETATM    5  C5  MIQ B 502       8.393  15.401 -11.792  1.00139.53     0.031 A 
HETATM    6  C12 MIQ B 502       9.461  14.777 -12.560  1.00139.38     0.030 A 
HETATM    7  C13 MIQ B 502      10.793  14.797 -12.066  1.00141.18     0.019 A 
HETATM    8  C14 MIQ B 502      11.098  15.456 -10.766  1.00138.77     0.033 A 
HETATM    9  C15 MIQ B 502      12.396  15.678  -9.924  1.00142.10     0.195 A 
HETATM   10  N17 MIQ B 502      12.022  16.343  -8.844  1.00139.42    -0.288 N 
HETATM   11  O16 MIQ B 502      13.686  15.255 -10.250  1.00148.93    -0.171 OA
ENDROOT
BRANCH  10  12
HETATM   12  C18 MIQ B 502      12.975  16.714  -7.814  1.00139.82     0.187 C 
HETATM   13  C19 MIQ B 502      12.444  16.191  -6.474  1.00140.06     0.247 C 
HETATM   14  O25 MIQ B 502      12.118  15.060  -6.386  1.00143.95    -0.271 OA
HETATM   15  N20 MIQ B 502      12.336  17.045  -5.309  1.00140.02    -0.296 N 
HETATM   16  H13 MIQ B 502      11.981  16.693  -4.442  1.00142.77     0.171 HD
HETATM   17  C21 MIQ B 502      12.730  18.424  -5.445  1.00142.22     0.224 C 
HETATM   18  C22 MIQ B 502      12.480  19.074  -6.792  1.00139.52     0.106 C 
HETATM   19  O24 MIQ B 502      13.227  19.015  -4.551  1.00146.13    -0.273 OA
HETATM   20  C23 MIQ B 502      13.204  18.225  -7.821  1.00139.15     0.045 C 
ENDBRANCH  10  12
BRANCH   5  21
HETATM   21  N6  MIQ B 502       7.025  15.375 -12.278  1.00140.95    -0.377 N 
HETATM   22  C7  MIQ B 502       6.172  16.521 -12.012  1.00142.12     0.149 C 
HETATM   23  C8  MIQ B 502       4.699  16.136 -11.976  1.00144.10     0.187 C 
HETATM   24  O9  MIQ B 502       4.316  15.346 -13.061  1.00148.65    -0.388 OA
HETATM   25  C10 MIQ B 502       5.278  14.809 -13.920  1.00147.44     0.187 C 
HETATM   26  C11 MIQ B 502       6.654  14.473 -13.354  1.00144.08     0.149 C 
ENDBRANCH   5  21
TORSDOF 2
ENDMDL
MODEL 7
REMARK VINA RESULT:      -6.1     22.941     25.181
REMARK  2 active torsions:
REMARK  status: ('A' for Active; 'I' for Inactive)
REMARK    1  A    between atoms: C5_5  and  N6_21 
REMARK    2  A    between atoms: C18_14  and  N17_19 
ROOT
HETATM    1  O1  MIQ B 502      19.014  -5.255   1.740  1.00142.91    -0.171 OA
HETATM    2  C2  MIQ B 502      20.127  -5.991   2.151  1.00141.17     0.195 A 
HETATM    3  C3  MIQ B 502      21.568  -5.894   1.556  1.00141.71     0.035 A 
HETATM    4  C4  MIQ B 502      22.172  -5.075   0.477  1.00142.86     0.046 A 
HETATM    5  C5  MIQ B 502      23.546  -5.212   0.158  1.00139.53     0.031 A 
HETATM    6  C12 MIQ B 502      24.368  -6.162   0.894  1.00139.38     0.030 A 
HETATM    7  C13 MIQ B 502      23.790  -6.945   1.929  1.00141.18     0.019 A 
HETATM    8  C14 MIQ B 502      22.347  -6.796   2.262  1.00138.77     0.033 A 
HETATM    9  C15 MIQ B 502      21.385  -7.457   3.301  1.00142.10     0.195 A 
HETATM   10  N17 MIQ B 502      20.200  -6.900   3.108  1.00139.42    -0.288 N 
HETATM   11  O16 MIQ B 502      21.713  -8.438   4.238  1.00148.93    -0.171 OA
ENDROOT
BRANCH  10  12
HETATM   12  C18 MIQ B 502      19.044  -7.287   3.895  1.00139.82     0.187 C 
HETATM   13  C19 MIQ B 502      19.426  -7.171   5.376  1.00140.06     0.247 C 
HETATM   14  O25 MIQ B 502      19.912  -6.170   5.769  1.00143.95    -0.271 OA
HETATM   15  N20 MIQ B 502      19.203  -8.255   6.310  1.00140.02    -0.296 N 
HETATM   16  H13 MIQ B 502      19.463  -8.170   7.273  1.00142.77     0.171 HD
HETATM   17  C21 MIQ B 502      18.619  -9.471   5.804  1.00142.22     0.224 C 
HETATM   18  C22 MIQ B 502      18.977  -9.859   4.382  1.00139.52     0.106 C 
HETATM   19  O24 MIQ B 502      17.892 -10.129   6.465  1.00146.13    -0.273 OA
HETATM   20  C23 MIQ B 502      18.578  -8.688   3.503  1.00139.15     0.045 C 
ENDBRANCH  10  12
BRANCH   5  21
HETATM   21  N6  MIQ B 502      24.121  -4.415  -0.911  1.00140.95    -0.377 N 
HETATM   22  C7  MIQ B 502      23.455  -3.181  -1.292  1.00142.12     0.149 C 
HETATM   23  C8  MIQ B 502      23.734  -2.809  -2.742  1.00144.10     0.187 C 
HETATM   24  O9  MIQ B 502      25.089  -2.883  -3.072  1.00148.65    -0.388 OA
HETATM   25  C10 MIQ B 502      26.001  -3.468  -2.189  1.00147.44     0.187 C 
HETATM   26  C11 MIQ B 502      25.516  -4.589  -1.276  1.00144.08     0.149 C 
ENDBRANCH   5  21
TORSDOF 2
ENDMDL
MODEL 8
REMARK VINA RESULT:      -6.1     16.796     21.019
REMARK  2 active torsions:
REMARK  status: ('A' for Active; 'I' for Inactive)
REMARK    1  A    between atoms: C5_5  and  N6_21 
REMARK    2  A    between atoms: C18_14  and  N17_19 
ROOT
HETATM    1  O1  MIQ B 502      20.874  -6.826 -21.334  1.00142.91    -0.171 OA
HETATM    2  C2  MIQ B 502      20.917  -7.940 -22.175  1.00141.17     0.195 A 
HETATM    3  C3  MIQ B 502      20.950  -9.435 -21.723  1.00141.71     0.035 A 
HETATM    4  C4  MIQ B 502      20.943 -10.100 -20.398  1.00142.86     0.046 A 
HETATM    5  C5  MIQ B 502      20.978 -11.514 -20.306  1.00139.53     0.031 A 
HETATM    6  C12 MIQ B 502      21.020 -12.317 -21.519  1.00139.38     0.030 A 
HETATM    7  C13 MIQ B 502      21.025 -11.680 -22.790  1.00141.18     0.019 A 
HETATM    8  C14 MIQ B 502      20.986 -10.195 -22.881  1.00138.77     0.033 A 
HETATM    9  C15 MIQ B 502      20.976  -9.166 -24.058  1.00142.10     0.195 A 
HETATM   10  N17 MIQ B 502      20.934  -7.969 -23.496  1.00139.42    -0.288 N 
HETATM   11  O16 MIQ B 502      21.008  -9.457 -25.423  1.00148.93    -0.171 OA
ENDROOT
BRANCH  10  12
HETATM   12  C18 MIQ B 502      20.929  -6.757 -24.295  1.00139.82     0.187 C 
HETATM   13  C19 MIQ B 502      22.122  -5.901 -23.854  1.00140.06     0.247 C 
HETATM   14  O25 MIQ B 502      23.195  -6.391 -23.803  1.00143.95    -0.271 OA
HETATM   15  N20 MIQ B 502      21.972  -4.504 -23.502  1.00140.02    -0.296 N 
HETATM   16  H13 MIQ B 502      22.758  -3.958 -23.210  1.00142.77     0.171 HD
HETATM   17  C21 MIQ B 502      20.651  -3.932 -23.562  1.00142.22     0.224 C 
HETATM   18  C22 MIQ B 502      19.495  -4.850 -23.215  1.00139.52     0.106 C 
HETATM   19  O24 MIQ B 502      20.480  -2.805 -23.871  1.00146.13    -0.273 OA
HETATM   20  C23 MIQ B 502      19.589  -6.036 -24.158  1.00139.15     0.045 C 
ENDBRANCH  10  12
BRANCH   5  21
HETATM   21  N6  MIQ B 502      20.986 -12.151 -19.001  1.00140.95    -0.377 N 
HETATM   22  C7  MIQ B 502      21.346 -13.556 -18.917  1.00142.12     0.149 C 
HETATM   23  C8  MIQ B 502      20.719 -14.232 -17.705  1.00144.10     0.187 C 
HETATM   24  O9  MIQ B 502      20.886 -13.501 -16.527  1.00148.65    -0.388 OA
HETATM   25  C10 MIQ B 502      21.375 -12.193 -16.570  1.00147.44     0.187 C 
HETATM   26  C11 MIQ B 502      21.075 -11.341 -17.799  1.00144.08     0.149 C 
ENDBRANCH   5  21
TORSDOF 2
ENDMDL
MODEL 9
REMARK VINA RESULT:      -6.1      6.519     12.742
REMARK  2 active torsions:
REMARK  status: ('A' for Active; 'I' for Inactive)
REMARK    1  A    between atoms: C5_5  and  N6_21 
REMARK    2  A    between atoms: C18_14  and  N17_19 
ROOT
HETATM    1  O1  MIQ B 502       7.390  15.024 -13.934  1.00142.91    -0.171 OA
HETATM    2  C2  MIQ B 502       8.087  15.547 -12.843  1.00141.17     0.195 A 
HETATM    3  C3  MIQ B 502       9.270  14.860 -12.089  1.00141.71     0.035 A 
HETATM    4  C4  MIQ B 502       9.974  13.567 -12.261  1.00142.86     0.046 A 
HETATM    5  C5  MIQ B 502      11.042  13.212 -11.398  1.00139.53     0.031 A 
HETATM    6  C12 MIQ B 502      11.447  14.123 -10.338  1.00139.38     0.030 A 
HETATM    7  C13 MIQ B 502      10.773  15.364 -10.173  1.00141.18     0.019 A 
HETATM    8  C14 MIQ B 502       9.655  15.732 -11.084  1.00138.77     0.033 A 
HETATM    9  C15 MIQ B 502       8.706  16.968 -11.215  1.00142.10     0.195 A 
HETATM   10  N17 MIQ B 502       7.905  16.707 -12.234  1.00139.42    -0.288 N 
HETATM   11  O16 MIQ B 502       8.708  18.111 -10.414  1.00148.93    -0.171 OA
ENDROOT
BRANCH  10  12
HETATM   12  C18 MIQ B 502       6.870  17.638 -12.642  1.00139.82     0.187 C 
HETATM   13  C19 MIQ B 502       5.543  16.870 -12.692  1.00140.06     0.247 C 
HETATM   14  O25 MIQ B 502       5.214  16.227 -11.760  1.00143.95    -0.271 OA
HETATM   15  N20 MIQ B 502       4.677  16.917 -13.853  1.00140.02    -0.296 N 
HETATM   16  H13 MIQ B 502       3.817  16.406 -13.876  1.00142.77     0.171 HD
HETATM   17  C21 MIQ B 502       5.105  17.700 -14.983  1.00142.22     0.224 C 
HETATM   18  C22 MIQ B 502       6.598  17.761 -15.244  1.00139.52     0.106 C 
HETATM   19  O24 MIQ B 502       4.330  18.272 -15.668  1.00146.13    -0.273 OA
HETATM   20  C23 MIQ B 502       7.237  18.292 -13.973  1.00139.15     0.045 C 
ENDBRANCH  10  12
BRANCH   5  21
HETATM   21  N6  MIQ B 502      11.712  11.936 -11.568  1.00140.95    -0.377 N 
HETATM   22  C7  MIQ B 502      13.089  11.932 -12.032  1.00142.12     0.149 C 
HETATM   23  C8  MIQ B 502      13.440  10.641 -12.760  1.00144.10     0.187 C 
HETATM   24  O9  MIQ B 502      13.041   9.498 -12.064  1.00148.65    -0.388 OA
HETATM   25  C10 MIQ B 502      12.208   9.605 -10.947  1.00147.44     0.187 C 
HETATM   26  C11 MIQ B 502      11.208  10.755 -10.890  1.00144.08     0.149 C 
ENDBRANCH   5  21
TORSDOF 2
ENDMDL
