MODEL 1
REMARK VINA RESULT:      -7.1      0.000      0.000
REMARK  2 active torsions:
REMARK  status: ('A' for Active; 'I' for Inactive)
REMARK    1  A    between atoms: C5_5  and  N6_21 
REMARK    2  A    between atoms: C18_14  and  N17_19 
ROOT
HETATM    1  O1  MIQ B 502       6.346  16.989 -17.304  1.00142.91    -0.171 OA
HETATM    2  C2  MIQ B 502       6.850  16.601 -16.060  1.00141.17     0.195 A 
HETATM    3  C3  MIQ B 502       7.475  15.213 -15.711  1.00141.71     0.035 A 
HETATM    4  C4  MIQ B 502       7.720  13.979 -16.496  1.00142.86     0.046 A 
HETATM    5  C5  MIQ B 502       8.323  12.850 -15.886  1.00139.53     0.031 A 
HETATM    6  C12 MIQ B 502       8.705  12.905 -14.482  1.00139.38     0.030 A 
HETATM    7  C13 MIQ B 502       8.471  14.088 -13.730  1.00141.18     0.019 A 
HETATM    8  C14 MIQ B 502       7.840  15.271 -14.376  1.00138.77     0.033 A 
HETATM    9  C15 MIQ B 502       7.439  16.703 -13.894  1.00142.10     0.195 A 
HETATM   10  N17 MIQ B 502       6.909  17.307 -14.944  1.00139.42    -0.288 N 
HETATM   11  O16 MIQ B 502       7.605  17.230 -12.612  1.00148.93    -0.171 OA
ENDROOT
BRANCH  10  12
HETATM   12  C18 MIQ B 502       6.404  18.665 -14.862  1.00139.82     0.187 C 
HETATM   13  C19 MIQ B 502       4.963  18.660 -15.387  1.00140.06     0.247 C 
HETATM   14  O25 MIQ B 502       4.195  17.877 -14.952  1.00143.95    -0.271 OA
HETATM   15  N20 MIQ B 502       4.515  19.595 -16.398  1.00140.02    -0.296 N 
HETATM   16  H13 MIQ B 502       3.573  19.577 -16.737  1.00142.77     0.171 HD
HETATM   17  C21 MIQ B 502       5.474  20.534 -16.920  1.00142.22     0.224 C 
HETATM   18  C22 MIQ B 502       6.909  20.056 -17.022  1.00139.52     0.106 C 
HETATM   19  O24 MIQ B 502       5.156  21.624 -17.248  1.00146.13    -0.273 OA
HETATM   20  C23 MIQ B 502       7.319  19.620 -15.627  1.00139.15     0.045 C 
ENDBRANCH  10  12
BRANCH   5  21
HETATM   21  N6  MIQ B 502       8.543  11.644 -16.662  1.00140.95    -0.377 N 
HETATM   22  C7  MIQ B 502       7.390  10.865 -17.078  1.00142.12     0.149 C 
HETATM   23  C8  MIQ B 502       7.738   9.396 -17.280  1.00144.10     0.187 C 
HETATM   24  O9  MIQ B 502       8.890   9.211 -18.047  1.00148.65    -0.388 OA
HETATM   25  C10 MIQ B 502       9.713  10.296 -18.360  1.00147.44     0.187 C 
HETATM   26  C11 MIQ B 502       9.795  11.458 -17.375  1.00144.08     0.149 C 
ENDBRANCH   5  21
TORSDOF 2
ENDMDL
MODEL 2
REMARK VINA RESULT:      -6.8      2.292      8.299
REMARK  2 active torsions:
REMARK  status: ('A' for Active; 'I' for Inactive)
REMARK    1  A    between atoms: C5_5  and  N6_21 
REMARK    2  A    between atoms: C18_14  and  N17_19 
ROOT
HETATM    1  O1  MIQ B 502       8.845  13.409 -13.255  1.00142.91    -0.171 OA
HETATM    2  C2  MIQ B 502       8.413  13.854 -14.506  1.00141.17     0.195 A 
HETATM    3  C3  MIQ B 502       7.780  15.247 -14.822  1.00141.71     0.035 A 
HETATM    4  C4  MIQ B 502       7.464  16.434 -13.992  1.00142.86     0.046 A 
HETATM    5  C5  MIQ B 502       6.877  17.584 -14.580  1.00139.53     0.031 A 
HETATM    6  C12 MIQ B 502       6.585  17.597 -16.006  1.00139.38     0.030 A 
HETATM    7  C13 MIQ B 502       6.889  16.460 -16.802  1.00141.18     0.019 A 
HETATM    8  C14 MIQ B 502       7.507  15.257 -16.180  1.00138.77     0.033 A 
HETATM    9  C15 MIQ B 502       7.973  13.862 -16.711  1.00142.10     0.195 A 
HETATM   10  N17 MIQ B 502       8.450  13.212 -15.661  1.00139.42    -0.288 N 
HETATM   11  O16 MIQ B 502       7.897  13.400 -18.026  1.00148.93    -0.171 OA
ENDROOT
BRANCH  10  12
HETATM   12  C18 MIQ B 502       8.964  11.861 -15.777  1.00139.82     0.187 C 
HETATM   13  C19 MIQ B 502       9.956  11.836 -16.946  1.00140.06     0.247 C 
HETATM   14  O25 MIQ B 502      10.818  12.640 -16.987  1.00143.95    -0.271 OA
HETATM   15  N20 MIQ B 502       9.868  10.847 -18.001  1.00140.02    -0.296 N 
HETATM   16  H13 MIQ B 502      10.518  10.846 -18.763  1.00142.77     0.171 HD
HETATM   17  C21 MIQ B 502       8.801   9.883 -17.935  1.00142.22     0.224 C 
HETATM   18  C22 MIQ B 502       7.492  10.356 -17.334  1.00139.52     0.106 C 
HETATM   19  O24 MIQ B 502       8.943   8.776 -18.325  1.00146.13    -0.273 OA
HETATM   20  C23 MIQ B 502       7.816  10.867 -15.942  1.00139.15     0.045 C 
ENDBRANCH  10  12
BRANCH   5  21
HETATM   21  N6  MIQ B 502       6.559  18.733 -13.752  1.00140.95    -0.377 N 
HETATM   22  C7  MIQ B 502       5.200  19.246 -13.769  1.00142.12     0.149 C 
HETATM   23  C8  MIQ B 502       5.148  20.729 -13.424  1.00144.10     0.187 C 
HETATM   24  O9  MIQ B 502       5.893  21.049 -12.288  1.00148.65    -0.388 OA
HETATM   25  C10 MIQ B 502       6.756  20.109 -11.719  1.00147.44     0.187 C 
HETATM   26  C11 MIQ B 502       7.414  19.078 -12.630  1.00144.08     0.149 C 
ENDBRANCH   5  21
TORSDOF 2
ENDMDL
MODEL 3
REMARK VINA RESULT:      -6.8      1.680      2.579
REMARK  2 active torsions:
REMARK  status: ('A' for Active; 'I' for Inactive)
REMARK    1  A    between atoms: C5_5  and  N6_21 
REMARK    2  A    between atoms: C18_14  and  N17_19 
ROOT
HETATM    1  O1  MIQ B 502       7.913  16.293 -13.265  1.00142.91    -0.171 OA
HETATM    2  C2  MIQ B 502       7.259  16.601 -14.461  1.00141.17     0.195 A 
HETATM    3  C3  MIQ B 502       7.234  15.720 -15.751  1.00141.71     0.035 A 
HETATM    4  C4  MIQ B 502       7.826  14.407 -16.100  1.00142.86     0.046 A 
HETATM    5  C5  MIQ B 502       7.621  13.848 -17.387  1.00139.53     0.031 A 
HETATM    6  C12 MIQ B 502       6.823  14.568 -18.369  1.00139.38     0.030 A 
HETATM    7  C13 MIQ B 502       6.254  15.827 -18.034  1.00141.18     0.019 A 
HETATM    8  C14 MIQ B 502       6.471  16.408 -16.681  1.00138.77     0.033 A 
HETATM    9  C15 MIQ B 502       6.020  17.722 -15.964  1.00142.10     0.195 A 
HETATM   10  N17 MIQ B 502       6.537  17.670 -14.747  1.00139.42    -0.288 N 
HETATM   11  O16 MIQ B 502       5.233  18.741 -16.504  1.00148.93    -0.171 OA
ENDROOT
BRANCH  10  12
HETATM   12  C18 MIQ B 502       6.336  18.744 -13.792  1.00139.82     0.187 C 
HETATM   13  C19 MIQ B 502       4.826  18.985 -13.671  1.00140.06     0.247 C 
HETATM   14  O25 MIQ B 502       4.112  18.070 -13.461  1.00143.95    -0.271 OA
HETATM   15  N20 MIQ B 502       4.251  20.308 -13.800  1.00140.02    -0.296 N 
HETATM   16  H13 MIQ B 502       3.263  20.451 -13.726  1.00142.77     0.171 HD
HETATM   17  C21 MIQ B 502       5.142  21.408 -14.067  1.00142.22     0.224 C 
HETATM   18  C22 MIQ B 502       6.359  21.107 -14.920  1.00139.52     0.106 C 
HETATM   19  O24 MIQ B 502       4.935  22.489 -13.636  1.00146.13    -0.273 OA
HETATM   20  C23 MIQ B 502       7.111  19.989 -14.221  1.00139.15     0.045 C 
ENDBRANCH  10  12
BRANCH   5  21
HETATM   21  N6  MIQ B 502       8.220  12.568 -17.720  1.00140.95    -0.377 N 
HETATM   22  C7  MIQ B 502       7.425  11.364 -17.550  1.00142.12     0.149 C 
HETATM   23  C8  MIQ B 502       8.295  10.139 -17.303  1.00144.10     0.187 C 
HETATM   24  O9  MIQ B 502       9.353  10.032 -18.207  1.00148.65    -0.388 OA
HETATM   25  C10 MIQ B 502       9.660  11.091 -19.066  1.00147.44     0.187 C 
HETATM   26  C11 MIQ B 502       9.375  12.515 -18.599  1.00144.08     0.149 C 
ENDBRANCH   5  21
TORSDOF 2
ENDMDL
MODEL 4
REMARK VINA RESULT:      -6.7      2.052      7.986
REMARK  2 active torsions:
REMARK  status: ('A' for Active; 'I' for Inactive)
REMARK    1  A    between atoms: C5_5  and  N6_21 
REMARK    2  A    between atoms: C18_14  and  N17_19 
ROOT
HETATM    1  O1  MIQ B 502       6.430  15.076 -18.660  1.00142.91    -0.171 OA
HETATM    2  C2  MIQ B 502       6.988  14.717 -17.431  1.00141.17     0.195 A 
HETATM    3  C3  MIQ B 502       7.143  15.643 -16.183  1.00141.71     0.035 A 
HETATM    4  C4  MIQ B 502       6.787  17.056 -15.912  1.00142.86     0.046 A 
HETATM    5  C5  MIQ B 502       7.059  17.634 -14.646  1.00139.53     0.031 A 
HETATM    6  C12 MIQ B 502       7.691  16.833 -13.607  1.00139.38     0.030 A 
HETATM    7  C13 MIQ B 502       8.031  15.478 -13.866  1.00141.18     0.019 A 
HETATM    8  C14 MIQ B 502       7.741  14.876 -15.196  1.00138.77     0.033 A 
HETATM    9  C15 MIQ B 502       7.958  13.466 -15.835  1.00142.10     0.195 A 
HETATM   10  N17 MIQ B 502       7.485  13.547 -17.068  1.00139.42    -0.288 N 
HETATM   11  O16 MIQ B 502       8.535  12.351 -15.224  1.00148.93    -0.171 OA
ENDROOT
BRANCH  10  12
HETATM   12  C18 MIQ B 502       7.535  12.415 -17.974  1.00139.82     0.187 C 
HETATM   13  C19 MIQ B 502       6.818  11.241 -17.295  1.00140.06     0.247 C 
HETATM   14  O25 MIQ B 502       5.736  11.405 -16.854  1.00143.95    -0.271 OA
HETATM   15  N20 MIQ B 502       7.429   9.933 -17.186  1.00140.02    -0.296 N 
HETATM   16  H13 MIQ B 502       6.953   9.176 -16.735  1.00142.77     0.171 HD
HETATM   17  C21 MIQ B 502       8.754   9.760 -17.724  1.00142.22     0.224 C 
HETATM   18  C22 MIQ B 502       9.684  10.956 -17.641  1.00139.52     0.106 C 
HETATM   19  O24 MIQ B 502       9.096   8.739 -18.210  1.00146.13    -0.273 OA
HETATM   20  C23 MIQ B 502       8.981  12.098 -18.352  1.00139.15     0.045 C 
ENDBRANCH  10  12
BRANCH   5  21
HETATM   21  N6  MIQ B 502       6.719  19.023 -14.400  1.00140.95    -0.377 N 
HETATM   22  C7  MIQ B 502       7.311  20.044 -15.247  1.00142.12     0.149 C 
HETATM   23  C8  MIQ B 502       7.412  21.387 -14.534  1.00144.10     0.187 C 
HETATM   24  O9  MIQ B 502       6.225  21.754 -13.897  1.00148.65    -0.388 OA
HETATM   25  C10 MIQ B 502       5.178  20.838 -13.768  1.00147.44     0.187 C 
HETATM   26  C11 MIQ B 502       5.516  19.355 -13.657  1.00144.08     0.149 C 
ENDBRANCH   5  21
TORSDOF 2
ENDMDL
MODEL 5
REMARK VINA RESULT:      -6.6      1.664      2.124
REMARK  2 active torsions:
REMARK  status: ('A' for Active; 'I' for Inactive)
REMARK    1  A    between atoms: C5_5  and  N6_21 
REMARK    2  A    between atoms: C18_14  and  N17_19 
ROOT
HETATM    1  O1  MIQ B 502       6.410  17.318 -17.672  1.00142.91    -0.171 OA
HETATM    2  C2  MIQ B 502       6.834  16.965 -16.389  1.00141.17     0.195 A 
HETATM    3  C3  MIQ B 502       7.395  15.574 -15.954  1.00141.71     0.035 A 
HETATM    4  C4  MIQ B 502       7.643  14.304 -16.676  1.00142.86     0.046 A 
HETATM    5  C5  MIQ B 502       8.176  13.182 -15.991  1.00139.53     0.031 A 
HETATM    6  C12 MIQ B 502       8.482  13.281 -14.572  1.00139.38     0.030 A 
HETATM    7  C13 MIQ B 502       8.247  14.499 -13.879  1.00141.18     0.019 A 
HETATM    8  C14 MIQ B 502       7.689  15.674 -14.603  1.00138.77     0.033 A 
HETATM    9  C15 MIQ B 502       7.308  17.135 -14.198  1.00142.10     0.195 A 
HETATM   10  N17 MIQ B 502       6.856  17.713 -15.299  1.00139.42    -0.288 N 
HETATM   11  O16 MIQ B 502       7.422  17.708 -12.930  1.00148.93    -0.171 OA
ENDROOT
BRANCH  10  12
HETATM   12  C18 MIQ B 502       6.390  19.087 -15.297  1.00139.82     0.187 C 
HETATM   13  C19 MIQ B 502       7.480  19.949 -14.648  1.00140.06     0.247 C 
HETATM   14  O25 MIQ B 502       8.591  19.862 -15.036  1.00143.95    -0.271 OA
HETATM   15  N20 MIQ B 502       7.184  20.875 -13.574  1.00140.02    -0.296 N 
HETATM   16  H13 MIQ B 502       7.906  21.427 -13.155  1.00142.77     0.171 HD
HETATM   17  C21 MIQ B 502       5.823  20.957 -13.110  1.00142.22     0.224 C 
HETATM   18  C22 MIQ B 502       5.012  19.676 -13.149  1.00139.52     0.106 C 
HETATM   19  O24 MIQ B 502       5.362  21.974 -12.725  1.00146.13    -0.273 OA
HETATM   20  C23 MIQ B 502       5.041  19.190 -14.587  1.00139.15     0.045 C 
ENDBRANCH  10  12
BRANCH   5  21
HETATM   21  N6  MIQ B 502       8.399  11.940 -16.708  1.00140.95    -0.377 N 
HETATM   22  C7  MIQ B 502       7.254  11.099 -17.014  1.00142.12     0.149 C 
HETATM   23  C8  MIQ B 502       7.645   9.633 -17.151  1.00144.10     0.187 C 
HETATM   24  O9  MIQ B 502       8.761   9.443 -17.968  1.00148.65    -0.388 OA
HETATM   25  C10 MIQ B 502       9.527  10.534 -18.387  1.00147.44     0.187 C 
HETATM   26  C11 MIQ B 502       9.618  11.754 -17.476  1.00144.08     0.149 C 
ENDBRANCH   5  21
TORSDOF 2
ENDMDL
MODEL 6
REMARK VINA RESULT:      -6.6      2.206      3.731
REMARK  2 active torsions:
REMARK  status: ('A' for Active; 'I' for Inactive)
REMARK    1  A    between atoms: C5_5  and  N6_21 
REMARK    2  A    between atoms: C18_14  and  N17_19 
ROOT
HETATM    1  O1  MIQ B 502       6.887  16.860 -13.269  1.00142.91    -0.171 OA
HETATM    2  C2  MIQ B 502       6.572  17.105 -14.608  1.00141.17     0.195 A 
HETATM    3  C3  MIQ B 502       6.993  16.229 -15.830  1.00141.71     0.035 A 
HETATM    4  C4  MIQ B 502       7.777  14.978 -15.965  1.00142.86     0.046 A 
HETATM    5  C5  MIQ B 502       7.996  14.404 -17.243  1.00139.53     0.031 A 
HETATM    6  C12 MIQ B 502       7.446  15.047 -18.428  1.00139.38     0.030 A 
HETATM    7  C13 MIQ B 502       6.693  16.245 -18.298  1.00141.18     0.019 A 
HETATM    8  C14 MIQ B 502       6.465  16.842 -16.954  1.00138.77     0.033 A 
HETATM    9  C15 MIQ B 502       5.711  18.106 -16.427  1.00142.10     0.195 A 
HETATM   10  N17 MIQ B 502       5.866  18.102 -15.113  1.00139.42    -0.288 N 
HETATM   11  O16 MIQ B 502       5.019  19.047 -17.192  1.00148.93    -0.171 OA
ENDROOT
BRANCH  10  12
HETATM   12  C18 MIQ B 502       5.306  19.151 -14.281  1.00139.82     0.187 C 
HETATM   13  C19 MIQ B 502       6.411  19.638 -13.336  1.00140.06     0.247 C 
HETATM   14  O25 MIQ B 502       7.458  19.944 -13.783  1.00143.95    -0.271 OA
HETATM   15  N20 MIQ B 502       6.203  19.740 -11.906  1.00140.02    -0.296 N 
HETATM   16  H13 MIQ B 502       6.934  20.053 -11.299  1.00142.77     0.171 HD
HETATM   17  C21 MIQ B 502       4.919  19.351 -11.382  1.00142.22     0.224 C 
HETATM   18  C22 MIQ B 502       4.207  18.218 -12.095  1.00139.52     0.106 C 
HETATM   19  O24 MIQ B 502       4.444  19.893 -10.445  1.00146.13    -0.273 OA
HETATM   20  C23 MIQ B 502       4.067  18.641 -13.546  1.00139.15     0.045 C 
ENDBRANCH  10  12
BRANCH   5  21
HETATM   21  N6  MIQ B 502       8.779  13.188 -17.362  1.00140.95    -0.377 N 
HETATM   22  C7  MIQ B 502       9.369  12.621 -16.162  1.00142.12     0.149 C 
HETATM   23  C8  MIQ B 502      10.617  11.805 -16.473  1.00144.10     0.187 C 
HETATM   24  O9  MIQ B 502      10.432  10.909 -17.527  1.00148.65    -0.388 OA
HETATM   25  C10 MIQ B 502       9.282  10.974 -18.317  1.00147.44     0.187 C 
HETATM   26  C11 MIQ B 502       8.613  12.329 -18.522  1.00144.08     0.149 C 
ENDBRANCH   5  21
TORSDOF 2
ENDMDL
MODEL 7
REMARK VINA RESULT:      -6.4     22.118     23.029
REMARK  2 active torsions:
REMARK  status: ('A' for Active; 'I' for Inactive)
REMARK    1  A    between atoms: C5_5  and  N6_21 
REMARK    2  A    between atoms: C18_14  and  N17_19 
ROOT
HETATM    1  O1  MIQ B 502     -16.334  13.911  -9.595  1.00142.91    -0.171 OA
HETATM    2  C2  MIQ B 502     -15.774  14.736 -10.573  1.00141.17     0.195 A 
HETATM    3  C3  MIQ B 502     -15.371  14.309 -12.020  1.00141.71     0.035 A 
HETATM    4  C4  MIQ B 502     -15.443  13.027 -12.761  1.00142.86     0.046 A 
HETATM    5  C5  MIQ B 502     -14.989  12.948 -14.102  1.00139.53     0.031 A 
HETATM    6  C12 MIQ B 502     -14.449  14.133 -14.753  1.00139.38     0.030 A 
HETATM    7  C13 MIQ B 502     -14.381  15.362 -14.043  1.00141.18     0.019 A 
HETATM    8  C14 MIQ B 502     -14.861  15.440 -12.637  1.00138.77     0.033 A 
HETATM    9  C15 MIQ B 502     -14.949  16.576 -11.566  1.00142.10     0.195 A 
HETATM   10  N17 MIQ B 502     -15.477  16.022 -10.487  1.00139.42    -0.288 N 
HETATM   11  O16 MIQ B 502     -14.547  17.904 -11.722  1.00148.93    -0.171 OA
ENDROOT
BRANCH  10  12
HETATM   12  C18 MIQ B 502     -15.694  16.785  -9.273  1.00139.82     0.187 C 
HETATM   13  C19 MIQ B 502     -16.489  18.043  -9.647  1.00140.06     0.247 C 
HETATM   14  O25 MIQ B 502     -17.477  17.932 -10.281  1.00143.95    -0.271 OA
HETATM   15  N20 MIQ B 502     -16.062  19.365  -9.239  1.00140.02    -0.296 N 
HETATM   16  H13 MIQ B 502     -16.586  20.179  -9.495  1.00142.77     0.171 HD
HETATM   17  C21 MIQ B 502     -14.846  19.476  -8.475  1.00142.22     0.224 C 
HETATM   18  C22 MIQ B 502     -13.752  18.473  -8.787  1.00139.52     0.106 C 
HETATM   19  O24 MIQ B 502     -14.712  20.304  -7.643  1.00146.13    -0.273 OA
HETATM   20  C23 MIQ B 502     -14.361  17.096  -8.594  1.00139.15     0.045 C 
ENDBRANCH  10  12
BRANCH   5  21
HETATM   21  N6  MIQ B 502     -15.052  11.683 -14.811  1.00140.95    -0.377 N 
HETATM   22  C7  MIQ B 502     -14.410  11.582 -16.110  1.00142.12     0.149 C 
HETATM   23  C8  MIQ B 502     -15.060  10.519 -16.986  1.00144.10     0.187 C 
HETATM   24  O9  MIQ B 502     -15.251   9.307 -16.318  1.00148.65    -0.388 OA
HETATM   25  C10 MIQ B 502     -15.062   9.223 -14.936  1.00147.44     0.187 C 
HETATM   26  C11 MIQ B 502     -15.340  10.458 -14.085  1.00144.08     0.149 C 
ENDBRANCH   5  21
TORSDOF 2
ENDMDL
MODEL 8
REMARK VINA RESULT:      -6.4      5.170      9.633
REMARK  2 active torsions:
REMARK  status: ('A' for Active; 'I' for Inactive)
REMARK    1  A    between atoms: C5_5  and  N6_21 
REMARK    2  A    between atoms: C18_14  and  N17_19 
ROOT
HETATM    1  O1  MIQ B 502       3.538  17.582 -11.813  1.00142.91    -0.171 OA
HETATM    2  C2  MIQ B 502       4.553  18.447 -12.228  1.00141.17     0.195 A 
HETATM    3  C3  MIQ B 502       5.011  19.750 -11.498  1.00141.71     0.035 A 
HETATM    4  C4  MIQ B 502       4.573  20.429 -10.256  1.00142.86     0.046 A 
HETATM    5  C5  MIQ B 502       5.198  21.631  -9.838  1.00139.53     0.031 A 
HETATM    6  C12 MIQ B 502       6.276  22.200 -10.634  1.00139.38     0.030 A 
HETATM    7  C13 MIQ B 502       6.697  21.548 -11.824  1.00141.18     0.019 A 
HETATM    8  C14 MIQ B 502       6.039  20.285 -12.257  1.00138.77     0.033 A 
HETATM    9  C15 MIQ B 502       6.221  19.308 -13.464  1.00142.10     0.195 A 
HETATM   10  N17 MIQ B 502       5.327  18.348 -13.296  1.00139.42    -0.288 N 
HETATM   11  O16 MIQ B 502       7.141  19.431 -14.508  1.00148.93    -0.171 OA
ENDROOT
BRANCH  10  12
HETATM   12  C18 MIQ B 502       5.194  17.261 -14.247  1.00139.82     0.187 C 
HETATM   13  C19 MIQ B 502       6.590  16.670 -14.479  1.00140.06     0.247 C 
HETATM   14  O25 MIQ B 502       7.248  16.363 -13.549  1.00143.95    -0.271 OA
HETATM   15  N20 MIQ B 502       7.124  16.471 -15.811  1.00140.02    -0.296 N 
HETATM   16  H13 MIQ B 502       8.040  16.090 -15.949  1.00142.77     0.171 HD
HETATM   17  C21 MIQ B 502       6.307  16.862 -16.930  1.00142.22     0.224 C 
HETATM   18  C22 MIQ B 502       5.408  18.067 -16.729  1.00139.52     0.106 C 
HETATM   19  O24 MIQ B 502       6.333  16.269 -17.952  1.00146.13    -0.273 OA
HETATM   20  C23 MIQ B 502       4.530  17.755 -15.531  1.00139.15     0.045 C 
ENDBRANCH  10  12
BRANCH   5  21
HETATM   21  N6  MIQ B 502       4.749  22.294  -8.627  1.00140.95    -0.377 N 
HETATM   22  C7  MIQ B 502       3.376  22.095  -8.195  1.00142.12     0.149 C 
HETATM   23  C8  MIQ B 502       2.864  23.269  -7.370  1.00144.10     0.187 C 
HETATM   24  O9  MIQ B 502       3.755  23.659  -6.368  1.00148.65    -0.388 OA
HETATM   25  C10 MIQ B 502       5.053  23.143  -6.335  1.00147.44     0.187 C 
HETATM   26  C11 MIQ B 502       5.719  22.760  -7.652  1.00144.08     0.149 C 
ENDBRANCH   5  21
TORSDOF 2
ENDMDL
MODEL 9
REMARK VINA RESULT:      -6.4      4.751      9.295
REMARK  2 active torsions:
REMARK  status: ('A' for Active; 'I' for Inactive)
REMARK    1  A    between atoms: C5_5  and  N6_21 
REMARK    2  A    between atoms: C18_14  and  N17_19 
ROOT
HETATM    1  O1  MIQ B 502       7.571  21.089 -14.546  1.00142.91    -0.171 OA
HETATM    2  C2  MIQ B 502       6.724  20.147 -13.958  1.00141.17     0.195 A 
HETATM    3  C3  MIQ B 502       5.961  20.311 -12.605  1.00141.71     0.035 A 
HETATM    4  C4  MIQ B 502       5.885  21.401 -11.604  1.00142.86     0.046 A 
HETATM    5  C5  MIQ B 502       5.083  21.254 -10.444  1.00139.53     0.031 A 
HETATM    6  C12 MIQ B 502       4.331  20.025 -10.237  1.00139.38     0.030 A 
HETATM    7  C13 MIQ B 502       4.402  18.980 -11.197  1.00141.18     0.019 A 
HETATM    8  C14 MIQ B 502       5.244  19.141 -12.414  1.00138.77     0.033 A 
HETATM    9  C15 MIQ B 502       5.563  18.246 -13.656  1.00142.10     0.195 A 
HETATM   10  N17 MIQ B 502       6.392  18.950 -14.410  1.00139.42    -0.288 N 
HETATM   11  O16 MIQ B 502       5.073  16.964 -13.910  1.00148.93    -0.171 OA
ENDROOT
BRANCH  10  12
HETATM   12  C18 MIQ B 502       6.919  18.421 -15.654  1.00139.82     0.187 C 
HETATM   13  C19 MIQ B 502       5.731  17.945 -16.500  1.00140.06     0.247 C 
HETATM   14  O25 MIQ B 502       4.824  18.677 -16.682  1.00143.95    -0.271 OA
HETATM   15  N20 MIQ B 502       5.694  16.622 -17.088  1.00140.02    -0.296 N 
HETATM   16  H13 MIQ B 502       4.910  16.321 -17.633  1.00142.77     0.171 HD
HETATM   17  C21 MIQ B 502       6.809  15.743 -16.843  1.00142.22     0.224 C 
HETATM   18  C22 MIQ B 502       7.493  15.871 -15.495  1.00139.52     0.106 C 
HETATM   19  O24 MIQ B 502       7.173  14.966 -17.655  1.00146.13    -0.273 OA
HETATM   20  C23 MIQ B 502       7.937  17.317 -15.373  1.00139.15     0.045 C 
ENDBRANCH  10  12
BRANCH   5  21
HETATM   21  N6  MIQ B 502       5.029  22.324  -9.464  1.00140.95    -0.377 N 
HETATM   22  C7  MIQ B 502       3.730  22.769  -8.993  1.00142.12     0.149 C 
HETATM   23  C8  MIQ B 502       3.760  24.219  -8.525  1.00144.10     0.187 C 
HETATM   24  O9  MIQ B 502       4.830  24.492  -7.672  1.00148.65    -0.388 OA
HETATM   25  C10 MIQ B 502       5.854  23.557  -7.497  1.00147.44     0.187 C 
HETATM   26  C11 MIQ B 502       6.198  22.628  -8.657  1.00144.08     0.149 C 
ENDBRANCH   5  21
TORSDOF 2
ENDMDL
