MODEL 1
REMARK VINA RESULT:      -7.5      0.000      0.000
REMARK  2 active torsions:
REMARK  status: ('A' for Active; 'I' for Inactive)
REMARK    1  A    between atoms: C5_5  and  N6_21 
REMARK    2  A    between atoms: C18_14  and  N17_19 
ROOT
HETATM    1  O1  MIQ B 502      -6.813 -14.267  10.123  1.00142.91    -0.171 OA
HETATM    2  C2  MIQ B 502      -6.484 -12.924  10.316  1.00141.17     0.195 A 
HETATM    3  C3  MIQ B 502      -6.016 -12.273  11.657  1.00141.71     0.035 A 
HETATM    4  C4  MIQ B 502      -5.786 -12.803  13.022  1.00142.86     0.046 A 
HETATM    5  C5  MIQ B 502      -5.348 -11.943  14.060  1.00139.53     0.031 A 
HETATM    6  C12 MIQ B 502      -5.123 -10.532  13.783  1.00139.38     0.030 A 
HETATM    7  C13 MIQ B 502      -5.342 -10.023  12.475  1.00141.18     0.019 A 
HETATM    8  C14 MIQ B 502      -5.799 -10.931  11.387  1.00138.77     0.033 A 
HETATM    9  C15 MIQ B 502      -6.134 -10.749   9.871  1.00142.10     0.195 A 
HETATM   10  N17 MIQ B 502      -6.492 -11.943   9.430  1.00139.42    -0.288 N 
HETATM   11  O16 MIQ B 502      -6.069  -9.563   9.138  1.00148.93    -0.171 OA
ENDROOT
BRANCH  10  12
HETATM   12  C18 MIQ B 502      -6.892 -12.153   8.051  1.00139.82     0.187 C 
HETATM   13  C19 MIQ B 502      -8.265 -12.836   8.060  1.00140.06     0.247 C 
HETATM   14  O25 MIQ B 502      -9.136 -12.369   8.705  1.00143.95    -0.271 OA
HETATM   15  N20 MIQ B 502      -8.525 -14.037   7.293  1.00140.02    -0.296 N 
HETATM   16  H13 MIQ B 502      -9.424 -14.477   7.313  1.00142.77     0.171 HD
HETATM   17  C21 MIQ B 502      -7.444 -14.593   6.523  1.00142.22     0.224 C 
HETATM   18  C22 MIQ B 502      -6.049 -14.442   7.098  1.00139.52     0.106 C 
HETATM   19  O24 MIQ B 502      -7.636 -15.136   5.490  1.00146.13    -0.273 OA
HETATM   20  C23 MIQ B 502      -5.826 -12.954   7.304  1.00139.15     0.045 C 
ENDBRANCH  10  12
BRANCH   5  21
HETATM   21  N6  MIQ B 502      -5.142 -12.473  15.396  1.00140.95    -0.377 N 
HETATM   22  C7  MIQ B 502      -5.718 -13.765  15.727  1.00142.12     0.149 C 
HETATM   23  C8  MIQ B 502      -5.994 -13.898  17.220  1.00144.10     0.187 C 
HETATM   24  O9  MIQ B 502      -4.910 -13.508  18.009  1.00148.65    -0.388 OA
HETATM   25  C10 MIQ B 502      -3.816 -12.855  17.436  1.00147.44     0.187 C 
HETATM   26  C11 MIQ B 502      -4.051 -11.973  16.214  1.00144.08     0.149 C 
ENDBRANCH   5  21
TORSDOF 2
ENDMDL
MODEL 2
REMARK VINA RESULT:      -7.4      1.955      7.869
REMARK  2 active torsions:
REMARK  status: ('A' for Active; 'I' for Inactive)
REMARK    1  A    between atoms: C5_5  and  N6_21 
REMARK    2  A    between atoms: C18_14  and  N17_19 
ROOT
HETATM    1  O1  MIQ B 502      -5.684 -14.797  13.082  1.00142.91    -0.171 OA
HETATM    2  C2  MIQ B 502      -5.488 -13.448  12.777  1.00141.17     0.195 A 
HETATM    3  C3  MIQ B 502      -5.681 -12.782  11.377  1.00141.71     0.035 A 
HETATM    4  C4  MIQ B 502      -6.094 -13.299  10.051  1.00142.86     0.046 A 
HETATM    5  C5  MIQ B 502      -6.181 -12.426   8.937  1.00139.53     0.031 A 
HETATM    6  C12 MIQ B 502      -5.862 -11.015   9.098  1.00139.38     0.030 A 
HETATM    7  C13 MIQ B 502      -5.467 -10.518  10.370  1.00141.18     0.019 A 
HETATM    8  C14 MIQ B 502      -5.380 -11.439  11.536  1.00138.77     0.033 A 
HETATM    9  C15 MIQ B 502      -4.999 -11.270  13.043  1.00142.10     0.195 A 
HETATM   10  N17 MIQ B 502      -5.113 -12.472  13.585  1.00139.42    -0.288 N 
HETATM   11  O16 MIQ B 502      -4.615 -10.090  13.681  1.00148.93    -0.171 OA
ENDROOT
BRANCH  10  12
HETATM   12  C18 MIQ B 502      -4.818 -12.701  14.987  1.00139.82     0.187 C 
HETATM   13  C19 MIQ B 502      -3.749 -13.798  15.068  1.00140.06     0.247 C 
HETATM   14  O25 MIQ B 502      -2.767 -13.694  14.423  1.00143.95    -0.271 OA
HETATM   15  N20 MIQ B 502      -3.909 -14.959  15.919  1.00140.02    -0.296 N 
HETATM   16  H13 MIQ B 502      -3.207 -15.672  15.958  1.00142.77     0.171 HD
HETATM   17  C21 MIQ B 502      -5.122 -15.069  16.689  1.00142.22     0.224 C 
HETATM   18  C22 MIQ B 502      -6.382 -14.507  16.059  1.00139.52     0.106 C 
HETATM   19  O24 MIQ B 502      -5.130 -15.568  17.760  1.00146.13    -0.273 OA
HETATM   20  C23 MIQ B 502      -6.096 -13.049  15.749  1.00139.15     0.045 C 
ENDBRANCH  10  12
BRANCH   5  21
HETATM   21  N6  MIQ B 502      -6.572 -12.949   7.640  1.00140.95    -0.377 N 
HETATM   22  C7  MIQ B 502      -5.638 -13.800   6.924  1.00142.12     0.149 C 
HETATM   23  C8  MIQ B 502      -5.855 -13.740   5.417  1.00144.10     0.187 C 
HETATM   24  O9  MIQ B 502      -7.196 -13.887   5.055  1.00148.65    -0.388 OA
HETATM   25  C10 MIQ B 502      -8.199 -13.850   6.026  1.00147.44     0.187 C 
HETATM   26  C11 MIQ B 502      -7.977 -13.002   7.274  1.00144.08     0.149 C 
ENDBRANCH   5  21
TORSDOF 2
ENDMDL
MODEL 3
REMARK VINA RESULT:      -7.2      3.101      5.404
REMARK  2 active torsions:
REMARK  status: ('A' for Active; 'I' for Inactive)
REMARK    1  A    between atoms: C5_5  and  N6_21 
REMARK    2  A    between atoms: C18_14  and  N17_19 
ROOT
HETATM    1  O1  MIQ B 502      -7.564 -12.363  13.081  1.00142.91    -0.171 OA
HETATM    2  C2  MIQ B 502      -6.396 -12.836  13.682  1.00141.17     0.195 A 
HETATM    3  C3  MIQ B 502      -6.314 -13.851  14.867  1.00141.71     0.035 A 
HETATM    4  C4  MIQ B 502      -7.336 -14.575  15.661  1.00142.86     0.046 A 
HETATM    5  C5  MIQ B 502      -6.944 -15.455  16.701  1.00139.53     0.031 A 
HETATM    6  C12 MIQ B 502      -5.530 -15.649  16.989  1.00139.38     0.030 A 
HETATM    7  C13 MIQ B 502      -4.551 -14.956  16.228  1.00141.18     0.019 A 
HETATM    8  C14 MIQ B 502      -4.968 -14.035  15.136  1.00138.77     0.033 A 
HETATM    9  C15 MIQ B 502      -4.209 -13.129  14.111  1.00142.10     0.195 A 
HETATM   10  N17 MIQ B 502      -5.143 -12.540  13.383  1.00139.42    -0.288 N 
HETATM   11  O16 MIQ B 502      -2.826 -12.976  13.996  1.00148.93    -0.171 OA
ENDROOT
BRANCH  10  12
HETATM   12  C18 MIQ B 502      -4.802 -11.603  12.329  1.00139.82     0.187 C 
HETATM   13  C19 MIQ B 502      -5.598 -10.315  12.572  1.00140.06     0.247 C 
HETATM   14  O25 MIQ B 502      -5.564  -9.810  13.638  1.00143.95    -0.271 OA
HETATM   15  N20 MIQ B 502      -6.387  -9.696  11.527  1.00140.02    -0.296 N 
HETATM   16  H13 MIQ B 502      -6.907  -8.858  11.701  1.00142.77     0.171 HD
HETATM   17  C21 MIQ B 502      -6.421 -10.337  10.238  1.00142.22     0.224 C 
HETATM   18  C22 MIQ B 502      -6.345 -11.851  10.228  1.00139.52     0.106 C 
HETATM   19  O24 MIQ B 502      -6.498  -9.711   9.238  1.00146.13    -0.273 OA
HETATM   20  C23 MIQ B 502      -5.068 -12.225  10.959  1.00139.15     0.045 C 
ENDBRANCH  10  12
BRANCH   5  21
HETATM   21  N6  MIQ B 502      -7.955 -16.146  17.480  1.00140.95    -0.377 N 
HETATM   22  C7  MIQ B 502      -8.827 -15.362  18.338  1.00142.12     0.149 C 
HETATM   23  C8  MIQ B 502      -9.348 -16.175  19.515  1.00144.10     0.187 C 
HETATM   24  O9  MIQ B 502      -9.849 -17.422  19.135  1.00148.65    -0.388 OA
HETATM   25  C10 MIQ B 502      -9.646 -17.901  17.838  1.00147.44     0.187 C 
HETATM   26  C11 MIQ B 502      -8.383 -17.479  17.094  1.00144.08     0.149 C 
ENDBRANCH   5  21
TORSDOF 2
ENDMDL
MODEL 4
REMARK VINA RESULT:      -7.1      3.054      7.910
REMARK  2 active torsions:
REMARK  status: ('A' for Active; 'I' for Inactive)
REMARK    1  A    between atoms: C5_5  and  N6_21 
REMARK    2  A    between atoms: C18_14  and  N17_19 
ROOT
HETATM    1  O1  MIQ B 502      -8.142 -14.944  14.775  1.00142.91    -0.171 OA
HETATM    2  C2  MIQ B 502      -7.040 -14.171  15.147  1.00141.17     0.195 A 
HETATM    3  C3  MIQ B 502      -6.427 -12.987  14.332  1.00141.71     0.035 A 
HETATM    4  C4  MIQ B 502      -6.773 -12.355  13.037  1.00142.86     0.046 A 
HETATM    5  C5  MIQ B 502      -6.011 -11.265  12.545  1.00139.53     0.031 A 
HETATM    6  C12 MIQ B 502      -4.882 -10.766  13.317  1.00139.38     0.030 A 
HETATM    7  C13 MIQ B 502      -4.551 -11.371  14.560  1.00141.18     0.019 A 
HETATM    8  C14 MIQ B 502      -5.357 -12.513  15.072  1.00138.77     0.033 A 
HETATM    9  C15 MIQ B 502      -5.305 -13.407  16.354  1.00142.10     0.195 A 
HETATM   10  N17 MIQ B 502      -6.302 -14.268  16.239  1.00139.42    -0.288 N 
HETATM   11  O16 MIQ B 502      -4.387 -13.312  17.402  1.00148.93    -0.171 OA
ENDROOT
BRANCH  10  12
HETATM   12  C18 MIQ B 502      -6.552 -15.276  17.253  1.00139.82     0.187 C 
HETATM   13  C19 MIQ B 502      -6.644 -16.635  16.548  1.00140.06     0.247 C 
HETATM   14  O25 MIQ B 502      -5.785 -16.959  15.807  1.00143.95    -0.271 OA
HETATM   15  N20 MIQ B 502      -7.756 -17.537  16.770  1.00140.02    -0.296 N 
HETATM   16  H13 MIQ B 502      -7.808 -18.419  16.299  1.00142.77     0.171 HD
HETATM   17  C21 MIQ B 502      -8.798 -17.115  17.670  1.00142.22     0.224 C 
HETATM   18  C22 MIQ B 502      -9.107 -15.630  17.706  1.00139.52     0.106 C 
HETATM   19  O24 MIQ B 502      -9.377 -17.888  18.351  1.00146.13    -0.273 OA
HETATM   20  C23 MIQ B 502      -7.807 -14.927  18.051  1.00139.15     0.045 C 
ENDBRANCH  10  12
BRANCH   5  21
HETATM   21  N6  MIQ B 502      -6.351 -10.665  11.268  1.00140.95    -0.377 N 
HETATM   22  C7  MIQ B 502      -7.321  -9.583  11.246  1.00142.12     0.149 C 
HETATM   23  C8  MIQ B 502      -8.045  -9.496   9.908  1.00144.10     0.187 C 
HETATM   24  O9  MIQ B 502      -7.177  -9.542   8.816  1.00148.65    -0.388 OA
HETATM   25  C10 MIQ B 502      -5.831  -9.872   8.995  1.00147.44     0.187 C 
HETATM   26  C11 MIQ B 502      -5.456 -10.814  10.134  1.00144.08     0.149 C 
ENDBRANCH   5  21
TORSDOF 2
ENDMDL
MODEL 5
REMARK VINA RESULT:      -7.0      3.562      4.058
REMARK  2 active torsions:
REMARK  status: ('A' for Active; 'I' for Inactive)
REMARK    1  A    between atoms: C5_5  and  N6_21 
REMARK    2  A    between atoms: C18_14  and  N17_19 
ROOT
HETATM    1  O1  MIQ B 502      -9.569 -12.376  11.733  1.00142.91    -0.171 OA
HETATM    2  C2  MIQ B 502      -8.820 -11.220  11.962  1.00141.17     0.195 A 
HETATM    3  C3  MIQ B 502      -7.461 -11.138  12.727  1.00141.71     0.035 A 
HETATM    4  C4  MIQ B 502      -6.603 -12.147  13.391  1.00142.86     0.046 A 
HETATM    5  C5  MIQ B 502      -5.392 -11.758  14.017  1.00139.53     0.031 A 
HETATM    6  C12 MIQ B 502      -4.990 -10.359  14.006  1.00139.38     0.030 A 
HETATM    7  C13 MIQ B 502      -5.812  -9.391  13.369  1.00141.18     0.019 A 
HETATM    8  C14 MIQ B 502      -7.081  -9.805  12.711  1.00138.77     0.033 A 
HETATM    9  C15 MIQ B 502      -8.211  -9.057  11.931  1.00142.10     0.195 A 
HETATM   10  N17 MIQ B 502      -9.091  -9.982  11.585  1.00139.42    -0.288 N 
HETATM   11  O16 MIQ B 502      -8.273  -7.689  11.660  1.00148.93    -0.171 OA
ENDROOT
BRANCH  10  12
HETATM   12  C18 MIQ B 502     -10.296  -9.644  10.852  1.00139.82     0.187 C 
HETATM   13  C19 MIQ B 502     -11.497 -10.081  11.698  1.00140.06     0.247 C 
HETATM   14  O25 MIQ B 502     -11.560  -9.744  12.827  1.00143.95    -0.271 OA
HETATM   15  N20 MIQ B 502     -12.563 -10.894  11.149  1.00140.02    -0.296 N 
HETATM   16  H13 MIQ B 502     -13.339 -11.179  11.715  1.00142.77     0.171 HD
HETATM   17  C21 MIQ B 502     -12.459 -11.302   9.772  1.00142.22     0.224 C 
HETATM   18  C22 MIQ B 502     -11.062 -11.562   9.242  1.00139.52     0.106 C 
HETATM   19  O24 MIQ B 502     -13.417 -11.423   9.089  1.00146.13    -0.273 OA
HETATM   20  C23 MIQ B 502     -10.272 -10.286   9.465  1.00139.15     0.045 C 
ENDBRANCH  10  12
BRANCH   5  21
HETATM   21  N6  MIQ B 502      -4.568 -12.755  14.677  1.00140.95    -0.377 N 
HETATM   22  C7  MIQ B 502      -5.217 -13.745  15.518  1.00142.12     0.149 C 
HETATM   23  C8  MIQ B 502      -4.284 -14.271  16.602  1.00144.10     0.187 C 
HETATM   24  O9  MIQ B 502      -3.030 -14.636  16.108  1.00148.65    -0.388 OA
HETATM   25  C10 MIQ B 502      -2.661 -14.308  14.801  1.00147.44     0.187 C 
HETATM   26  C11 MIQ B 502      -3.235 -13.040  14.177  1.00144.08     0.149 C 
ENDBRANCH   5  21
TORSDOF 2
ENDMDL
MODEL 6
REMARK VINA RESULT:      -7.0      3.336      4.423
REMARK  2 active torsions:
REMARK  status: ('A' for Active; 'I' for Inactive)
REMARK    1  A    between atoms: C5_5  and  N6_21 
REMARK    2  A    between atoms: C18_14  and  N17_19 
ROOT
HETATM    1  O1  MIQ B 502      -9.944 -11.159  12.567  1.00142.91    -0.171 OA
HETATM    2  C2  MIQ B 502      -8.759 -11.004  11.845  1.00141.17     0.195 A 
HETATM    3  C3  MIQ B 502      -7.380 -11.654  12.184  1.00141.71     0.035 A 
HETATM    4  C4  MIQ B 502      -6.918 -12.557  13.264  1.00142.86     0.046 A 
HETATM    5  C5  MIQ B 502      -5.569 -12.991  13.307  1.00139.53     0.031 A 
HETATM    6  C12 MIQ B 502      -4.634 -12.547  12.284  1.00139.38     0.030 A 
HETATM    7  C13 MIQ B 502      -5.077 -11.682  11.247  1.00141.18     0.019 A 
HETATM    8  C14 MIQ B 502      -6.495 -11.232  11.206  1.00138.77     0.033 A 
HETATM    9  C15 MIQ B 502      -7.329 -10.314  10.253  1.00142.10     0.195 A 
HETATM   10  N17 MIQ B 502      -8.557 -10.296  10.746  1.00139.42    -0.288 N 
HETATM   11  O16 MIQ B 502      -6.866  -9.649   9.117  1.00148.93    -0.171 OA
ENDROOT
BRANCH  10  12
HETATM   12  C18 MIQ B 502      -9.613  -9.523  10.121  1.00139.82     0.187 C 
HETATM   13  C19 MIQ B 502     -10.214  -8.602  11.190  1.00140.06     0.247 C 
HETATM   14  O25 MIQ B 502      -9.496  -7.925  11.836  1.00143.95    -0.271 OA
HETATM   15  N20 MIQ B 502     -11.642  -8.535  11.425  1.00140.02    -0.296 N 
HETATM   16  H13 MIQ B 502     -12.021  -7.934  12.130  1.00142.77     0.171 HD
HETATM   17  C21 MIQ B 502     -12.497  -9.379  10.630  1.00142.22     0.224 C 
HETATM   18  C22 MIQ B 502     -11.936 -10.728  10.224  1.00139.52     0.106 C 
HETATM   19  O24 MIQ B 502     -13.579  -9.032  10.307  1.00146.13    -0.273 OA
HETATM   20  C23 MIQ B 502     -10.643 -10.451   9.479  1.00139.15     0.045 C 
ENDBRANCH  10  12
BRANCH   5  21
HETATM   21  N6  MIQ B 502      -5.126 -13.864  14.380  1.00140.95    -0.377 N 
HETATM   22  C7  MIQ B 502      -5.298 -15.298  14.224  1.00142.12     0.149 C 
HETATM   23  C8  MIQ B 502      -5.415 -16.006  15.568  1.00144.10     0.187 C 
HETATM   24  O9  MIQ B 502      -4.426 -15.618  16.474  1.00148.65    -0.388 OA
HETATM   25  C10 MIQ B 502      -3.600 -14.527  16.196  1.00147.44     0.187 C 
HETATM   26  C11 MIQ B 502      -4.158 -13.386  15.351  1.00144.08     0.149 C 
ENDBRANCH   5  21
TORSDOF 2
ENDMDL
MODEL 7
REMARK VINA RESULT:      -6.9      3.843      7.521
REMARK  2 active torsions:
REMARK  status: ('A' for Active; 'I' for Inactive)
REMARK    1  A    between atoms: C5_5  and  N6_21 
REMARK    2  A    between atoms: C18_14  and  N17_19 
ROOT
HETATM    1  O1  MIQ B 502      -6.666 -13.238  13.660  1.00142.91    -0.171 OA
HETATM    2  C2  MIQ B 502      -6.567 -11.870  13.396  1.00141.17     0.195 A 
HETATM    3  C3  MIQ B 502      -7.615 -11.001  12.630  1.00141.71     0.035 A 
HETATM    4  C4  MIQ B 502      -8.923 -11.301  12.000  1.00142.86     0.046 A 
HETATM    5  C5  MIQ B 502      -9.664 -10.274  11.363  1.00139.53     0.031 A 
HETATM    6  C12 MIQ B 502      -9.137  -8.917  11.330  1.00139.38     0.030 A 
HETATM    7  C13 MIQ B 502      -7.884  -8.629  11.935  1.00141.18     0.019 A 
HETATM    8  C14 MIQ B 502      -7.112  -9.711  12.603  1.00138.77     0.033 A 
HETATM    9  C15 MIQ B 502      -5.743  -9.779  13.358  1.00142.10     0.195 A 
HETATM   10  N17 MIQ B 502      -5.595 -11.039  13.731  1.00139.42    -0.288 N 
HETATM   11  O16 MIQ B 502      -4.860  -8.722  13.584  1.00148.93    -0.171 OA
ENDROOT
BRANCH  10  12
HETATM   12  C18 MIQ B 502      -4.416 -11.482  14.452  1.00139.82     0.187 C 
HETATM   13  C19 MIQ B 502      -3.857 -12.710  13.724  1.00140.06     0.247 C 
HETATM   14  O25 MIQ B 502      -3.666 -12.653  12.562  1.00143.95    -0.271 OA
HETATM   15  N20 MIQ B 502      -3.549 -13.940  14.426  1.00140.02    -0.296 N 
HETATM   16  H13 MIQ B 502      -3.190 -14.736  13.938  1.00142.77     0.171 HD
HETATM   17  C21 MIQ B 502      -3.800 -13.988  15.844  1.00142.22     0.224 C 
HETATM   18  C22 MIQ B 502      -4.985 -13.191  16.353  1.00139.52     0.106 C 
HETATM   19  O24 MIQ B 502      -3.111 -14.614  16.572  1.00146.13    -0.273 OA
HETATM   20  C23 MIQ B 502      -4.759 -11.755  15.916  1.00139.15     0.045 C 
ENDBRANCH  10  12
BRANCH   5  21
HETATM   21  N6  MIQ B 502     -10.937 -10.585  10.738  1.00140.95    -0.377 N 
HETATM   22  C7  MIQ B 502     -11.318 -11.980  10.595  1.00142.12     0.149 C 
HETATM   23  C8  MIQ B 502     -12.266 -12.193   9.422  1.00144.10     0.187 C 
HETATM   24  O9  MIQ B 502     -13.323 -11.281   9.404  1.00148.65    -0.388 OA
HETATM   25  C10 MIQ B 502     -13.318 -10.175  10.259  1.00147.44     0.187 C 
HETATM   26  C11 MIQ B 502     -11.977  -9.574  10.666  1.00144.08     0.149 C 
ENDBRANCH   5  21
TORSDOF 2
ENDMDL
MODEL 8
REMARK VINA RESULT:      -6.8      4.767      7.626
REMARK  2 active torsions:
REMARK  status: ('A' for Active; 'I' for Inactive)
REMARK    1  A    between atoms: C5_5  and  N6_21 
REMARK    2  A    between atoms: C18_14  and  N17_19 
ROOT
HETATM    1  O1  MIQ B 502      -7.751 -11.914  12.300  1.00142.91    -0.171 OA
HETATM    2  C2  MIQ B 502      -7.873 -10.525  12.207  1.00141.17     0.195 A 
HETATM    3  C3  MIQ B 502      -9.193  -9.732  11.946  1.00141.71     0.035 A 
HETATM    4  C4  MIQ B 502     -10.603 -10.139  11.736  1.00142.86     0.046 A 
HETATM    5  C5  MIQ B 502     -11.607  -9.162  11.519  1.00139.53     0.031 A 
HETATM    6  C12 MIQ B 502     -11.250  -7.751  11.504  1.00139.38     0.030 A 
HETATM    7  C13 MIQ B 502      -9.899  -7.359  11.706  1.00141.18     0.019 A 
HETATM    8  C14 MIQ B 502      -8.849  -8.390  11.936  1.00138.77     0.033 A 
HETATM    9  C15 MIQ B 502      -7.307  -8.350  12.192  1.00142.10     0.195 A 
HETATM   10  N17 MIQ B 502      -6.926  -9.610  12.322  1.00139.42    -0.288 N 
HETATM   11  O16 MIQ B 502      -6.501  -7.213  12.265  1.00148.93    -0.171 OA
ENDROOT
BRANCH  10  12
HETATM   12  C18 MIQ B 502      -5.538  -9.961  12.557  1.00139.82     0.187 C 
HETATM   13  C19 MIQ B 502      -5.179 -11.112  11.609  1.00140.06     0.247 C 
HETATM   14  O25 MIQ B 502      -5.418 -11.005  10.458  1.00143.95    -0.271 OA
HETATM   15  N20 MIQ B 502      -4.549 -12.326  12.085  1.00140.02    -0.296 N 
HETATM   16  H13 MIQ B 502      -4.326 -13.072  11.456  1.00142.77     0.171 HD
HETATM   17  C21 MIQ B 502      -4.278 -12.437  13.495  1.00142.22     0.224 C 
HETATM   18  C22 MIQ B 502      -5.263 -11.768  14.433  1.00139.52     0.106 C 
HETATM   19  O24 MIQ B 502      -3.330 -13.016  13.898  1.00146.13    -0.273 OA
HETATM   20  C23 MIQ B 502      -5.319 -10.305  14.030  1.00139.15     0.045 C 
ENDBRANCH  10  12
BRANCH   5  21
HETATM   21  N6  MIQ B 502     -12.980  -9.576  11.300  1.00140.95    -0.377 N 
HETATM   22  C7  MIQ B 502     -13.823  -8.761  10.442  1.00142.12     0.149 C 
HETATM   23  C8  MIQ B 502     -15.298  -8.900  10.795  1.00144.10     0.187 C 
HETATM   24  O9  MIQ B 502     -15.700 -10.230  10.938  1.00148.65    -0.388 OA
HETATM   25  C10 MIQ B 502     -14.752 -11.255  10.973  1.00147.44     0.187 C 
HETATM   26  C11 MIQ B 502     -13.371 -10.953  11.545  1.00144.08     0.149 C 
ENDBRANCH   5  21
TORSDOF 2
ENDMDL
MODEL 9
REMARK VINA RESULT:      -6.6      4.568      7.273
REMARK  2 active torsions:
REMARK  status: ('A' for Active; 'I' for Inactive)
REMARK    1  A    between atoms: C5_5  and  N6_21 
REMARK    2  A    between atoms: C18_14  and  N17_19 
ROOT
HETATM    1  O1  MIQ B 502      -8.412 -12.927  12.752  1.00142.91    -0.171 OA
HETATM    2  C2  MIQ B 502      -7.903 -11.641  12.560  1.00141.17     0.195 A 
HETATM    3  C3  MIQ B 502      -8.734 -10.360  12.230  1.00141.71     0.035 A 
HETATM    4  C4  MIQ B 502     -10.182 -10.106  12.036  1.00142.86     0.046 A 
HETATM    5  C5  MIQ B 502     -10.647  -8.800  11.740  1.00139.53     0.031 A 
HETATM    6  C12 MIQ B 502      -9.697  -7.703  11.628  1.00139.38     0.030 A 
HETATM    7  C13 MIQ B 502      -8.309  -7.945  11.815  1.00141.18     0.019 A 
HETATM    8  C14 MIQ B 502      -7.827  -9.318  12.128  1.00138.77     0.033 A 
HETATM    9  C15 MIQ B 502      -6.425  -9.956  12.396  1.00142.10     0.195 A 
HETATM   10  N17 MIQ B 502      -6.645 -11.241  12.619  1.00139.42    -0.288 N 
HETATM   11  O16 MIQ B 502      -5.193  -9.298  12.395  1.00148.93    -0.171 OA
ENDROOT
BRANCH  10  12
HETATM   12  C18 MIQ B 502      -5.555 -12.160  12.892  1.00139.82     0.187 C 
HETATM   13  C19 MIQ B 502      -5.762 -13.404  12.019  1.00140.06     0.247 C 
HETATM   14  O25 MIQ B 502      -5.946 -13.271  10.861  1.00143.95    -0.271 OA
HETATM   15  N20 MIQ B 502      -5.732 -14.741  12.575  1.00140.02    -0.296 N 
HETATM   16  H13 MIQ B 502      -5.875 -15.544  11.996  1.00142.77     0.171 HD
HETATM   17  C21 MIQ B 502      -5.516 -14.877  13.993  1.00142.22     0.224 C 
HETATM   18  C22 MIQ B 502      -6.085 -13.784  14.877  1.00139.52     0.106 C 
HETATM   19  O24 MIQ B 502      -4.920 -15.793  14.442  1.00146.13    -0.273 OA
HETATM   20  C23 MIQ B 502      -5.489 -12.478  14.385  1.00139.15     0.045 C 
ENDBRANCH  10  12
BRANCH   5  21
HETATM   21  N6  MIQ B 502     -12.066  -8.569  11.537  1.00140.95    -0.377 N 
HETATM   22  C7  MIQ B 502     -12.602  -7.249  11.821  1.00142.12     0.149 C 
HETATM   23  C8  MIQ B 502     -14.078  -7.303  12.193  1.00144.10     0.187 C 
HETATM   24  O9  MIQ B 502     -14.833  -8.076  11.309  1.00148.65    -0.388 OA
HETATM   25  C10 MIQ B 502     -14.203  -8.875  10.352  1.00147.44     0.187 C 
HETATM   26  C11 MIQ B 502     -12.829  -9.453  10.675  1.00144.08     0.149 C 
ENDBRANCH   5  21
TORSDOF 2
ENDMDL
