MODEL 1
REMARK VINA RESULT:      -6.3      0.000      0.000
REMARK  2 active torsions:
REMARK  status: ('A' for Active; 'I' for Inactive)
REMARK    1  A    between atoms: C5_5  and  N6_21 
REMARK    2  A    between atoms: C18_14  and  N17_19 
ROOT
HETATM    1  O1  MIQ B 502     -15.377 -13.636  -0.620  1.00142.91    -0.171 OA
HETATM    2  C2  MIQ B 502     -16.220 -12.609  -0.191  1.00141.17     0.195 A 
HETATM    3  C3  MIQ B 502     -16.919 -11.548  -1.100  1.00141.71     0.035 A 
HETATM    4  C4  MIQ B 502     -16.925 -11.306  -2.562  1.00142.86     0.046 A 
HETATM    5  C5  MIQ B 502     -17.678 -10.236  -3.108  1.00139.53     0.031 A 
HETATM    6  C12 MIQ B 502     -18.450  -9.372  -2.226  1.00139.38     0.030 A 
HETATM    7  C13 MIQ B 502     -18.446  -9.605  -0.824  1.00141.18     0.019 A 
HETATM    8  C14 MIQ B 502     -17.655 -10.731  -0.257  1.00138.77     0.033 A 
HETATM    9  C15 MIQ B 502     -17.412 -11.288   1.184  1.00142.10     0.195 A 
HETATM   10  N17 MIQ B 502     -16.601 -12.324   1.043  1.00139.42    -0.288 N 
HETATM   11  O16 MIQ B 502     -17.943 -10.787   2.373  1.00148.93    -0.171 OA
ENDROOT
BRANCH  10  12
HETATM   12  C18 MIQ B 502     -16.142 -13.087   2.188  1.00139.82     0.187 C 
HETATM   13  C19 MIQ B 502     -14.613 -13.182   2.105  1.00140.06     0.247 C 
HETATM   14  O25 MIQ B 502     -13.983 -12.197   1.951  1.00143.95    -0.271 OA
HETATM   15  N20 MIQ B 502     -13.920 -14.449   2.216  1.00140.02    -0.296 N 
HETATM   16  H13 MIQ B 502     -12.922 -14.498   2.154  1.00142.77     0.171 HD
HETATM   17  C21 MIQ B 502     -14.712 -15.638   2.394  1.00142.22     0.224 C 
HETATM   18  C22 MIQ B 502     -16.068 -15.661   1.714  1.00139.52     0.106 C 
HETATM   19  O24 MIQ B 502     -14.325 -16.548   3.041  1.00146.13    -0.273 OA
HETATM   20  C23 MIQ B 502     -16.828 -14.452   2.227  1.00139.15     0.045 C 
ENDBRANCH  10  12
BRANCH   5  21
HETATM   21  N6  MIQ B 502     -17.663 -10.000  -4.540  1.00140.95    -0.377 N 
HETATM   22  C7  MIQ B 502     -16.392  -9.721  -5.185  1.00142.12     0.149 C 
HETATM   23  C8  MIQ B 502     -16.566  -8.894  -6.452  1.00144.10     0.187 C 
HETATM   24  O9  MIQ B 502     -17.565  -9.389  -7.292  1.00148.65    -0.388 OA
HETATM   25  C10 MIQ B 502     -18.429 -10.394  -6.848  1.00147.44     0.187 C 
HETATM   26  C11 MIQ B 502     -18.769 -10.460  -5.363  1.00144.08     0.149 C 
ENDBRANCH   5  21
TORSDOF 2
ENDMDL
MODEL 2
REMARK VINA RESULT:      -6.3      1.427      2.412
REMARK  2 active torsions:
REMARK  status: ('A' for Active; 'I' for Inactive)
REMARK    1  A    between atoms: C5_5  and  N6_21 
REMARK    2  A    between atoms: C18_14  and  N17_19 
ROOT
HETATM    1  O1  MIQ B 502     -17.478 -10.501   1.104  1.00142.91    -0.171 OA
HETATM    2  C2  MIQ B 502     -16.934 -11.332   0.121  1.00141.17     0.195 A 
HETATM    3  C3  MIQ B 502     -17.058 -11.136  -1.424  1.00141.71     0.035 A 
HETATM    4  C4  MIQ B 502     -17.718 -10.115  -2.271  1.00142.86     0.046 A 
HETATM    5  C5  MIQ B 502     -17.654 -10.206  -3.685  1.00139.53     0.031 A 
HETATM    6  C12 MIQ B 502     -16.935 -11.310  -4.305  1.00139.38     0.030 A 
HETATM    7  C13 MIQ B 502     -16.301 -12.288  -3.493  1.00141.18     0.019 A 
HETATM    8  C14 MIQ B 502     -16.370 -12.185  -2.009  1.00138.77     0.033 A 
HETATM    9  C15 MIQ B 502     -15.815 -13.037  -0.822  1.00142.10     0.195 A 
HETATM   10  N17 MIQ B 502     -16.213 -12.428   0.283  1.00139.42    -0.288 N 
HETATM   11  O16 MIQ B 502     -15.056 -14.205  -0.914  1.00148.93    -0.171 OA
ENDROOT
BRANCH  10  12
HETATM   12  C18 MIQ B 502     -15.890 -12.953   1.596  1.00139.82     0.187 C 
HETATM   13  C19 MIQ B 502     -14.380 -13.212   1.638  1.00140.06     0.247 C 
HETATM   14  O25 MIQ B 502     -13.639 -12.354   1.313  1.00143.95    -0.271 OA
HETATM   15  N20 MIQ B 502     -13.834 -14.482   2.072  1.00140.02    -0.296 N 
HETATM   16  H13 MIQ B 502     -12.846 -14.641   2.088  1.00142.77     0.171 HD
HETATM   17  C21 MIQ B 502     -14.759 -15.518   2.454  1.00142.22     0.224 C 
HETATM   18  C22 MIQ B 502     -16.078 -15.563   1.707  1.00139.52     0.106 C 
HETATM   19  O24 MIQ B 502     -14.502 -16.291   3.310  1.00146.13    -0.273 OA
HETATM   20  C23 MIQ B 502     -16.723 -14.201   1.889  1.00139.15     0.045 C 
ENDBRANCH  10  12
BRANCH   5  21
HETATM   21  N6  MIQ B 502     -18.318  -9.208  -4.503  1.00140.95    -0.377 N 
HETATM   22  C7  MIQ B 502     -18.454  -7.860  -3.979  1.00142.12     0.149 C 
HETATM   23  C8  MIQ B 502     -19.655  -7.137  -4.575  1.00144.10     0.187 C 
HETATM   24  O9  MIQ B 502     -19.720  -7.246  -5.965  1.00148.65    -0.388 OA
HETATM   25  C10 MIQ B 502     -18.880  -8.131  -6.646  1.00147.44     0.187 C 
HETATM   26  C11 MIQ B 502     -18.437  -9.407  -5.937  1.00144.08     0.149 C 
ENDBRANCH   5  21
TORSDOF 2
ENDMDL
MODEL 3
REMARK VINA RESULT:      -6.2      2.736      7.730
REMARK  2 active torsions:
REMARK  status: ('A' for Active; 'I' for Inactive)
REMARK    1  A    between atoms: C5_5  and  N6_21 
REMARK    2  A    between atoms: C18_14  and  N17_19 
ROOT
HETATM    1  O1  MIQ B 502     -18.431  -9.773  -2.783  1.00142.91    -0.171 OA
HETATM    2  C2  MIQ B 502     -17.613 -10.702  -2.136  1.00141.17     0.195 A 
HETATM    3  C3  MIQ B 502     -17.519 -10.931  -0.593  1.00141.71     0.035 A 
HETATM    4  C4  MIQ B 502     -18.193 -10.311   0.572  1.00142.86     0.046 A 
HETATM    5  C5  MIQ B 502     -17.891 -10.744   1.888  1.00139.53     0.031 A 
HETATM    6  C12 MIQ B 502     -16.914 -11.804   2.094  1.00139.38     0.030 A 
HETATM    7  C13 MIQ B 502     -16.268 -12.399   0.977  1.00141.18     0.019 A 
HETATM    8  C14 MIQ B 502     -16.591 -11.942  -0.402  1.00138.77     0.033 A 
HETATM    9  C15 MIQ B 502     -16.107 -12.343  -1.834  1.00142.10     0.195 A 
HETATM   10  N17 MIQ B 502     -16.770 -11.566  -2.675  1.00139.42    -0.288 N 
HETATM   11  O16 MIQ B 502     -15.164 -13.321  -2.154  1.00148.93    -0.171 OA
ENDROOT
BRANCH  10  12
HETATM   12  C18 MIQ B 502     -16.562 -11.649  -4.108  1.00139.82     0.187 C 
HETATM   13  C19 MIQ B 502     -16.287 -10.231  -4.624  1.00140.06     0.247 C 
HETATM   14  O25 MIQ B 502     -15.460  -9.577  -4.096  1.00143.95    -0.271 OA
HETATM   15  N20 MIQ B 502     -17.012  -9.674  -5.748  1.00140.02    -0.296 N 
HETATM   16  H13 MIQ B 502     -16.828  -8.744  -6.071  1.00142.77     0.171 HD
HETATM   17  C21 MIQ B 502     -18.024 -10.488  -6.369  1.00142.22     0.224 C 
HETATM   18  C22 MIQ B 502     -18.793 -11.429  -5.461  1.00139.52     0.106 C 
HETATM   19  O24 MIQ B 502     -18.239 -10.429  -7.529  1.00146.13    -0.273 OA
HETATM   20  C23 MIQ B 502     -17.762 -12.312  -4.782  1.00139.15     0.045 C 
ENDBRANCH  10  12
BRANCH   5  21
HETATM   21  N6  MIQ B 502     -18.548 -10.118   3.021  1.00140.95    -0.377 N 
HETATM   22  C7  MIQ B 502     -19.918  -9.660   2.864  1.00142.12     0.149 C 
HETATM   23  C8  MIQ B 502     -20.246  -8.513   3.811  1.00144.10     0.187 C 
HETATM   24  O9  MIQ B 502     -19.848  -8.763   5.125  1.00148.65    -0.388 OA
HETATM   25  C10 MIQ B 502     -19.033  -9.858   5.422  1.00147.44     0.187 C 
HETATM   26  C11 MIQ B 502     -18.044 -10.339   4.365  1.00144.08     0.149 C 
ENDBRANCH   5  21
TORSDOF 2
ENDMDL
MODEL 4
REMARK VINA RESULT:      -6.2      2.675      4.627
REMARK  2 active torsions:
REMARK  status: ('A' for Active; 'I' for Inactive)
REMARK    1  A    between atoms: C5_5  and  N6_21 
REMARK    2  A    between atoms: C18_14  and  N17_19 
ROOT
HETATM    1  O1  MIQ B 502     -18.826 -10.324   1.984  1.00142.91    -0.171 OA
HETATM    2  C2  MIQ B 502     -17.774 -11.237   1.883  1.00141.17     0.195 A 
HETATM    3  C3  MIQ B 502     -17.042 -11.660   0.570  1.00141.71     0.035 A 
HETATM    4  C4  MIQ B 502     -17.198 -11.275  -0.853  1.00142.86     0.046 A 
HETATM    5  C5  MIQ B 502     -16.360 -11.844  -1.845  1.00139.53     0.031 A 
HETATM    6  C12 MIQ B 502     -15.342 -12.812  -1.463  1.00139.38     0.030 A 
HETATM    7  C13 MIQ B 502     -15.191 -13.180  -0.099  1.00141.18     0.019 A 
HETATM    8  C14 MIQ B 502     -16.072 -12.578   0.939  1.00138.77     0.033 A 
HETATM    9  C15 MIQ B 502     -16.202 -12.725   2.490  1.00142.10     0.195 A 
HETATM   10  N17 MIQ B 502     -17.185 -11.917   2.852  1.00139.42    -0.288 N 
HETATM   11  O16 MIQ B 502     -15.436 -13.547   3.319  1.00148.93    -0.171 OA
ENDROOT
BRANCH  10  12
HETATM   12  C18 MIQ B 502     -17.601 -11.805   4.238  1.00139.82     0.187 C 
HETATM   13  C19 MIQ B 502     -19.119 -12.017   4.289  1.00140.06     0.247 C 
HETATM   14  O25 MIQ B 502     -19.586 -12.965   3.764  1.00143.95    -0.271 OA
HETATM   15  N20 MIQ B 502     -19.998 -11.088   4.969  1.00140.02    -0.296 N 
HETATM   16  H13 MIQ B 502     -20.988 -11.234   4.989  1.00142.77     0.171 HD
HETATM   17  C21 MIQ B 502     -19.405  -9.933   5.593  1.00142.22     0.224 C 
HETATM   18  C22 MIQ B 502     -18.184  -9.343   4.914  1.00139.52     0.106 C 
HETATM   19  O24 MIQ B 502     -19.848  -9.473   6.588  1.00146.13    -0.273 OA
HETATM   20  C23 MIQ B 502     -17.162 -10.461   4.817  1.00139.15     0.045 C 
ENDBRANCH  10  12
BRANCH   5  21
HETATM   21  N6  MIQ B 502     -16.534 -11.469  -3.237  1.00140.95    -0.377 N 
HETATM   22  C7  MIQ B 502     -17.543 -12.159  -4.022  1.00142.12     0.149 C 
HETATM   23  C8  MIQ B 502     -17.204 -12.162  -5.507  1.00144.10     0.187 C 
HETATM   24  O9  MIQ B 502     -16.837 -10.902  -5.983  1.00148.65    -0.388 OA
HETATM   25  C10 MIQ B 502     -16.597  -9.851  -5.093  1.00147.44     0.187 C 
HETATM   26  C11 MIQ B 502     -16.057 -10.180  -3.705  1.00144.08     0.149 C 
ENDBRANCH   5  21
TORSDOF 2
ENDMDL
MODEL 5
REMARK VINA RESULT:      -6.2      2.130      8.267
REMARK  2 active torsions:
REMARK  status: ('A' for Active; 'I' for Inactive)
REMARK    1  A    between atoms: C5_5  and  N6_21 
REMARK    2  A    between atoms: C18_14  and  N17_19 
ROOT
HETATM    1  O1  MIQ B 502     -15.594  -9.625  -4.600  1.00142.91    -0.171 OA
HETATM    2  C2  MIQ B 502     -16.733  -9.906  -3.842  1.00141.17     0.195 A 
HETATM    3  C3  MIQ B 502     -16.785 -10.768  -2.540  1.00141.71     0.035 A 
HETATM    4  C4  MIQ B 502     -15.758 -11.494  -1.757  1.00142.86     0.046 A 
HETATM    5  C5  MIQ B 502     -16.120 -12.206  -0.585  1.00139.53     0.031 A 
HETATM    6  C12 MIQ B 502     -17.509 -12.222  -0.150  1.00139.38     0.030 A 
HETATM    7  C13 MIQ B 502     -18.494 -11.525  -0.900  1.00141.18     0.019 A 
HETATM    8  C14 MIQ B 502     -18.108 -10.778  -2.128  1.00138.77     0.033 A 
HETATM    9  C15 MIQ B 502     -18.881  -9.916  -3.180  1.00142.10     0.195 A 
HETATM   10  N17 MIQ B 502     -17.976  -9.509  -4.054  1.00139.42    -0.288 N 
HETATM   11  O16 MIQ B 502     -20.249  -9.639  -3.190  1.00148.93    -0.171 OA
ENDROOT
BRANCH  10  12
HETATM   12  C18 MIQ B 502     -18.340  -8.689  -5.195  1.00139.82     0.187 C 
HETATM   13  C19 MIQ B 502     -17.758  -9.350  -6.451  1.00140.06     0.247 C 
HETATM   14  O25 MIQ B 502     -17.964 -10.494  -6.648  1.00143.95    -0.271 OA
HETATM   15  N20 MIQ B 502     -16.965  -8.605  -7.407  1.00140.02    -0.296 N 
HETATM   16  H13 MIQ B 502     -16.585  -9.049  -8.220  1.00142.77     0.171 HD
HETATM   17  C21 MIQ B 502     -16.719  -7.211  -7.140  1.00142.22     0.224 C 
HETATM   18  C22 MIQ B 502     -16.582  -6.811  -5.683  1.00139.52     0.106 C 
HETATM   19  O24 MIQ B 502     -16.633  -6.420  -8.013  1.00146.13    -0.273 OA
HETATM   20  C23 MIQ B 502     -17.859  -7.253  -4.993  1.00139.15     0.045 C 
ENDBRANCH  10  12
BRANCH   5  21
HETATM   21  N6  MIQ B 502     -15.106 -12.925   0.164  1.00140.95    -0.377 N 
HETATM   22  C7  MIQ B 502     -15.458 -14.200   0.763  1.00142.12     0.149 C 
HETATM   23  C8  MIQ B 502     -14.602 -14.511   1.984  1.00144.10     0.187 C 
HETATM   24  O9  MIQ B 502     -13.239 -14.316   1.756  1.00148.65    -0.388 OA
HETATM   25  C10 MIQ B 502     -12.800 -13.678   0.592  1.00147.44     0.187 C 
HETATM   26  C11 MIQ B 502     -13.700 -12.625  -0.046  1.00144.08     0.149 C 
ENDBRANCH   5  21
TORSDOF 2
ENDMDL
MODEL 6
REMARK VINA RESULT:      -6.1      1.845      8.047
REMARK  2 active torsions:
REMARK  status: ('A' for Active; 'I' for Inactive)
REMARK    1  A    between atoms: C5_5  and  N6_21 
REMARK    2  A    between atoms: C18_14  and  N17_19 
ROOT
HETATM    1  O1  MIQ B 502     -16.501 -10.976  -4.455  1.00142.91    -0.171 OA
HETATM    2  C2  MIQ B 502     -17.204 -10.454  -3.367  1.00141.17     0.195 A 
HETATM    3  C3  MIQ B 502     -17.048 -10.888  -1.875  1.00141.71     0.035 A 
HETATM    4  C4  MIQ B 502     -16.193 -11.886  -1.188  1.00142.86     0.046 A 
HETATM    5  C5  MIQ B 502     -16.278 -12.055   0.217  1.00139.53     0.031 A 
HETATM    6  C12 MIQ B 502     -17.209 -11.244   0.988  1.00139.38     0.030 A 
HETATM    7  C13 MIQ B 502     -18.028 -10.287   0.330  1.00141.18     0.019 A 
HETATM    8  C14 MIQ B 502     -17.933 -10.111  -1.145  1.00138.77     0.033 A 
HETATM    9  C15 MIQ B 502     -18.642  -9.189  -2.190  1.00142.10     0.195 A 
HETATM   10  N17 MIQ B 502     -18.123  -9.504  -3.366  1.00139.42    -0.288 N 
HETATM   11  O16 MIQ B 502     -19.624  -8.233  -1.930  1.00148.93    -0.171 OA
ENDROOT
BRANCH  10  12
HETATM   12  C18 MIQ B 502     -18.561  -8.852  -4.586  1.00139.82     0.187 C 
HETATM   13  C19 MIQ B 502     -18.977  -9.945  -5.578  1.00140.06     0.247 C 
HETATM   14  O25 MIQ B 502     -19.733 -10.781  -5.230  1.00143.95    -0.271 OA
HETATM   15  N20 MIQ B 502     -18.471  -9.977  -6.935  1.00140.02    -0.296 N 
HETATM   16  H13 MIQ B 502     -18.745 -10.700  -7.570  1.00142.77     0.171 HD
HETATM   17  C21 MIQ B 502     -17.541  -8.952  -7.333  1.00142.22     0.224 C 
HETATM   18  C22 MIQ B 502     -16.594  -8.440  -6.265  1.00139.52     0.106 C 
HETATM   19  O24 MIQ B 502     -17.522  -8.529  -8.436  1.00146.13    -0.273 OA
HETATM   20  C23 MIQ B 502     -17.461  -7.938  -5.124  1.00139.15     0.045 C 
ENDBRANCH  10  12
BRANCH   5  21
HETATM   21  N6  MIQ B 502     -15.446 -13.046   0.875  1.00140.95    -0.377 N 
HETATM   22  C7  MIQ B 502     -15.673 -14.450   0.580  1.00142.12     0.149 C 
HETATM   23  C8  MIQ B 502     -15.244 -15.351   1.731  1.00144.10     0.187 C 
HETATM   24  O9  MIQ B 502     -13.973 -15.041   2.218  1.00148.65    -0.388 OA
HETATM   25  C10 MIQ B 502     -13.323 -13.875   1.808  1.00147.44     0.187 C 
HETATM   26  C11 MIQ B 502     -14.167 -12.658   1.444  1.00144.08     0.149 C 
ENDBRANCH   5  21
TORSDOF 2
ENDMDL
MODEL 7
REMARK VINA RESULT:      -6.1      2.255      8.443
REMARK  2 active torsions:
REMARK  status: ('A' for Active; 'I' for Inactive)
REMARK    1  A    between atoms: C5_5  and  N6_21 
REMARK    2  A    between atoms: C18_14  and  N17_19 
ROOT
HETATM    1  O1  MIQ B 502     -19.602  -9.860  -1.919  1.00142.91    -0.171 OA
HETATM    2  C2  MIQ B 502     -18.714 -10.679  -2.619  1.00141.17     0.195 A 
HETATM    3  C3  MIQ B 502     -17.505 -11.460  -2.012  1.00141.71     0.035 A 
HETATM    4  C4  MIQ B 502     -16.957 -11.583  -0.640  1.00142.86     0.046 A 
HETATM    5  C5  MIQ B 502     -15.817 -12.390  -0.394  1.00139.53     0.031 A 
HETATM    6  C12 MIQ B 502     -15.183 -13.101  -1.495  1.00139.38     0.030 A 
HETATM    7  C13 MIQ B 502     -15.709 -12.983  -2.810  1.00141.18     0.019 A 
HETATM    8  C14 MIQ B 502     -16.907 -12.137  -3.062  1.00138.77     0.033 A 
HETATM    9  C15 MIQ B 502     -17.750 -11.775  -4.328  1.00142.10     0.195 A 
HETATM   10  N17 MIQ B 502     -18.709 -10.965  -3.910  1.00139.42    -0.288 N 
HETATM   11  O16 MIQ B 502     -17.529 -12.218  -5.634  1.00148.93    -0.171 OA
ENDROOT
BRANCH  10  12
HETATM   12  C18 MIQ B 502     -19.685 -10.409  -4.828  1.00139.82     0.187 C 
HETATM   13  C19 MIQ B 502     -20.335 -11.575  -5.582  1.00140.06     0.247 C 
HETATM   14  O25 MIQ B 502     -20.774 -12.483  -4.971  1.00143.95    -0.271 OA
HETATM   15  N20 MIQ B 502     -20.432 -11.590  -7.028  1.00140.02    -0.296 N 
HETATM   16  H13 MIQ B 502     -20.853 -12.361  -7.509  1.00142.77     0.171 HD
HETATM   17  C21 MIQ B 502     -19.880 -10.475  -7.753  1.00142.22     0.224 C 
HETATM   18  C22 MIQ B 502     -18.647  -9.820  -7.159  1.00139.52     0.106 C 
HETATM   19  O24 MIQ B 502     -20.368 -10.088  -8.757  1.00146.13    -0.273 OA
HETATM   20  C23 MIQ B 502     -19.023  -9.389  -5.753  1.00139.15     0.045 C 
ENDBRANCH  10  12
BRANCH   5  21
HETATM   21  N6  MIQ B 502     -15.282 -12.490   0.952  1.00140.95    -0.377 N 
HETATM   22  C7  MIQ B 502     -16.146 -12.993   2.007  1.00142.12     0.149 C 
HETATM   23  C8  MIQ B 502     -15.739 -12.463   3.376  1.00144.10     0.187 C 
HETATM   24  O9  MIQ B 502     -14.369 -12.580   3.619  1.00148.65    -0.388 OA
HETATM   25  C10 MIQ B 502     -13.495 -12.933   2.587  1.00147.44     0.187 C 
HETATM   26  C11 MIQ B 502     -13.846 -12.522   1.161  1.00144.08     0.149 C 
ENDBRANCH   5  21
TORSDOF 2
ENDMDL
MODEL 8
REMARK VINA RESULT:      -5.9      2.641      8.081
REMARK  2 active torsions:
REMARK  status: ('A' for Active; 'I' for Inactive)
REMARK    1  A    between atoms: C5_5  and  N6_21 
REMARK    2  A    between atoms: C18_14  and  N17_19 
ROOT
HETATM    1  O1  MIQ B 502     -17.055 -12.650  -5.203  1.00142.91    -0.171 OA
HETATM    2  C2  MIQ B 502     -17.818 -12.005  -4.227  1.00141.17     0.195 A 
HETATM    3  C3  MIQ B 502     -17.448 -11.856  -2.717  1.00141.71     0.035 A 
HETATM    4  C4  MIQ B 502     -16.291 -12.298  -1.903  1.00142.86     0.046 A 
HETATM    5  C5  MIQ B 502     -16.236 -12.005  -0.517  1.00139.53     0.031 A 
HETATM    6  C12 MIQ B 502     -17.323 -11.266   0.109  1.00139.38     0.030 A 
HETATM    7  C13 MIQ B 502     -18.432 -10.841  -0.671  1.00141.18     0.019 A 
HETATM    8  C14 MIQ B 502     -18.483 -11.150  -2.126  1.00138.77     0.033 A 
HETATM    9  C15 MIQ B 502     -19.500 -10.857  -3.277  1.00142.10     0.195 A 
HETATM   10  N17 MIQ B 502     -18.981 -11.394  -4.369  1.00139.42    -0.288 N 
HETATM   11  O16 MIQ B 502     -20.711 -10.170  -3.167  1.00148.93    -0.171 OA
ENDROOT
BRANCH  10  12
HETATM   12  C18 MIQ B 502     -19.669 -11.329  -5.645  1.00139.82     0.187 C 
HETATM   13  C19 MIQ B 502     -19.993  -9.857  -5.928  1.00140.06     0.247 C 
HETATM   14  O25 MIQ B 502     -19.134  -9.053  -5.850  1.00143.95    -0.271 OA
HETATM   15  N20 MIQ B 502     -21.327  -9.425  -6.294  1.00140.02    -0.296 N 
HETATM   16  H13 MIQ B 502     -21.527  -8.460  -6.470  1.00142.77     0.171 HD
HETATM   17  C21 MIQ B 502     -22.361 -10.424  -6.373  1.00142.22     0.224 C 
HETATM   18  C22 MIQ B 502     -22.264 -11.584  -5.400  1.00139.52     0.106 C 
HETATM   19  O24 MIQ B 502     -23.238 -10.345  -7.161  1.00146.13    -0.273 OA
HETATM   20  C23 MIQ B 502     -20.907 -12.225  -5.627  1.00139.15     0.045 C 
ENDBRANCH  10  12
BRANCH   5  21
HETATM   21  N6  MIQ B 502     -15.104 -12.457   0.271  1.00140.95    -0.377 N 
HETATM   22  C7  MIQ B 502     -13.805 -12.559  -0.373  1.00142.12     0.149 C 
HETATM   23  C8  MIQ B 502     -12.916 -13.596   0.301  1.00144.10     0.187 C 
HETATM   24  O9  MIQ B 502     -12.884 -13.463   1.691  1.00148.65    -0.388 OA
HETATM   25  C10 MIQ B 502     -13.776 -12.607   2.341  1.00147.44     0.187 C 
HETATM   26  C11 MIQ B 502     -15.151 -12.379   1.721  1.00144.08     0.149 C 
ENDBRANCH   5  21
TORSDOF 2
ENDMDL
MODEL 9
REMARK VINA RESULT:      -5.9     11.226     16.788
REMARK  2 active torsions:
REMARK  status: ('A' for Active; 'I' for Inactive)
REMARK    1  A    between atoms: C5_5  and  N6_21 
REMARK    2  A    between atoms: C18_14  and  N17_19 
ROOT
HETATM    1  O1  MIQ B 502     -11.437 -11.774 -15.830  1.00142.91    -0.171 OA
HETATM    2  C2  MIQ B 502     -11.411 -10.423 -16.182  1.00141.17     0.195 A 
HETATM    3  C3  MIQ B 502     -11.870  -9.228 -15.287  1.00141.71     0.035 A 
HETATM    4  C4  MIQ B 502     -12.424  -9.136 -13.915  1.00142.86     0.046 A 
HETATM    5  C5  MIQ B 502     -12.753  -7.874 -13.358  1.00139.53     0.031 A 
HETATM    6  C12 MIQ B 502     -12.545  -6.663 -14.139  1.00139.38     0.030 A 
HETATM    7  C13 MIQ B 502     -12.013  -6.751 -15.453  1.00141.18     0.019 A 
HETATM    8  C14 MIQ B 502     -11.667  -8.078 -16.032  1.00138.77     0.033 A 
HETATM    9  C15 MIQ B 502     -11.077  -8.562 -17.397  1.00142.10     0.195 A 
HETATM   10  N17 MIQ B 502     -10.998  -9.879 -17.314  1.00139.42    -0.288 N 
HETATM   11  O16 MIQ B 502     -10.714  -7.761 -18.481  1.00148.93    -0.171 OA
ENDROOT
BRANCH  10  12
HETATM   12  C18 MIQ B 502     -10.503 -10.679 -18.419  1.00139.82     0.187 C 
HETATM   13  C19 MIQ B 502     -11.542 -11.769 -18.709  1.00140.06     0.247 C 
HETATM   14  O25 MIQ B 502     -12.671 -11.463 -18.859  1.00143.95    -0.271 OA
HETATM   15  N20 MIQ B 502     -11.175 -13.167 -18.812  1.00140.02    -0.296 N 
HETATM   16  H13 MIQ B 502     -11.864 -13.869 -18.996  1.00142.77     0.171 HD
HETATM   17  C21 MIQ B 502      -9.792 -13.517 -18.615  1.00142.22     0.224 C 
HETATM   18  C22 MIQ B 502      -9.012 -12.679 -17.621  1.00139.52     0.106 C 
HETATM   19  O24 MIQ B 502      -9.291 -14.411 -19.204  1.00146.13    -0.273 OA
HETATM   20  C23 MIQ B 502      -9.120 -11.240 -18.091  1.00139.15     0.045 C 
ENDBRANCH  10  12
BRANCH   5  21
HETATM   21  N6  MIQ B 502     -13.308  -7.800 -12.019  1.00140.95    -0.377 N 
HETATM   22  C7  MIQ B 502     -14.739  -7.989 -11.849  1.00142.12     0.149 C 
HETATM   23  C8  MIQ B 502     -15.262  -7.280 -10.606  1.00144.10     0.187 C 
HETATM   24  O9  MIQ B 502     -14.488  -7.529  -9.472  1.00148.65    -0.388 OA
HETATM   25  C10 MIQ B 502     -13.253  -8.172  -9.585  1.00147.44     0.187 C 
HETATM   26  C11 MIQ B 502     -12.446  -7.981 -10.864  1.00144.08     0.149 C 
ENDBRANCH   5  21
TORSDOF 2
ENDMDL
