MODEL 1
REMARK VINA RESULT:      -8.0      0.000      0.000
REMARK  2 active torsions:
REMARK  status: ('A' for Active; 'I' for Inactive)
REMARK    1  A    between atoms: C5_5  and  N6_21 
REMARK    2  A    between atoms: C18_14  and  N17_19 
ROOT
HETATM    1  O1  MIQ B 502     -12.742   2.075 -17.392  1.00142.91    -0.171 OA
HETATM    2  C2  MIQ B 502     -11.430   1.673 -17.135  1.00141.17     0.195 A 
HETATM    3  C3  MIQ B 502     -10.975   0.253 -16.669  1.00141.71     0.035 A 
HETATM    4  C4  MIQ B 502     -11.702  -1.005 -16.378  1.00142.86     0.046 A 
HETATM    5  C5  MIQ B 502     -10.995  -2.162 -15.963  1.00139.53     0.031 A 
HETATM    6  C12 MIQ B 502      -9.547  -2.112 -15.823  1.00139.38     0.030 A 
HETATM    7  C13 MIQ B 502      -8.849  -0.906 -16.103  1.00141.18     0.019 A 
HETATM    8  C14 MIQ B 502      -9.597   0.304 -16.540  1.00138.77     0.033 A 
HETATM    9  C15 MIQ B 502      -9.193   1.764 -16.930  1.00142.10     0.195 A 
HETATM   10  N17 MIQ B 502     -10.321   2.386 -17.233  1.00139.42    -0.288 N 
HETATM   11  O16 MIQ B 502      -7.904   2.298 -16.948  1.00148.93    -0.171 OA
ENDROOT
BRANCH  10  12
HETATM   12  C18 MIQ B 502     -10.333   3.781 -17.631  1.00139.82     0.187 C 
HETATM   13  C19 MIQ B 502     -11.221   4.542 -16.640  1.00140.06     0.247 C 
HETATM   14  O25 MIQ B 502     -11.031   4.416 -15.482  1.00143.95    -0.271 OA
HETATM   15  N20 MIQ B 502     -12.285   5.419 -17.084  1.00140.02    -0.296 N 
HETATM   16  H13 MIQ B 502     -12.862   5.906 -16.427  1.00142.77     0.171 HD
HETATM   17  C21 MIQ B 502     -12.503   5.549 -18.502  1.00142.22     0.224 C 
HETATM   18  C22 MIQ B 502     -12.235   4.319 -19.348  1.00139.52     0.106 C 
HETATM   19  O24 MIQ B 502     -12.868   6.566 -18.980  1.00146.13    -0.273 OA
HETATM   20  C23 MIQ B 502     -10.796   3.917 -19.081  1.00139.15     0.045 C 
ENDBRANCH  10  12
BRANCH   5  21
HETATM   21  N6  MIQ B 502     -11.721  -3.384 -15.667  1.00140.95    -0.377 N 
HETATM   22  C7  MIQ B 502     -13.173  -3.336 -15.627  1.00142.12     0.149 C 
HETATM   23  C8  MIQ B 502     -13.752  -4.415 -14.721  1.00144.10     0.187 C 
HETATM   24  O9  MIQ B 502     -13.203  -5.677 -14.958  1.00148.65    -0.388 OA
HETATM   25  C10 MIQ B 502     -12.084  -5.817 -15.783  1.00147.44     0.187 C 
HETATM   26  C11 MIQ B 502     -11.078  -4.673 -15.849  1.00144.08     0.149 C 
ENDBRANCH   5  21
TORSDOF 2
ENDMDL
MODEL 2
REMARK VINA RESULT:      -7.0      2.638      3.785
REMARK  2 active torsions:
REMARK  status: ('A' for Active; 'I' for Inactive)
REMARK    1  A    between atoms: C5_5  and  N6_21 
REMARK    2  A    between atoms: C18_14  and  N17_19 
ROOT
HETATM    1  O1  MIQ B 502     -12.453  -0.476 -18.236  1.00142.91    -0.171 OA
HETATM    2  C2  MIQ B 502     -11.467  -1.336 -17.747  1.00141.17     0.195 A 
HETATM    3  C3  MIQ B 502     -11.704  -2.610 -16.876  1.00141.71     0.035 A 
HETATM    4  C4  MIQ B 502     -12.920  -3.266 -16.338  1.00142.86     0.046 A 
HETATM    5  C5  MIQ B 502     -12.813  -4.446 -15.560  1.00139.53     0.031 A 
HETATM    6  C12 MIQ B 502     -11.502  -5.017 -15.290  1.00139.38     0.030 A 
HETATM    7  C13 MIQ B 502     -10.336  -4.390 -15.806  1.00141.18     0.019 A 
HETATM    8  C14 MIQ B 502     -10.454  -3.152 -16.624  1.00138.77     0.033 A 
HETATM    9  C15 MIQ B 502      -9.436  -2.209 -17.343  1.00142.10     0.195 A 
HETATM   10  N17 MIQ B 502     -10.158  -1.260 -17.916  1.00139.42    -0.288 N 
HETATM   11  O16 MIQ B 502      -8.047  -2.343 -17.370  1.00148.93    -0.171 OA
ENDROOT
BRANCH  10  12
HETATM   12  C18 MIQ B 502      -9.538  -0.186 -18.669  1.00139.82     0.187 C 
HETATM   13  C19 MIQ B 502     -10.071   1.141 -18.116  1.00140.06     0.247 C 
HETATM   14  O25 MIQ B 502     -10.030   1.339 -16.953  1.00143.95    -0.271 OA
HETATM   15  N20 MIQ B 502     -10.617   2.165 -18.982  1.00140.02    -0.296 N 
HETATM   16  H13 MIQ B 502     -10.968   3.025 -18.608  1.00142.77     0.171 HD
HETATM   17  C21 MIQ B 502     -10.665   1.897 -20.397  1.00142.22     0.224 C 
HETATM   18  C22 MIQ B 502     -10.903   0.457 -20.809  1.00139.52     0.106 C 
HETATM   19  O24 MIQ B 502     -10.521   2.758 -21.194  1.00146.13    -0.273 OA
HETATM   20  C23 MIQ B 502      -9.801  -0.364 -20.163  1.00139.15     0.045 C 
ENDBRANCH  10  12
BRANCH   5  21
HETATM   21  N6  MIQ B 502     -14.011  -5.069 -15.027  1.00140.95    -0.377 N 
HETATM   22  C7  MIQ B 502     -13.880  -6.324 -14.307  1.00142.12     0.149 C 
HETATM   23  C8  MIQ B 502     -15.154  -7.156 -14.378  1.00144.10     0.187 C 
HETATM   24  O9  MIQ B 502     -16.303  -6.417 -14.086  1.00148.65    -0.388 OA
HETATM   25  C10 MIQ B 502     -16.242  -5.025 -13.983  1.00147.44     0.187 C 
HETATM   26  C11 MIQ B 502     -15.211  -4.276 -14.821  1.00144.08     0.149 C 
ENDBRANCH   5  21
TORSDOF 2
ENDMDL
MODEL 3
REMARK VINA RESULT:      -7.0      2.134      8.058
REMARK  2 active torsions:
REMARK  status: ('A' for Active; 'I' for Inactive)
REMARK    1  A    between atoms: C5_5  and  N6_21 
REMARK    2  A    between atoms: C18_14  and  N17_19 
ROOT
HETATM    1  O1  MIQ B 502     -13.512  -2.209 -15.983  1.00142.91    -0.171 OA
HETATM    2  C2  MIQ B 502     -12.169  -2.559 -16.143  1.00141.17     0.195 A 
HETATM    3  C3  MIQ B 502     -10.983  -1.573 -16.389  1.00141.71     0.035 A 
HETATM    4  C4  MIQ B 502     -10.892  -0.099 -16.518  1.00142.86     0.046 A 
HETATM    5  C5  MIQ B 502      -9.639   0.525 -16.743  1.00139.53     0.031 A 
HETATM    6  C12 MIQ B 502      -8.436  -0.287 -16.847  1.00139.38     0.030 A 
HETATM    7  C13 MIQ B 502      -8.522  -1.700 -16.722  1.00141.18     0.019 A 
HETATM    8  C14 MIQ B 502      -9.839  -2.350 -16.484  1.00138.77     0.033 A 
HETATM    9  C15 MIQ B 502     -10.319  -3.826 -16.294  1.00142.10     0.195 A 
HETATM   10  N17 MIQ B 502     -11.628  -3.765 -16.115  1.00139.42    -0.288 N 
HETATM   11  O16 MIQ B 502      -9.523  -4.972 -16.315  1.00148.93    -0.171 OA
ENDROOT
BRANCH  10  12
HETATM   12  C18 MIQ B 502     -12.423  -4.963 -15.921  1.00139.82     0.187 C 
HETATM   13  C19 MIQ B 502     -13.595  -4.913 -16.908  1.00140.06     0.247 C 
HETATM   14  O25 MIQ B 502     -13.378  -4.709 -18.050  1.00143.95    -0.271 OA
HETATM   15  N20 MIQ B 502     -14.964  -5.114 -16.480  1.00140.02    -0.296 N 
HETATM   16  H13 MIQ B 502     -15.721  -5.072 -17.134  1.00142.77     0.171 HD
HETATM   17  C21 MIQ B 502     -15.204  -5.351 -15.080  1.00142.22     0.224 C 
HETATM   18  C22 MIQ B 502     -14.281  -4.651 -14.102  1.00139.52     0.106 C 
HETATM   19  O24 MIQ B 502     -16.076  -6.060 -14.714  1.00146.13    -0.273 OA
HETATM   20  C23 MIQ B 502     -12.869  -5.075 -14.464  1.00139.15     0.045 C 
ENDBRANCH  10  12
BRANCH   5  21
HETATM   21  N6  MIQ B 502      -9.568   1.968 -16.883  1.00140.95    -0.377 N 
HETATM   22  C7  MIQ B 502      -8.372   2.652 -16.421  1.00142.12     0.149 C 
HETATM   23  C8  MIQ B 502      -8.659   4.095 -16.026  1.00144.10     0.187 C 
HETATM   24  O9  MIQ B 502      -9.407   4.782 -16.984  1.00148.65    -0.388 OA
HETATM   25  C10 MIQ B 502      -9.995   4.095 -18.050  1.00147.44     0.187 C 
HETATM   26  C11 MIQ B 502     -10.429   2.649 -17.834  1.00144.08     0.149 C 
ENDBRANCH   5  21
TORSDOF 2
ENDMDL
MODEL 4
REMARK VINA RESULT:      -6.9      1.935      2.525
REMARK  2 active torsions:
REMARK  status: ('A' for Active; 'I' for Inactive)
REMARK    1  A    between atoms: C5_5  and  N6_21 
REMARK    2  A    between atoms: C18_14  and  N17_19 
ROOT
HETATM    1  O1  MIQ B 502     -14.266   0.372 -18.618  1.00142.91    -0.171 OA
HETATM    2  C2  MIQ B 502     -12.955   0.302 -18.142  1.00141.17     0.195 A 
HETATM    3  C3  MIQ B 502     -12.360  -0.827 -17.242  1.00141.71     0.035 A 
HETATM    4  C4  MIQ B 502     -12.922  -2.068 -16.658  1.00142.86     0.046 A 
HETATM    5  C5  MIQ B 502     -12.112  -2.917 -15.862  1.00139.53     0.031 A 
HETATM    6  C12 MIQ B 502     -10.720  -2.567 -15.619  1.00139.38     0.030 A 
HETATM    7  C13 MIQ B 502     -10.180  -1.378 -16.179  1.00141.18     0.019 A 
HETATM    8  C14 MIQ B 502     -11.035  -0.492 -17.016  1.00138.77     0.033 A 
HETATM    9  C15 MIQ B 502     -10.806   0.853 -17.780  1.00142.10     0.195 A 
HETATM   10  N17 MIQ B 502     -11.963   1.151 -18.349  1.00139.42    -0.288 N 
HETATM   11  O16 MIQ B 502      -9.620   1.587 -17.844  1.00148.93    -0.171 OA
ENDROOT
BRANCH  10  12
HETATM   12  C18 MIQ B 502     -12.130   2.356 -19.139  1.00139.82     0.187 C 
HETATM   13  C19 MIQ B 502     -11.119   2.305 -20.291  1.00140.06     0.247 C 
HETATM   14  O25 MIQ B 502     -11.065   1.340 -20.967  1.00143.95    -0.271 OA
HETATM   15  N20 MIQ B 502     -10.230   3.413 -20.577  1.00140.02    -0.296 N 
HETATM   16  H13 MIQ B 502      -9.570   3.364 -21.328  1.00142.77     0.171 HD
HETATM   17  C21 MIQ B 502     -10.308   4.576 -19.731  1.00142.22     0.224 C 
HETATM   18  C22 MIQ B 502     -10.650   4.336 -18.273  1.00139.52     0.106 C 
HETATM   19  O24 MIQ B 502     -10.119   5.662 -20.156  1.00146.13    -0.273 OA
HETATM   20  C23 MIQ B 502     -11.975   3.595 -18.258  1.00139.15     0.045 C 
ENDBRANCH  10  12
BRANCH   5  21
HETATM   21  N6  MIQ B 502     -12.680  -4.121 -15.284  1.00140.95    -0.377 N 
HETATM   22  C7  MIQ B 502     -14.124  -4.283 -15.296  1.00142.12     0.149 C 
HETATM   23  C8  MIQ B 502     -14.605  -5.177 -14.161  1.00144.10     0.187 C 
HETATM   24  O9  MIQ B 502     -13.873  -6.361 -14.054  1.00148.65    -0.388 OA
HETATM   25  C10 MIQ B 502     -12.695  -6.533 -14.786  1.00147.44     0.187 C 
HETATM   26  C11 MIQ B 502     -11.854  -5.304 -15.114  1.00144.08     0.149 C 
ENDBRANCH   5  21
TORSDOF 2
ENDMDL
MODEL 5
REMARK VINA RESULT:      -6.8      4.773      8.471
REMARK  2 active torsions:
REMARK  status: ('A' for Active; 'I' for Inactive)
REMARK    1  A    between atoms: C5_5  and  N6_21 
REMARK    2  A    between atoms: C18_14  and  N17_19 
ROOT
HETATM    1  O1  MIQ B 502     -16.008  -2.333 -15.357  1.00142.91    -0.171 OA
HETATM    2  C2  MIQ B 502     -15.448  -3.575 -15.047  1.00141.17     0.195 A 
HETATM    3  C3  MIQ B 502     -13.938  -3.959 -15.156  1.00141.71     0.035 A 
HETATM    4  C4  MIQ B 502     -12.726  -3.217 -15.576  1.00142.86     0.046 A 
HETATM    5  C5  MIQ B 502     -11.458  -3.852 -15.567  1.00139.53     0.031 A 
HETATM    6  C12 MIQ B 502     -11.348  -5.240 -15.143  1.00139.38     0.030 A 
HETATM    7  C13 MIQ B 502     -12.510  -5.952 -14.739  1.00141.18     0.019 A 
HETATM    8  C14 MIQ B 502     -13.838  -5.279 -14.748  1.00138.77     0.033 A 
HETATM    9  C15 MIQ B 502     -15.294  -5.717 -14.383  1.00142.10     0.195 A 
HETATM   10  N17 MIQ B 502     -16.059  -4.660 -14.601  1.00139.42    -0.288 N 
HETATM   11  O16 MIQ B 502     -15.699  -6.971 -13.923  1.00148.93    -0.171 OA
ENDROOT
BRANCH  10  12
HETATM   12  C18 MIQ B 502     -17.492  -4.703 -14.382  1.00139.82     0.187 C 
HETATM   13  C19 MIQ B 502     -18.177  -4.242 -15.674  1.00140.06     0.247 C 
HETATM   14  O25 MIQ B 502     -17.873  -4.744 -16.698  1.00143.95    -0.271 OA
HETATM   15  N20 MIQ B 502     -19.194  -3.211 -15.673  1.00140.02    -0.296 N 
HETATM   16  H13 MIQ B 502     -19.630  -2.914 -16.525  1.00142.77     0.171 HD
HETATM   17  C21 MIQ B 502     -19.541  -2.607 -14.413  1.00142.22     0.224 C 
HETATM   18  C22 MIQ B 502     -18.426  -2.464 -13.396  1.00139.52     0.106 C 
HETATM   19  O24 MIQ B 502     -20.643  -2.246 -14.183  1.00146.13    -0.273 OA
HETATM   20  C23 MIQ B 502     -17.870  -3.858 -13.167  1.00139.15     0.045 C 
ENDBRANCH  10  12
BRANCH   5  21
HETATM   21  N6  MIQ B 502     -10.281  -3.118 -15.995  1.00140.95    -0.377 N 
HETATM   22  C7  MIQ B 502      -9.547  -3.596 -17.154  1.00142.12     0.149 C 
HETATM   23  C8  MIQ B 502      -8.081  -3.187 -17.107  1.00144.10     0.187 C 
HETATM   24  O9  MIQ B 502      -7.903  -1.835 -16.805  1.00148.65    -0.388 OA
HETATM   25  C10 MIQ B 502      -8.982  -1.059 -16.372  1.00147.44     0.187 C 
HETATM   26  C11 MIQ B 502     -10.098  -1.737 -15.583  1.00144.08     0.149 C 
ENDBRANCH   5  21
TORSDOF 2
ENDMDL
MODEL 6
REMARK VINA RESULT:      -6.7      2.438      8.644
REMARK  2 active torsions:
REMARK  status: ('A' for Active; 'I' for Inactive)
REMARK    1  A    between atoms: C5_5  and  N6_21 
REMARK    2  A    between atoms: C18_14  and  N17_19 
ROOT
HETATM    1  O1  MIQ B 502     -11.902  -3.418 -15.162  1.00142.91    -0.171 OA
HETATM    2  C2  MIQ B 502     -12.956  -2.779 -15.820  1.00141.17     0.195 A 
HETATM    3  C3  MIQ B 502     -12.996  -1.280 -16.257  1.00141.71     0.035 A 
HETATM    4  C4  MIQ B 502     -12.036  -0.158 -16.138  1.00142.86     0.046 A 
HETATM    5  C5  MIQ B 502     -12.365   1.124 -16.647  1.00139.53     0.031 A 
HETATM    6  C12 MIQ B 502     -13.653   1.337 -17.291  1.00139.38     0.030 A 
HETATM    7  C13 MIQ B 502     -14.573   0.261 -17.407  1.00141.18     0.019 A 
HETATM    8  C14 MIQ B 502     -14.222  -1.083 -16.872  1.00138.77     0.033 A 
HETATM    9  C15 MIQ B 502     -14.946  -2.468 -16.817  1.00142.10     0.195 A 
HETATM   10  N17 MIQ B 502     -14.111  -3.293 -16.207  1.00139.42    -0.288 N 
HETATM   11  O16 MIQ B 502     -16.218  -2.766 -17.309  1.00148.93    -0.171 OA
ENDROOT
BRANCH  10  12
HETATM   12  C18 MIQ B 502     -14.460  -4.680 -15.962  1.00139.82     0.187 C 
HETATM   13  C19 MIQ B 502     -14.273  -4.951 -14.464  1.00140.06     0.247 C 
HETATM   14  O25 MIQ B 502     -14.774  -4.226 -13.680  1.00143.95    -0.271 OA
HETATM   15  N20 MIQ B 502     -13.502  -6.079 -13.983  1.00140.02    -0.296 N 
HETATM   16  H13 MIQ B 502     -13.381  -6.242 -13.003  1.00142.77     0.171 HD
HETATM   17  C21 MIQ B 502     -12.891  -6.944 -14.959  1.00142.22     0.224 C 
HETATM   18  C22 MIQ B 502     -12.417  -6.294 -16.245  1.00139.52     0.106 C 
HETATM   19  O24 MIQ B 502     -12.771  -8.104 -14.768  1.00146.13    -0.273 OA
HETATM   20  C23 MIQ B 502     -13.626  -5.603 -16.849  1.00139.15     0.045 C 
ENDBRANCH  10  12
BRANCH   5  21
HETATM   21  N6  MIQ B 502     -11.421   2.218 -16.510  1.00140.95    -0.377 N 
HETATM   22  C7  MIQ B 502     -10.260   2.247 -17.383  1.00142.12     0.149 C 
HETATM   23  C8  MIQ B 502      -9.092   2.995 -16.752  1.00144.10     0.187 C 
HETATM   24  O9  MIQ B 502      -9.464   4.228 -16.213  1.00148.65    -0.388 OA
HETATM   25  C10 MIQ B 502     -10.814   4.568 -16.089  1.00147.44     0.187 C 
HETATM   26  C11 MIQ B 502     -11.829   3.453 -15.864  1.00144.08     0.149 C 
ENDBRANCH   5  21
TORSDOF 2
ENDMDL
MODEL 7
REMARK VINA RESULT:      -6.6      2.507      8.174
REMARK  2 active torsions:
REMARK  status: ('A' for Active; 'I' for Inactive)
REMARK    1  A    between atoms: C5_5  and  N6_21 
REMARK    2  A    between atoms: C18_14  and  N17_19 
ROOT
HETATM    1  O1  MIQ B 502     -11.973  -2.610 -15.010  1.00142.91    -0.171 OA
HETATM    2  C2  MIQ B 502     -11.986  -2.395 -16.390  1.00141.17     0.195 A 
HETATM    3  C3  MIQ B 502     -11.361  -1.175 -17.139  1.00141.71     0.035 A 
HETATM    4  C4  MIQ B 502     -10.622   0.028 -16.688  1.00142.86     0.046 A 
HETATM    5  C5  MIQ B 502     -10.166   0.985 -17.630  1.00139.53     0.031 A 
HETATM    6  C12 MIQ B 502     -10.425   0.782 -19.048  1.00139.38     0.030 A 
HETATM    7  C13 MIQ B 502     -11.132  -0.372 -19.481  1.00141.18     0.019 A 
HETATM    8  C14 MIQ B 502     -11.607  -1.374 -18.488  1.00138.77     0.033 A 
HETATM    9  C15 MIQ B 502     -12.389  -2.725 -18.577  1.00142.10     0.195 A 
HETATM   10  N17 MIQ B 502     -12.512  -3.158 -17.333  1.00139.42    -0.288 N 
HETATM   11  O16 MIQ B 502     -12.861  -3.342 -19.736  1.00148.93    -0.171 OA
ENDROOT
BRANCH  10  12
HETATM   12  C18 MIQ B 502     -13.207  -4.394 -17.027  1.00139.82     0.187 C 
HETATM   13  C19 MIQ B 502     -14.281  -4.080 -15.978  1.00140.06     0.247 C 
HETATM   14  O25 MIQ B 502     -15.031  -3.189 -16.171  1.00143.95    -0.271 OA
HETATM   15  N20 MIQ B 502     -14.406  -4.850 -14.758  1.00140.02    -0.296 N 
HETATM   16  H13 MIQ B 502     -15.108  -4.631 -14.079  1.00142.77     0.171 HD
HETATM   17  C21 MIQ B 502     -13.473  -5.926 -14.541  1.00142.22     0.224 C 
HETATM   18  C22 MIQ B 502     -12.070  -5.730 -15.083  1.00139.52     0.106 C 
HETATM   19  O24 MIQ B 502     -13.789  -6.913 -13.973  1.00146.13    -0.273 OA
HETATM   20  C23 MIQ B 502     -12.215  -5.463 -16.570  1.00139.15     0.045 C 
ENDBRANCH  10  12
BRANCH   5  21
HETATM   21  N6  MIQ B 502      -9.457   2.166 -17.173  1.00140.95    -0.377 N 
HETATM   22  C7  MIQ B 502      -8.155   1.997 -16.552  1.00142.12     0.149 C 
HETATM   23  C8  MIQ B 502      -7.835   3.129 -15.584  1.00144.10     0.187 C 
HETATM   24  O9  MIQ B 502      -8.078   4.392 -16.127  1.00148.65    -0.388 OA
HETATM   25  C10 MIQ B 502      -8.761   4.523 -17.338  1.00147.44     0.187 C 
HETATM   26  C11 MIQ B 502      -9.805   3.472 -17.704  1.00144.08     0.149 C 
ENDBRANCH   5  21
TORSDOF 2
ENDMDL
MODEL 8
REMARK VINA RESULT:      -6.5     16.652     19.464
REMARK  2 active torsions:
REMARK  status: ('A' for Active; 'I' for Inactive)
REMARK    1  A    between atoms: C5_5  and  N6_21 
REMARK    2  A    between atoms: C18_14  and  N17_19 
ROOT
HETATM    1  O1  MIQ B 502      -6.024 -14.992 -14.697  1.00142.91    -0.171 OA
HETATM    2  C2  MIQ B 502      -5.590 -16.258 -15.096  1.00141.17     0.195 A 
HETATM    3  C3  MIQ B 502      -4.106 -16.707 -15.286  1.00141.71     0.035 A 
HETATM    4  C4  MIQ B 502      -2.804 -16.019 -15.120  1.00142.86     0.046 A 
HETATM    5  C5  MIQ B 502      -1.591 -16.709 -15.371  1.00139.53     0.031 A 
HETATM    6  C12 MIQ B 502      -1.627 -18.102 -15.794  1.00139.38     0.030 A 
HETATM    7  C13 MIQ B 502      -2.875 -18.762 -15.953  1.00141.18     0.019 A 
HETATM    8  C14 MIQ B 502      -4.145 -18.033 -15.685  1.00138.77     0.033 A 
HETATM    9  C15 MIQ B 502      -5.662 -18.409 -15.743  1.00142.10     0.195 A 
HETATM   10  N17 MIQ B 502      -6.322 -17.320 -15.387  1.00139.42    -0.288 N 
HETATM   11  O16 MIQ B 502      -6.203 -19.645 -16.101  1.00148.93    -0.171 OA
ENDROOT
BRANCH  10  12
HETATM   12  C18 MIQ B 502      -7.772 -17.293 -15.342  1.00139.82     0.187 C 
HETATM   13  C19 MIQ B 502      -8.243 -16.067 -16.134  1.00140.06     0.247 C 
HETATM   14  O25 MIQ B 502      -7.833 -15.895 -17.227  1.00143.95    -0.271 OA
HETATM   15  N20 MIQ B 502      -9.183 -15.115 -15.580  1.00140.02    -0.296 N 
HETATM   16  H13 MIQ B 502      -9.477 -14.315 -16.105  1.00142.77     0.171 HD
HETATM   17  C21 MIQ B 502      -9.661 -15.341 -14.240  1.00142.22     0.224 C 
HETATM   18  C22 MIQ B 502      -8.689 -15.982 -13.269  1.00139.52     0.106 C 
HETATM   19  O24 MIQ B 502     -10.759 -15.044 -13.918  1.00146.13    -0.273 OA
HETATM   20  C23 MIQ B 502      -8.259 -17.297 -13.894  1.00139.15     0.045 C 
ENDBRANCH  10  12
BRANCH   5  21
HETATM   21  N6  MIQ B 502      -0.324 -16.019 -15.219  1.00140.95    -0.377 N 
HETATM   22  C7  MIQ B 502       0.172 -15.765 -13.878  1.00142.12     0.149 C 
HETATM   23  C8  MIQ B 502       1.086 -14.547 -13.830  1.00144.10     0.187 C 
HETATM   24  O9  MIQ B 502       2.057 -14.556 -14.833  1.00148.65    -0.388 OA
HETATM   25  C10 MIQ B 502       1.990 -15.487 -15.874  1.00147.44     0.187 C 
HETATM   26  C11 MIQ B 502       0.620 -15.982 -16.323  1.00144.08     0.149 C 
ENDBRANCH   5  21
TORSDOF 2
ENDMDL
MODEL 9
REMARK VINA RESULT:      -6.5      2.073      2.880
REMARK  2 active torsions:
REMARK  status: ('A' for Active; 'I' for Inactive)
REMARK    1  A    between atoms: C5_5  and  N6_21 
REMARK    2  A    between atoms: C18_14  and  N17_19 
ROOT
HETATM    1  O1  MIQ B 502     -13.632   0.886 -15.794  1.00142.91    -0.171 OA
HETATM    2  C2  MIQ B 502     -12.407   0.305 -16.127  1.00141.17     0.195 A 
HETATM    3  C3  MIQ B 502     -12.052  -1.213 -16.040  1.00141.71     0.035 A 
HETATM    4  C4  MIQ B 502     -12.812  -2.415 -15.623  1.00142.86     0.046 A 
HETATM    5  C5  MIQ B 502     -12.204  -3.695 -15.655  1.00139.53     0.031 A 
HETATM    6  C12 MIQ B 502     -10.824  -3.828 -16.100  1.00139.38     0.030 A 
HETATM    7  C13 MIQ B 502     -10.094  -2.676 -16.500  1.00141.18     0.019 A 
HETATM    8  C14 MIQ B 502     -10.740  -1.335 -16.467  1.00138.77     0.033 A 
HETATM    9  C15 MIQ B 502     -10.278   0.116 -16.822  1.00142.10     0.195 A 
HETATM   10  N17 MIQ B 502     -11.316   0.899 -16.581  1.00139.42    -0.288 N 
HETATM   11  O16 MIQ B 502      -9.022   0.501 -17.295  1.00148.93    -0.171 OA
ENDROOT
BRANCH  10  12
HETATM   12  C18 MIQ B 502     -11.246   2.334 -16.785  1.00139.82     0.187 C 
HETATM   13  C19 MIQ B 502     -10.798   2.579 -18.231  1.00140.06     0.247 C 
HETATM   14  O25 MIQ B 502     -11.368   2.037 -19.110  1.00143.95    -0.271 OA
HETATM   15  N20 MIQ B 502      -9.697   3.465 -18.550  1.00140.02    -0.296 N 
HETATM   16  H13 MIQ B 502      -9.410   3.611 -19.497  1.00142.77     0.171 HD
HETATM   17  C21 MIQ B 502      -9.011   4.107 -17.458  1.00142.22     0.224 C 
HETATM   18  C22 MIQ B 502      -8.901   3.322 -16.166  1.00139.52     0.106 C 
HETATM   19  O24 MIQ B 502      -8.561   5.195 -17.566  1.00146.13    -0.273 OA
HETATM   20  C23 MIQ B 502     -10.319   2.973 -15.752  1.00139.15     0.045 C 
ENDBRANCH  10  12
BRANCH   5  21
HETATM   21  N6  MIQ B 502     -12.956  -4.862 -15.230  1.00140.95    -0.377 N 
HETATM   22  C7  MIQ B 502     -12.227  -6.007 -14.711  1.00142.12     0.149 C 
HETATM   23  C8  MIQ B 502     -12.992  -7.308 -14.916  1.00144.10     0.187 C 
HETATM   24  O9  MIQ B 502     -14.328  -7.221 -14.519  1.00148.65    -0.388 OA
HETATM   25  C10 MIQ B 502     -14.893  -5.983 -14.202  1.00147.44     0.187 C 
HETATM   26  C11 MIQ B 502     -14.367  -4.738 -14.910  1.00144.08     0.149 C 
ENDBRANCH   5  21
TORSDOF 2
ENDMDL
