MODEL 1
REMARK VINA RESULT:      -7.4      0.000      0.000
REMARK  2 active torsions:
REMARK  status: ('A' for Active; 'I' for Inactive)
REMARK    1  A    between atoms: C5_5  and  N6_21 
REMARK    2  A    between atoms: C18_14  and  N17_19 
ROOT
HETATM    1  O1  MIQ B 502      11.008  -7.110  -7.797  1.00142.91    -0.171 OA
HETATM    2  C2  MIQ B 502      11.044  -8.192  -6.914  1.00141.17     0.195 A 
HETATM    3  C3  MIQ B 502      12.089  -8.418  -5.775  1.00141.71     0.035 A 
HETATM    4  C4  MIQ B 502      13.261  -7.646  -5.299  1.00142.86     0.046 A 
HETATM    5  C5  MIQ B 502      14.038  -8.119  -4.212  1.00139.53     0.031 A 
HETATM    6  C12 MIQ B 502      13.681  -9.371  -3.559  1.00139.38     0.030 A 
HETATM    7  C13 MIQ B 502      12.557 -10.111  -4.015  1.00141.18     0.019 A 
HETATM    8  C14 MIQ B 502      11.744  -9.608  -5.155  1.00138.77     0.033 A 
HETATM    9  C15 MIQ B 502      10.477 -10.123  -5.913  1.00142.10     0.195 A 
HETATM   10  N17 MIQ B 502      10.222  -9.225  -6.851  1.00139.42    -0.288 N 
HETATM   11  O16 MIQ B 502       9.765 -11.295  -5.651  1.00148.93    -0.171 OA
ENDROOT
BRANCH  10  12
HETATM   12  C18 MIQ B 502       9.111  -9.384  -7.770  1.00139.82     0.187 C 
HETATM   13  C19 MIQ B 502       9.675  -9.361  -9.195  1.00140.06     0.247 C 
HETATM   14  O25 MIQ B 502      10.578 -10.069  -9.469  1.00143.95    -0.271 OA
HETATM   15  N20 MIQ B 502       9.127  -8.496 -10.220  1.00140.02    -0.296 N 
HETATM   16  H13 MIQ B 502       9.509  -8.485 -11.145  1.00142.77     0.171 HD
HETATM   17  C21 MIQ B 502       8.033  -7.632  -9.859  1.00142.22     0.224 C 
HETATM   18  C22 MIQ B 502       8.027  -7.097  -8.440  1.00139.52     0.106 C 
HETATM   19  O24 MIQ B 502       7.180  -7.361 -10.630  1.00146.13    -0.273 OA
HETATM   20  C23 MIQ B 502       8.057  -8.305  -7.523  1.00139.15     0.045 C 
ENDBRANCH  10  12
BRANCH   5  21
HETATM   21  N6  MIQ B 502      15.192  -7.360  -3.766  1.00140.95    -0.377 N 
HETATM   22  C7  MIQ B 502      15.183  -6.807  -2.422  1.00142.12     0.149 C 
HETATM   23  C8  MIQ B 502      16.064  -5.570  -2.309  1.00144.10     0.187 C 
HETATM   24  O9  MIQ B 502      17.329  -5.751  -2.872  1.00148.65    -0.388 OA
HETATM   25  C10 MIQ B 502      17.605  -6.882  -3.644  1.00147.44     0.187 C 
HETATM   26  C11 MIQ B 502      16.469  -7.518  -4.438  1.00144.08     0.149 C 
ENDBRANCH   5  21
TORSDOF 2
ENDMDL
MODEL 2
REMARK VINA RESULT:      -6.9      2.374      8.293
REMARK  2 active torsions:
REMARK  status: ('A' for Active; 'I' for Inactive)
REMARK    1  A    between atoms: C5_5  and  N6_21 
REMARK    2  A    between atoms: C18_14  and  N17_19 
ROOT
HETATM    1  O1  MIQ B 502      13.717 -11.173  -6.557  1.00142.91    -0.171 OA
HETATM    2  C2  MIQ B 502      13.086  -9.927  -6.535  1.00141.17     0.195 A 
HETATM    3  C3  MIQ B 502      11.804  -9.527  -7.334  1.00141.71     0.035 A 
HETATM    4  C4  MIQ B 502      10.922 -10.257  -8.275  1.00142.86     0.046 A 
HETATM    5  C5  MIQ B 502       9.801  -9.610  -8.854  1.00139.53     0.031 A 
HETATM    6  C12 MIQ B 502       9.517  -8.221  -8.521  1.00139.38     0.030 A 
HETATM    7  C13 MIQ B 502      10.362  -7.522  -7.618  1.00141.18     0.019 A 
HETATM    8  C14 MIQ B 502      11.536  -8.207  -7.011  1.00138.77     0.033 A 
HETATM    9  C15 MIQ B 502      12.657  -7.785  -6.006  1.00142.10     0.195 A 
HETATM   10  N17 MIQ B 502      13.427  -8.849  -5.850  1.00139.42    -0.288 N 
HETATM   11  O16 MIQ B 502      12.810  -6.536  -5.402  1.00148.93    -0.171 OA
ENDROOT
BRANCH  10  12
HETATM   12  C18 MIQ B 502      14.593  -8.819  -4.987  1.00139.82     0.187 C 
HETATM   13  C19 MIQ B 502      14.101  -8.804  -3.535  1.00140.06     0.247 C 
HETATM   14  O25 MIQ B 502      13.315  -9.611  -3.185  1.00143.95    -0.271 OA
HETATM   15  N20 MIQ B 502      14.579  -7.828  -2.576  1.00140.02    -0.296 N 
HETATM   16  H13 MIQ B 502      14.244  -7.825  -1.633  1.00142.77     0.171 HD
HETATM   17  C21 MIQ B 502      15.530  -6.847  -3.030  1.00142.22     0.224 C 
HETATM   18  C22 MIQ B 502      15.396  -6.381  -4.467  1.00139.52     0.106 C 
HETATM   19  O24 MIQ B 502      16.376  -6.431  -2.318  1.00146.13    -0.273 OA
HETATM   20  C23 MIQ B 502      15.481  -7.625  -5.333  1.00139.15     0.045 C 
ENDBRANCH  10  12
BRANCH   5  21
HETATM   21  N6  MIQ B 502       8.954 -10.331  -9.786  1.00140.95    -0.377 N 
HETATM   22  C7  MIQ B 502       7.557  -9.948  -9.895  1.00142.12     0.149 C 
HETATM   23  C8  MIQ B 502       6.683 -11.107 -10.355  1.00144.10     0.187 C 
HETATM   24  O9  MIQ B 502       7.207 -11.775 -11.464  1.00148.65    -0.388 OA
HETATM   25  C10 MIQ B 502       8.506 -11.508 -11.903  1.00147.44     0.187 C 
HETATM   26  C11 MIQ B 502       9.550 -11.084 -10.875  1.00144.08     0.149 C 
ENDBRANCH   5  21
TORSDOF 2
ENDMDL
MODEL 3
REMARK VINA RESULT:      -6.8      2.078      8.105
REMARK  2 active torsions:
REMARK  status: ('A' for Active; 'I' for Inactive)
REMARK    1  A    between atoms: C5_5  and  N6_21 
REMARK    2  A    between atoms: C18_14  and  N17_19 
ROOT
HETATM    1  O1  MIQ B 502      13.895  -5.422  -4.652  1.00142.91    -0.171 OA
HETATM    2  C2  MIQ B 502      14.073  -6.776  -4.944  1.00141.17     0.195 A 
HETATM    3  C3  MIQ B 502      13.106  -7.674  -5.780  1.00141.71     0.035 A 
HETATM    4  C4  MIQ B 502      11.819  -7.418  -6.471  1.00142.86     0.046 A 
HETATM    5  C5  MIQ B 502      11.161  -8.462  -7.168  1.00139.53     0.031 A 
HETATM    6  C12 MIQ B 502      11.753  -9.792  -7.207  1.00139.38     0.030 A 
HETATM    7  C13 MIQ B 502      12.988 -10.036  -6.546  1.00141.18     0.019 A 
HETATM    8  C14 MIQ B 502      13.676  -8.936  -5.817  1.00138.77     0.033 A 
HETATM    9  C15 MIQ B 502      15.004  -8.821  -5.000  1.00142.10     0.195 A 
HETATM   10  N17 MIQ B 502      15.073  -7.565  -4.591  1.00139.42    -0.288 N 
HETATM   11  O16 MIQ B 502      15.924  -9.841  -4.753  1.00148.93    -0.171 OA
ENDROOT
BRANCH  10  12
HETATM   12  C18 MIQ B 502      16.180  -7.093  -3.780  1.00139.82     0.187 C 
HETATM   13  C19 MIQ B 502      15.596  -6.499  -2.492  1.00140.06     0.247 C 
HETATM   14  O25 MIQ B 502      14.829  -7.135  -1.861  1.00143.95    -0.271 OA
HETATM   15  N20 MIQ B 502      15.966  -5.179  -2.023  1.00140.02    -0.296 N 
HETATM   16  H13 MIQ B 502      15.573  -4.801  -1.184  1.00142.77     0.171 HD
HETATM   17  C21 MIQ B 502      16.897  -4.418  -2.816  1.00142.22     0.224 C 
HETATM   18  C22 MIQ B 502      16.832  -4.614  -4.319  1.00139.52     0.106 C 
HETATM   19  O24 MIQ B 502      17.676  -3.683  -2.318  1.00146.13    -0.273 OA
HETATM   20  C23 MIQ B 502      17.030  -6.098  -4.569  1.00139.15     0.045 C 
ENDBRANCH  10  12
BRANCH   5  21
HETATM   21  N6  MIQ B 502       9.894  -8.202  -7.827  1.00140.95    -0.377 N 
HETATM   22  C7  MIQ B 502       8.938  -9.289  -7.949  1.00142.12     0.149 C 
HETATM   23  C8  MIQ B 502       8.015  -9.103  -9.147  1.00144.10     0.187 C 
HETATM   24  O9  MIQ B 502       7.471  -7.819  -9.219  1.00148.65    -0.388 OA
HETATM   25  C10 MIQ B 502       7.948  -6.801  -8.390  1.00147.44     0.187 C 
HETATM   26  C11 MIQ B 502       9.409  -6.839  -7.955  1.00144.08     0.149 C 
ENDBRANCH   5  21
TORSDOF 2
ENDMDL
MODEL 4
REMARK VINA RESULT:      -6.7      4.513      6.227
REMARK  2 active torsions:
REMARK  status: ('A' for Active; 'I' for Inactive)
REMARK    1  A    between atoms: C5_5  and  N6_21 
REMARK    2  A    between atoms: C18_14  and  N17_19 
ROOT
HETATM    1  O1  MIQ B 502      13.251  -6.712  -5.146  1.00142.91    -0.171 OA
HETATM    2  C2  MIQ B 502      14.492  -7.247  -4.795  1.00141.17     0.195 A 
HETATM    3  C3  MIQ B 502      15.723  -6.448  -4.260  1.00141.71     0.035 A 
HETATM    4  C4  MIQ B 502      15.961  -5.013  -3.974  1.00142.86     0.046 A 
HETATM    5  C5  MIQ B 502      17.217  -4.579  -3.480  1.00139.53     0.031 A 
HETATM    6  C12 MIQ B 502      18.278  -5.549  -3.253  1.00139.38     0.030 A 
HETATM    7  C13 MIQ B 502      18.051  -6.925  -3.526  1.00141.18     0.019 A 
HETATM    8  C14 MIQ B 502      16.729  -7.375  -4.042  1.00138.77     0.033 A 
HETATM    9  C15 MIQ B 502      16.119  -8.758  -4.443  1.00142.10     0.195 A 
HETATM   10  N17 MIQ B 502      14.879  -8.511  -4.833  1.00139.42    -0.288 N 
HETATM   11  O16 MIQ B 502      16.758  -9.998  -4.399  1.00148.93    -0.171 OA
ENDROOT
BRANCH  10  12
HETATM   12  C18 MIQ B 502      14.005  -9.572  -5.297  1.00139.82     0.187 C 
HETATM   13  C19 MIQ B 502      14.050 -10.701  -4.260  1.00140.06     0.247 C 
HETATM   14  O25 MIQ B 502      13.868 -10.447  -3.123  1.00143.95    -0.271 OA
HETATM   15  N20 MIQ B 502      14.304 -12.076  -4.640  1.00140.02    -0.296 N 
HETATM   16  H13 MIQ B 502      14.337 -12.803  -3.952  1.00142.77     0.171 HD
HETATM   17  C21 MIQ B 502      14.533 -12.360  -6.033  1.00142.22     0.224 C 
HETATM   18  C22 MIQ B 502      15.243 -11.289  -6.839  1.00139.52     0.106 C 
HETATM   19  O24 MIQ B 502      14.180 -13.376  -6.522  1.00146.13    -0.273 OA
HETATM   20  C23 MIQ B 502      14.415 -10.024  -6.697  1.00139.15     0.045 C 
ENDBRANCH  10  12
BRANCH   5  21
HETATM   21  N6  MIQ B 502      17.440  -3.169  -3.219  1.00140.95    -0.377 N 
HETATM   22  C7  MIQ B 502      16.300  -2.269  -3.242  1.00142.12     0.149 C 
HETATM   23  C8  MIQ B 502      16.707  -0.845  -3.597  1.00144.10     0.187 C 
HETATM   24  O9  MIQ B 502      17.807  -0.395  -2.864  1.00148.65    -0.388 OA
HETATM   25  C10 MIQ B 502      18.549  -1.285  -2.083  1.00147.44     0.187 C 
HETATM   26  C11 MIQ B 502      18.644  -2.741  -2.527  1.00144.08     0.149 C 
ENDBRANCH   5  21
TORSDOF 2
ENDMDL
MODEL 5
REMARK VINA RESULT:      -6.7      2.826      4.560
REMARK  2 active torsions:
REMARK  status: ('A' for Active; 'I' for Inactive)
REMARK    1  A    between atoms: C5_5  and  N6_21 
REMARK    2  A    between atoms: C18_14  and  N17_19 
ROOT
HETATM    1  O1  MIQ B 502      10.286 -12.008  -9.281  1.00142.91    -0.171 OA
HETATM    2  C2  MIQ B 502       9.969 -10.648  -9.278  1.00141.17     0.195 A 
HETATM    3  C3  MIQ B 502      10.600  -9.556  -8.357  1.00141.71     0.035 A 
HETATM    4  C4  MIQ B 502      11.635  -9.591  -7.297  1.00142.86     0.046 A 
HETATM    5  C5  MIQ B 502      12.009  -8.402  -6.621  1.00139.53     0.031 A 
HETATM    6  C12 MIQ B 502      11.372  -7.141  -6.971  1.00139.38     0.030 A 
HETATM    7  C13 MIQ B 502      10.381  -7.107  -7.989  1.00141.18     0.019 A 
HETATM    8  C14 MIQ B 502       9.994  -8.357  -8.697  1.00138.77     0.033 A 
HETATM    9  C15 MIQ B 502       8.981  -8.708  -9.835  1.00142.10     0.195 A 
HETATM   10  N17 MIQ B 502       9.095 -10.010 -10.037  1.00139.42    -0.288 N 
HETATM   11  O16 MIQ B 502       8.130  -7.822 -10.499  1.00148.93    -0.171 OA
ENDROOT
BRANCH  10  12
HETATM   12  C18 MIQ B 502       8.284 -10.697 -11.025  1.00139.82     0.187 C 
HETATM   13  C19 MIQ B 502       7.564 -11.852 -10.318  1.00140.06     0.247 C 
HETATM   14  O25 MIQ B 502       6.961 -11.635  -9.328  1.00143.95    -0.271 OA
HETATM   15  N20 MIQ B 502       7.599 -13.204 -10.837  1.00140.02    -0.296 N 
HETATM   16  H13 MIQ B 502       7.130 -13.951 -10.362  1.00142.77     0.171 HD
HETATM   17  C21 MIQ B 502       8.350 -13.446 -12.042  1.00142.22     0.224 C 
HETATM   18  C22 MIQ B 502       9.595 -12.606 -12.248  1.00139.52     0.106 C 
HETATM   19  O24 MIQ B 502       8.007 -14.256 -12.831  1.00146.13    -0.273 OA
HETATM   20  C23 MIQ B 502       9.149 -11.155 -12.198  1.00139.15     0.045 C 
ENDBRANCH  10  12
BRANCH   5  21
HETATM   21  N6  MIQ B 502      13.014  -8.453  -5.574  1.00140.95    -0.377 N 
HETATM   22  C7  MIQ B 502      13.495  -7.203  -5.012  1.00142.12     0.149 C 
HETATM   23  C8  MIQ B 502      14.907  -7.336  -4.456  1.00144.10     0.187 C 
HETATM   24  O9  MIQ B 502      15.067  -8.458  -3.641  1.00148.65    -0.388 OA
HETATM   25  C10 MIQ B 502      14.069  -9.435  -3.577  1.00147.44     0.187 C 
HETATM   26  C11 MIQ B 502      13.202  -9.673  -4.809  1.00144.08     0.149 C 
ENDBRANCH   5  21
TORSDOF 2
ENDMDL
MODEL 6
REMARK VINA RESULT:      -6.7      1.894      2.300
REMARK  2 active torsions:
REMARK  status: ('A' for Active; 'I' for Inactive)
REMARK    1  A    between atoms: C5_5  and  N6_21 
REMARK    2  A    between atoms: C18_14  and  N17_19 
ROOT
HETATM    1  O1  MIQ B 502      11.143  -6.323  -6.401  1.00142.91    -0.171 OA
HETATM    2  C2  MIQ B 502      11.783  -7.564  -6.399  1.00141.17     0.195 A 
HETATM    3  C3  MIQ B 502      13.155  -7.893  -5.727  1.00141.71     0.035 A 
HETATM    4  C4  MIQ B 502      14.127  -7.089  -4.949  1.00142.86     0.046 A 
HETATM    5  C5  MIQ B 502      15.315  -7.683  -4.455  1.00139.53     0.031 A 
HETATM    6  C12 MIQ B 502      15.580  -9.091  -4.713  1.00139.38     0.030 A 
HETATM    7  C13 MIQ B 502      14.648  -9.862  -5.457  1.00141.18     0.019 A 
HETATM    8  C14 MIQ B 502      13.401  -9.234  -5.972  1.00138.77     0.033 A 
HETATM    9  C15 MIQ B 502      12.175  -9.741  -6.800  1.00142.10     0.195 A 
HETATM   10  N17 MIQ B 502      11.376  -8.697  -6.946  1.00139.42    -0.288 N 
HETATM   11  O16 MIQ B 502      11.972 -11.033  -7.287  1.00148.93    -0.171 OA
ENDROOT
BRANCH  10  12
HETATM   12  C18 MIQ B 502      10.131  -8.793  -7.686  1.00139.82     0.187 C 
HETATM   13  C19 MIQ B 502       9.320  -9.949  -7.087  1.00140.06     0.247 C 
HETATM   14  O25 MIQ B 502       9.143  -9.985  -5.922  1.00143.95    -0.271 OA
HETATM   15  N20 MIQ B 502       8.758 -10.996  -7.915  1.00140.02    -0.296 N 
HETATM   16  H13 MIQ B 502       8.236 -11.749  -7.512  1.00142.77     0.171 HD
HETATM   17  C21 MIQ B 502       8.996 -10.935  -9.334  1.00142.22     0.224 C 
HETATM   18  C22 MIQ B 502      10.326 -10.356  -9.778  1.00139.52     0.106 C 
HETATM   19  O24 MIQ B 502       8.191 -11.313 -10.113  1.00146.13    -0.273 OA
HETATM   20  C23 MIQ B 502      10.412  -8.965  -9.178  1.00139.15     0.045 C 
ENDBRANCH  10  12
BRANCH   5  21
HETATM   21  N6  MIQ B 502      16.266  -6.880  -3.707  1.00140.95    -0.377 N 
HETATM   22  C7  MIQ B 502      15.812  -6.212  -2.499  1.00142.12     0.149 C 
HETATM   23  C8  MIQ B 502      16.632  -4.964  -2.198  1.00144.10     0.187 C 
HETATM   24  O9  MIQ B 502      18.008  -5.186  -2.277  1.00148.65    -0.388 OA
HETATM   25  C10 MIQ B 502      18.504  -6.378  -2.809  1.00147.44     0.187 C 
HETATM   26  C11 MIQ B 502      17.692  -7.089  -3.887  1.00144.08     0.149 C 
ENDBRANCH   5  21
TORSDOF 2
ENDMDL
MODEL 7
REMARK VINA RESULT:      -6.7      2.677      7.742
REMARK  2 active torsions:
REMARK  status: ('A' for Active; 'I' for Inactive)
REMARK    1  A    between atoms: C5_5  and  N6_21 
REMARK    2  A    between atoms: C18_14  and  N17_19 
ROOT
HETATM    1  O1  MIQ B 502      13.507  -9.121  -6.384  1.00142.91    -0.171 OA
HETATM    2  C2  MIQ B 502      12.386  -9.829  -5.947  1.00141.17     0.195 A 
HETATM    3  C3  MIQ B 502      10.912  -9.600  -6.412  1.00141.71     0.035 A 
HETATM    4  C4  MIQ B 502      10.279  -8.661  -7.368  1.00142.86     0.046 A 
HETATM    5  C5  MIQ B 502       8.879  -8.695  -7.586  1.00139.53     0.031 A 
HETATM    6  C12 MIQ B 502       8.059  -9.659  -6.865  1.00139.38     0.030 A 
HETATM    7  C13 MIQ B 502       8.665 -10.559  -5.948  1.00141.18     0.019 A 
HETATM    8  C14 MIQ B 502      10.137 -10.521  -5.726  1.00138.77     0.033 A 
HETATM    9  C15 MIQ B 502      11.135 -11.326  -4.832  1.00142.10     0.195 A 
HETATM   10  N17 MIQ B 502      12.333 -10.821  -5.075  1.00139.42    -0.288 N 
HETATM   11  O16 MIQ B 502      10.819 -12.364  -3.954  1.00148.93    -0.171 OA
ENDROOT
BRANCH  10  12
HETATM   12  C18 MIQ B 502      13.517 -11.320  -4.401  1.00139.82     0.187 C 
HETATM   13  C19 MIQ B 502      14.271 -10.114  -3.826  1.00140.06     0.247 C 
HETATM   14  O25 MIQ B 502      13.686  -9.330  -3.167  1.00143.95    -0.271 OA
HETATM   15  N20 MIQ B 502      15.685  -9.914  -4.065  1.00140.02    -0.296 N 
HETATM   16  H13 MIQ B 502      16.164  -9.119  -3.690  1.00142.77     0.171 HD
HETATM   17  C21 MIQ B 502      16.375 -10.879  -4.882  1.00142.22     0.224 C 
HETATM   18  C22 MIQ B 502      15.578 -11.515  -6.004  1.00139.52     0.106 C 
HETATM   19  O24 MIQ B 502      17.504 -11.163  -4.682  1.00146.13    -0.273 OA
HETATM   20  C23 MIQ B 502      14.362 -12.156  -5.360  1.00139.15     0.045 C 
ENDBRANCH  10  12
BRANCH   5  21
HETATM   21  N6  MIQ B 502       8.270  -7.760  -8.514  1.00140.95    -0.377 N 
HETATM   22  C7  MIQ B 502       7.605  -8.286  -9.694  1.00142.12     0.149 C 
HETATM   23  C8  MIQ B 502       7.599  -7.282 -10.839  1.00144.10     0.187 C 
HETATM   24  O9  MIQ B 502       7.189  -6.007 -10.441  1.00148.65    -0.388 OA
HETATM   25  C10 MIQ B 502       7.046  -5.701  -9.086  1.00147.44     0.187 C 
HETATM   26  C11 MIQ B 502       7.940  -6.415  -8.078  1.00144.08     0.149 C 
ENDBRANCH   5  21
TORSDOF 2
ENDMDL
MODEL 8
REMARK VINA RESULT:      -6.7      3.029      3.881
REMARK  2 active torsions:
REMARK  status: ('A' for Active; 'I' for Inactive)
REMARK    1  A    between atoms: C5_5  and  N6_21 
REMARK    2  A    between atoms: C18_14  and  N17_19 
ROOT
HETATM    1  O1  MIQ B 502      10.895 -11.218  -7.893  1.00142.91    -0.171 OA
HETATM    2  C2  MIQ B 502      11.403 -10.022  -7.380  1.00141.17     0.195 A 
HETATM    3  C3  MIQ B 502      12.792  -9.830  -6.692  1.00141.71     0.035 A 
HETATM    4  C4  MIQ B 502      13.914 -10.749  -6.389  1.00142.86     0.046 A 
HETATM    5  C5  MIQ B 502      15.079 -10.268  -5.739  1.00139.53     0.031 A 
HETATM    6  C12 MIQ B 502      15.171  -8.863  -5.369  1.00139.38     0.030 A 
HETATM    7  C13 MIQ B 502      14.096  -7.981  -5.661  1.00141.18     0.019 A 
HETATM    8  C14 MIQ B 502      12.877  -8.492  -6.345  1.00138.77     0.033 A 
HETATM    9  C15 MIQ B 502      11.533  -7.849  -6.821  1.00142.10     0.195 A 
HETATM   10  N17 MIQ B 502      10.835  -8.828  -7.372  1.00139.42    -0.288 N 
HETATM   11  O16 MIQ B 502      11.151  -6.513  -6.686  1.00148.93    -0.171 OA
ENDROOT
BRANCH  10  12
HETATM   12  C18 MIQ B 502       9.510  -8.600  -7.917  1.00139.82     0.187 C 
HETATM   13  C19 MIQ B 502       8.565  -9.640  -7.302  1.00140.06     0.247 C 
HETATM   14  O25 MIQ B 502       8.542  -9.774  -6.130  1.00143.95    -0.271 OA
HETATM   15  N20 MIQ B 502       7.694 -10.459  -8.119  1.00140.02    -0.296 N 
HETATM   16  H13 MIQ B 502       7.087 -11.139  -7.705  1.00142.77     0.171 HD
HETATM   17  C21 MIQ B 502       7.748 -10.284  -9.548  1.00142.22     0.224 C 
HETATM   18  C22 MIQ B 502       9.097  -9.923 -10.139  1.00139.52     0.106 C 
HETATM   19  O24 MIQ B 502       6.786 -10.410 -10.222  1.00146.13    -0.273 OA
HETATM   20  C23 MIQ B 502       9.547  -8.651  -9.444  1.00139.15     0.045 C 
ENDBRANCH  10  12
BRANCH   5  21
HETATM   21  N6  MIQ B 502      16.165 -11.182  -5.435  1.00140.95    -0.377 N 
HETATM   22  C7  MIQ B 502      16.558 -11.355  -4.047  1.00142.12     0.149 C 
HETATM   23  C8  MIQ B 502      18.017 -11.775  -3.918  1.00144.10     0.187 C 
HETATM   24  O9  MIQ B 502      18.357 -12.827  -4.771  1.00148.65    -0.388 OA
HETATM   25  C10 MIQ B 502      17.474 -13.241  -5.771  1.00147.44     0.187 C 
HETATM   26  C11 MIQ B 502      16.539 -12.208  -6.392  1.00144.08     0.149 C 
ENDBRANCH   5  21
TORSDOF 2
ENDMDL
MODEL 9
REMARK VINA RESULT:      -6.6      3.350      7.849
REMARK  2 active torsions:
REMARK  status: ('A' for Active; 'I' for Inactive)
REMARK    1  A    between atoms: C5_5  and  N6_21 
REMARK    2  A    between atoms: C18_14  and  N17_19 
ROOT
HETATM    1  O1  MIQ B 502      13.223 -10.207  -3.803  1.00142.91    -0.171 OA
HETATM    2  C2  MIQ B 502      12.283  -9.856  -4.774  1.00141.17     0.195 A 
HETATM    3  C3  MIQ B 502      10.862 -10.481  -4.950  1.00141.71     0.035 A 
HETATM    4  C4  MIQ B 502      10.116 -11.537  -4.225  1.00142.86     0.046 A 
HETATM    5  C5  MIQ B 502       8.806 -11.895  -4.630  1.00139.53     0.031 A 
HETATM    6  C12 MIQ B 502       8.190 -11.222  -5.764  1.00139.38     0.030 A 
HETATM    7  C13 MIQ B 502       8.905 -10.209  -6.459  1.00141.18     0.019 A 
HETATM    8  C14 MIQ B 502      10.280  -9.835  -6.028  1.00138.77     0.033 A 
HETATM    9  C15 MIQ B 502      11.344  -8.803  -6.524  1.00142.10     0.195 A 
HETATM   10  N17 MIQ B 502      12.388  -8.942  -5.723  1.00139.42    -0.288 N 
HETATM   11  O16 MIQ B 502      11.215  -7.918  -7.596  1.00148.93    -0.171 OA
ENDROOT
BRANCH  10  12
HETATM   12  C18 MIQ B 502      13.588  -8.145  -5.898  1.00139.82     0.187 C 
HETATM   13  C19 MIQ B 502      14.775  -9.108  -6.027  1.00140.06     0.247 C 
HETATM   14  O25 MIQ B 502      14.716  -9.992  -6.805  1.00143.95    -0.271 OA
HETATM   15  N20 MIQ B 502      15.970  -8.959  -5.223  1.00140.02    -0.296 N 
HETATM   16  H13 MIQ B 502      16.735  -9.598  -5.312  1.00142.77     0.171 HD
HETATM   17  C21 MIQ B 502      16.013  -7.878  -4.272  1.00142.22     0.224 C 
HETATM   18  C22 MIQ B 502      14.700  -7.493  -3.618  1.00139.52     0.106 C 
HETATM   19  O24 MIQ B 502      17.022  -7.317  -4.020  1.00146.13    -0.273 OA
HETATM   20  C23 MIQ B 502      13.741  -7.154  -4.745  1.00139.15     0.045 C 
ENDBRANCH  10  12
BRANCH   5  21
HETATM   21  N6  MIQ B 502       8.093 -12.941  -3.919  1.00140.95    -0.377 N 
HETATM   22  C7  MIQ B 502       8.499 -14.321  -4.123  1.00142.12     0.149 C 
HETATM   23  C8  MIQ B 502       7.352 -15.293  -3.882  1.00144.10     0.187 C 
HETATM   24  O9  MIQ B 502       6.668 -15.042  -2.691  1.00148.65    -0.388 OA
HETATM   25  C10 MIQ B 502       6.910 -13.871  -1.969  1.00147.44     0.187 C 
HETATM   26  C11 MIQ B 502       7.323 -12.616  -2.731  1.00144.08     0.149 C 
ENDBRANCH   5  21
TORSDOF 2
ENDMDL
