MODEL 1
REMARK VINA RESULT:      -6.6      0.000      0.000
REMARK  2 active torsions:
REMARK  status: ('A' for Active; 'I' for Inactive)
REMARK    1  A    between atoms: C5_5  and  N6_21 
REMARK    2  A    between atoms: C18_14  and  N17_19 
ROOT
HETATM    1  O1  MIQ B 502      20.028   3.529  14.764  1.00142.91    -0.171 OA
HETATM    2  C2  MIQ B 502      19.257   3.633  13.604  1.00141.17     0.195 A 
HETATM    3  C3  MIQ B 502      18.333   4.832  13.215  1.00141.71     0.035 A 
HETATM    4  C4  MIQ B 502      18.005   6.120  13.871  1.00142.86     0.046 A 
HETATM    5  C5  MIQ B 502      17.108   7.029  13.256  1.00139.53     0.031 A 
HETATM    6  C12 MIQ B 502      16.509   6.696  11.972  1.00139.38     0.030 A 
HETATM    7  C13 MIQ B 502      16.825   5.462  11.342  1.00141.18     0.019 A 
HETATM    8  C14 MIQ B 502      17.768   4.512  11.992  1.00138.77     0.033 A 
HETATM    9  C15 MIQ B 502      18.344   3.107  11.619  1.00142.10     0.195 A 
HETATM   10  N17 MIQ B 502      19.149   2.767  12.612  1.00139.42    -0.288 N 
HETATM   11  O16 MIQ B 502      18.060   2.365  10.471  1.00148.93    -0.171 OA
ENDROOT
BRANCH  10  12
HETATM   12  C18 MIQ B 502      19.856   1.499  12.613  1.00139.82     0.187 C 
HETATM   13  C19 MIQ B 502      19.527   0.782  13.928  1.00140.06     0.247 C 
HETATM   14  O25 MIQ B 502      18.399   0.658  14.250  1.00143.95    -0.271 OA
HETATM   15  N20 MIQ B 502      20.564   0.247  14.787  1.00140.02    -0.296 N 
HETATM   16  H13 MIQ B 502      20.336  -0.213  15.646  1.00142.77     0.171 HD
HETATM   17  C21 MIQ B 502      21.934   0.421  14.378  1.00142.22     0.224 C 
HETATM   18  C22 MIQ B 502      22.264   1.694  13.624  1.00139.52     0.106 C 
HETATM   19  O24 MIQ B 502      22.757  -0.394  14.615  1.00146.13    -0.273 OA
HETATM   20  C23 MIQ B 502      21.353   1.725  12.410  1.00139.15     0.045 C 
ENDBRANCH  10  12
BRANCH   5  21
HETATM   21  N6  MIQ B 502      16.784   8.280  13.917  1.00140.95    -0.377 N 
HETATM   22  C7  MIQ B 502      17.292   8.509  15.258  1.00142.12     0.149 C 
HETATM   23  C8  MIQ B 502      16.409   9.468  16.045  1.00144.10     0.187 C 
HETATM   24  O9  MIQ B 502      16.081  10.620  15.327  1.00148.65    -0.388 OA
HETATM   25  C10 MIQ B 502      16.368  10.708  13.962  1.00147.44     0.187 C 
HETATM   26  C11 MIQ B 502      16.364   9.428  13.132  1.00144.08     0.149 C 
ENDBRANCH   5  21
TORSDOF 2
ENDMDL
MODEL 2
REMARK VINA RESULT:      -6.4     15.297     18.620
REMARK  2 active torsions:
REMARK  status: ('A' for Active; 'I' for Inactive)
REMARK    1  A    between atoms: C5_5  and  N6_21 
REMARK    2  A    between atoms: C18_14  and  N17_19 
ROOT
HETATM    1  O1  MIQ B 502      14.147 -13.717   8.554  1.00142.91    -0.171 OA
HETATM    2  C2  MIQ B 502      13.813 -13.452   9.884  1.00141.17     0.195 A 
HETATM    3  C3  MIQ B 502      14.433 -12.338  10.786  1.00141.71     0.035 A 
HETATM    4  C4  MIQ B 502      15.467 -11.300  10.559  1.00142.86     0.046 A 
HETATM    5  C5  MIQ B 502      15.827 -10.407  11.599  1.00139.53     0.031 A 
HETATM    6  C12 MIQ B 502      15.176 -10.510  12.898  1.00139.38     0.030 A 
HETATM    7  C13 MIQ B 502      14.184 -11.504  13.116  1.00141.18     0.019 A 
HETATM    8  C14 MIQ B 502      13.809 -12.438  12.019  1.00138.77     0.033 A 
HETATM    9  C15 MIQ B 502      12.795 -13.620  11.881  1.00142.10     0.195 A 
HETATM   10  N17 MIQ B 502      12.922 -14.067  10.642  1.00139.42    -0.288 N 
HETATM   11  O16 MIQ B 502      11.935 -14.103  12.869  1.00148.93    -0.171 OA
ENDROOT
BRANCH  10  12
HETATM   12  C18 MIQ B 502      12.137 -15.187  10.157  1.00139.82     0.187 C 
HETATM   13  C19 MIQ B 502      13.107 -16.218   9.567  1.00140.06     0.247 C 
HETATM   14  O25 MIQ B 502      14.030 -16.573  10.209  1.00143.95    -0.271 OA
HETATM   15  N20 MIQ B 502      12.918 -16.773   8.243  1.00140.02    -0.296 N 
HETATM   16  H13 MIQ B 502      13.562 -17.440   7.866  1.00142.77     0.171 HD
HETATM   17  C21 MIQ B 502      11.789 -16.316   7.474  1.00142.22     0.224 C 
HETATM   18  C22 MIQ B 502      11.368 -14.872   7.674  1.00139.52     0.106 C 
HETATM   19  O24 MIQ B 502      11.217 -17.034   6.729  1.00146.13    -0.273 OA
HETATM   20  C23 MIQ B 502      11.087 -14.706   9.156  1.00139.15     0.045 C 
ENDBRANCH  10  12
BRANCH   5  21
HETATM   21  N6  MIQ B 502      16.851  -9.405  11.367  1.00140.95    -0.377 N 
HETATM   22  C7  MIQ B 502      16.715  -8.525  10.219  1.00142.12     0.149 C 
HETATM   23  C8  MIQ B 502      18.064  -8.016   9.729  1.00144.10     0.187 C 
HETATM   24  O9  MIQ B 502      18.868  -7.529  10.762  1.00148.65    -0.388 OA
HETATM   25  C10 MIQ B 502      18.509  -7.736  12.096  1.00147.44     0.187 C 
HETATM   26  C11 MIQ B 502      17.722  -8.993  12.454  1.00144.08     0.149 C 
ENDBRANCH   5  21
TORSDOF 2
ENDMDL
MODEL 3
REMARK VINA RESULT:      -6.4     18.236     20.963
REMARK  2 active torsions:
REMARK  status: ('A' for Active; 'I' for Inactive)
REMARK    1  A    between atoms: C5_5  and  N6_21 
REMARK    2  A    between atoms: C18_14  and  N17_19 
ROOT
HETATM    1  O1  MIQ B 502      17.510   6.451  -7.306  1.00142.91    -0.171 OA
HETATM    2  C2  MIQ B 502      17.532   5.083  -7.027  1.00141.17     0.195 A 
HETATM    3  C3  MIQ B 502      18.536   4.351  -6.080  1.00141.71     0.035 A 
HETATM    4  C4  MIQ B 502      19.674   4.812  -5.250  1.00142.86     0.046 A 
HETATM    5  C5  MIQ B 502      20.417   3.886  -4.475  1.00139.53     0.031 A 
HETATM    6  C12 MIQ B 502      20.058   2.475  -4.495  1.00139.38     0.030 A 
HETATM    7  C13 MIQ B 502      18.967   2.033  -5.290  1.00141.18     0.019 A 
HETATM    8  C14 MIQ B 502      18.189   3.010  -6.100  1.00138.77     0.033 A 
HETATM    9  C15 MIQ B 502      16.962   2.909  -7.064  1.00142.10     0.195 A 
HETATM   10  N17 MIQ B 502      16.727   4.140  -7.487  1.00139.42    -0.288 N 
HETATM   11  O16 MIQ B 502      16.262   1.751  -7.408  1.00148.93    -0.171 OA
ENDROOT
BRANCH  10  12
HETATM   12  C18 MIQ B 502      15.655   4.429  -8.421  1.00139.82     0.187 C 
HETATM   13  C19 MIQ B 502      16.259   5.196  -9.604  1.00140.06     0.247 C 
HETATM   14  O25 MIQ B 502      17.211   4.761 -10.147  1.00143.95    -0.271 OA
HETATM   15  N20 MIQ B 502      15.689   6.441 -10.078  1.00140.02    -0.296 N 
HETATM   16  H13 MIQ B 502      16.097   6.935 -10.846  1.00142.77     0.171 HD
HETATM   17  C21 MIQ B 502      14.533   6.957  -9.392  1.00142.22     0.224 C 
HETATM   18  C22 MIQ B 502      14.452   6.696  -7.900  1.00139.52     0.106 C 
HETATM   19  O24 MIQ B 502      13.688   7.551  -9.966  1.00146.13    -0.273 OA
HETATM   20  C23 MIQ B 502      14.530   5.190  -7.722  1.00139.15     0.045 C 
ENDBRANCH  10  12
BRANCH   5  21
HETATM   21  N6  MIQ B 502      21.538   4.349  -3.678  1.00140.95    -0.377 N 
HETATM   22  C7  MIQ B 502      21.314   4.656  -2.276  1.00142.12     0.149 C 
HETATM   23  C8  MIQ B 502      22.307   5.686  -1.753  1.00144.10     0.187 C 
HETATM   24  O9  MIQ B 502      23.628   5.391  -2.096  1.00148.65    -0.388 OA
HETATM   25  C10 MIQ B 502      23.910   4.378  -3.016  1.00147.44     0.187 C 
HETATM   26  C11 MIQ B 502      22.898   4.091  -4.120  1.00144.08     0.149 C 
ENDBRANCH   5  21
TORSDOF 2
ENDMDL
MODEL 4
REMARK VINA RESULT:      -6.2     22.293     24.518
REMARK  2 active torsions:
REMARK  status: ('A' for Active; 'I' for Inactive)
REMARK    1  A    between atoms: C5_5  and  N6_21 
REMARK    2  A    between atoms: C18_14  and  N17_19 
ROOT
HETATM    1  O1  MIQ B 502      13.295 -15.638   6.215  1.00142.91    -0.171 OA
HETATM    2  C2  MIQ B 502      13.429 -16.907   5.647  1.00141.17     0.195 A 
HETATM    3  C3  MIQ B 502      13.830 -17.218   4.170  1.00141.71     0.035 A 
HETATM    4  C4  MIQ B 502      14.167 -16.366   3.004  1.00142.86     0.046 A 
HETATM    5  C5  MIQ B 502      14.499 -16.956   1.759  1.00139.53     0.031 A 
HETATM    6  C12 MIQ B 502      14.510 -18.405   1.625  1.00139.38     0.030 A 
HETATM    7  C13 MIQ B 502      14.188 -19.222   2.742  1.00141.18     0.019 A 
HETATM    8  C14 MIQ B 502      13.842 -18.598   4.048  1.00138.77     0.033 A 
HETATM    9  C15 MIQ B 502      13.448 -19.146   5.459  1.00142.10     0.195 A 
HETATM   10  N17 MIQ B 502      13.257 -18.084   6.223  1.00139.42    -0.288 N 
HETATM   11  O16 MIQ B 502      13.322 -20.486   5.829  1.00148.93    -0.171 OA
ENDROOT
BRANCH  10  12
HETATM   12  C18 MIQ B 502      12.859 -18.213   7.613  1.00139.82     0.187 C 
HETATM   13  C19 MIQ B 502      11.579 -17.392   7.811  1.00140.06     0.247 C 
HETATM   14  O25 MIQ B 502      10.671 -17.555   7.076  1.00143.95    -0.271 OA
HETATM   15  N20 MIQ B 502      11.450 -16.424   8.881  1.00140.02    -0.296 N 
HETATM   16  H13 MIQ B 502      10.612 -15.889   8.995  1.00142.77     0.171 HD
HETATM   17  C21 MIQ B 502      12.576 -16.235   9.758  1.00142.22     0.224 C 
HETATM   18  C22 MIQ B 502      13.954 -16.391   9.143  1.00139.52     0.106 C 
HETATM   19  O24 MIQ B 502      12.431 -15.976  10.902  1.00146.13    -0.273 OA
HETATM   20  C23 MIQ B 502      13.999 -17.781   8.534  1.00139.15     0.045 C 
ENDBRANCH  10  12
BRANCH   5  21
HETATM   21  N6  MIQ B 502      14.813 -16.109   0.622  1.00140.95    -0.377 N 
HETATM   22  C7  MIQ B 502      14.579 -14.680   0.734  1.00142.12     0.149 C 
HETATM   23  C8  MIQ B 502      14.323 -14.037  -0.623  1.00144.10     0.187 C 
HETATM   24  O9  MIQ B 502      15.259 -14.414  -1.588  1.00148.65    -0.388 OA
HETATM   25  C10 MIQ B 502      16.160 -15.451  -1.333  1.00147.44     0.187 C 
HETATM   26  C11 MIQ B 502      15.728 -16.581  -0.403  1.00144.08     0.149 C 
ENDBRANCH   5  21
TORSDOF 2
ENDMDL
MODEL 5
REMARK VINA RESULT:      -6.2     17.637     19.715
REMARK  2 active torsions:
REMARK  status: ('A' for Active; 'I' for Inactive)
REMARK    1  A    between atoms: C5_5  and  N6_21 
REMARK    2  A    between atoms: C18_14  and  N17_19 
ROOT
HETATM    1  O1  MIQ B 502      20.177   6.124  -4.783  1.00142.91    -0.171 OA
HETATM    2  C2  MIQ B 502      19.680   4.840  -5.014  1.00141.17     0.195 A 
HETATM    3  C3  MIQ B 502      18.469   4.470  -5.929  1.00141.71     0.035 A 
HETATM    4  C4  MIQ B 502      17.546   5.269  -6.770  1.00142.86     0.046 A 
HETATM    5  C5  MIQ B 502      16.517   4.632  -7.508  1.00139.53     0.031 A 
HETATM    6  C12 MIQ B 502      16.367   3.185  -7.439  1.00139.38     0.030 A 
HETATM    7  C13 MIQ B 502      17.252   2.419  -6.634  1.00141.18     0.019 A 
HETATM    8  C14 MIQ B 502      18.333   3.093  -5.863  1.00138.77     0.033 A 
HETATM    9  C15 MIQ B 502      19.465   2.605  -4.902  1.00142.10     0.195 A 
HETATM   10  N17 MIQ B 502      20.117   3.692  -4.524  1.00139.42    -0.288 N 
HETATM   11  O16 MIQ B 502      19.728   1.288  -4.520  1.00148.93    -0.171 OA
ENDROOT
BRANCH  10  12
HETATM   12  C18 MIQ B 502      21.238   3.622  -3.606  1.00139.82     0.187 C 
HETATM   13  C19 MIQ B 502      20.988   4.638  -2.484  1.00140.06     0.247 C 
HETATM   14  O25 MIQ B 502      19.953   4.627  -1.918  1.00143.95    -0.271 OA
HETATM   15  N20 MIQ B 502      21.991   5.609  -2.096  1.00140.02    -0.296 N 
HETATM   16  H13 MIQ B 502      21.812   6.271  -1.366  1.00142.77     0.171 HD
HETATM   17  C21 MIQ B 502      23.242   5.609  -2.809  1.00142.22     0.224 C 
HETATM   18  C22 MIQ B 502      23.189   5.235  -4.278  1.00139.52     0.106 C 
HETATM   19  O24 MIQ B 502      24.259   5.882  -2.272  1.00146.13    -0.273 OA
HETATM   20  C23 MIQ B 502      22.551   3.860  -4.350  1.00139.15     0.045 C 
ENDBRANCH  10  12
BRANCH   5  21
HETATM   21  N6  MIQ B 502      15.611   5.428  -8.316  1.00140.95    -0.377 N 
HETATM   22  C7  MIQ B 502      15.971   6.804  -8.611  1.00142.12     0.149 C 
HETATM   23  C8  MIQ B 502      14.744   7.670  -8.866  1.00144.10     0.187 C 
HETATM   24  O9  MIQ B 502      13.841   7.085  -9.756  1.00148.65    -0.388 OA
HETATM   25  C10 MIQ B 502      13.994   5.753 -10.146  1.00147.44     0.187 C 
HETATM   26  C11 MIQ B 502      14.629   4.774  -9.163  1.00144.08     0.149 C 
ENDBRANCH   5  21
TORSDOF 2
ENDMDL
MODEL 6
REMARK VINA RESULT:      -6.1     16.587     19.170
REMARK  2 active torsions:
REMARK  status: ('A' for Active; 'I' for Inactive)
REMARK    1  A    between atoms: C5_5  and  N6_21 
REMARK    2  A    between atoms: C18_14  and  N17_19 
ROOT
HETATM    1  O1  MIQ B 502      22.249   3.876  -3.431  1.00142.91    -0.171 OA
HETATM    2  C2  MIQ B 502      23.080   4.998  -3.445  1.00141.17     0.195 A 
HETATM    3  C3  MIQ B 502      24.633   4.998  -3.273  1.00141.71     0.035 A 
HETATM    4  C4  MIQ B 502      25.635   3.926  -3.065  1.00142.86     0.046 A 
HETATM    5  C5  MIQ B 502      27.011   4.245  -2.943  1.00139.53     0.031 A 
HETATM    6  C12 MIQ B 502      27.441   5.634  -3.025  1.00139.38     0.030 A 
HETATM    7  C13 MIQ B 502      26.480   6.662  -3.226  1.00141.18     0.019 A 
HETATM    8  C14 MIQ B 502      25.037   6.321  -3.355  1.00138.77     0.033 A 
HETATM    9  C15 MIQ B 502      23.728   7.146  -3.579  1.00142.10     0.195 A 
HETATM   10  N17 MIQ B 502      22.742   6.266  -3.607  1.00139.42    -0.288 N 
HETATM   11  O16 MIQ B 502      23.628   8.531  -3.719  1.00148.93    -0.171 OA
ENDROOT
BRANCH  10  12
HETATM   12  C18 MIQ B 502      21.362   6.680  -3.784  1.00139.82     0.187 C 
HETATM   13  C19 MIQ B 502      20.544   6.086  -2.631  1.00140.06     0.247 C 
HETATM   14  O25 MIQ B 502      20.912   6.246  -1.522  1.00143.95    -0.271 OA
HETATM   15  N20 MIQ B 502      19.325   5.339  -2.865  1.00140.02    -0.296 N 
HETATM   16  H13 MIQ B 502      18.803   4.951  -2.104  1.00142.77     0.171 HD
HETATM   17  C21 MIQ B 502      18.902   5.148  -4.229  1.00142.22     0.224 C 
HETATM   18  C22 MIQ B 502      19.996   5.010  -5.269  1.00139.52     0.106 C 
HETATM   19  O24 MIQ B 502      17.757   5.108  -4.520  1.00146.13    -0.273 OA
HETATM   20  C23 MIQ B 502      20.854   6.258  -5.162  1.00139.15     0.045 C 
ENDBRANCH  10  12
BRANCH   5  21
HETATM   21  N6  MIQ B 502      27.980   3.187  -2.724  1.00140.95    -0.377 N 
HETATM   22  C7  MIQ B 502      28.678   3.137  -1.451  1.00142.12     0.149 C 
HETATM   23  C8  MIQ B 502      30.037   2.459  -1.575  1.00144.10     0.187 C 
HETATM   24  O9  MIQ B 502      29.981   1.251  -2.272  1.00148.65    -0.388 OA
HETATM   25  C10 MIQ B 502      28.820   0.883  -2.957  1.00147.44     0.187 C 
HETATM   26  C11 MIQ B 502      27.934   1.982  -3.535  1.00144.08     0.149 C 
ENDBRANCH   5  21
TORSDOF 2
ENDMDL
MODEL 7
REMARK VINA RESULT:      -6.0     13.755     17.210
REMARK  2 active torsions:
REMARK  status: ('A' for Active; 'I' for Inactive)
REMARK    1  A    between atoms: C5_5  and  N6_21 
REMARK    2  A    between atoms: C18_14  and  N17_19 
ROOT
HETATM    1  O1  MIQ B 502      11.018  15.979   4.832  1.00142.91    -0.171 OA
HETATM    2  C2  MIQ B 502      12.297  15.828   4.294  1.00141.17     0.195 A 
HETATM    3  C3  MIQ B 502      12.638  15.377   2.838  1.00141.71     0.035 A 
HETATM    4  C4  MIQ B 502      11.811  15.002   1.667  1.00142.86     0.046 A 
HETATM    5  C5  MIQ B 502      12.425  14.628   0.445  1.00139.53     0.031 A 
HETATM    6  C12 MIQ B 502      13.877  14.614   0.341  1.00139.38     0.030 A 
HETATM    7  C13 MIQ B 502      14.671  14.975   1.463  1.00141.18     0.019 A 
HETATM    8  C14 MIQ B 502      14.020  15.368   2.742  1.00138.77     0.033 A 
HETATM    9  C15 MIQ B 502      14.540  15.817   4.147  1.00142.10     0.195 A 
HETATM   10  N17 MIQ B 502      13.463  16.034   4.883  1.00139.42    -0.288 N 
HETATM   11  O16 MIQ B 502      15.873  15.957   4.540  1.00148.93    -0.171 OA
ENDROOT
BRANCH  10  12
HETATM   12  C18 MIQ B 502      13.564  16.455   6.268  1.00139.82     0.187 C 
HETATM   13  C19 MIQ B 502      14.455  17.702   6.314  1.00140.06     0.247 C 
HETATM   14  O25 MIQ B 502      14.217  18.607   5.595  1.00143.95    -0.271 OA
HETATM   15  N20 MIQ B 502      15.580  17.804   7.221  1.00140.02    -0.296 N 
HETATM   16  H13 MIQ B 502      16.157  18.621   7.237  1.00142.77     0.171 HD
HETATM   17  C21 MIQ B 502      15.856  16.683   8.081  1.00142.22     0.224 C 
HETATM   18  C22 MIQ B 502      15.554  15.305   7.523  1.00139.52     0.106 C 
HETATM   19  O24 MIQ B 502      16.292  16.831   9.170  1.00146.13    -0.273 OA
HETATM   20  C23 MIQ B 502      14.087  15.310   7.134  1.00139.15     0.045 C 
ENDBRANCH  10  12
BRANCH   5  21
HETATM   21  N6  MIQ B 502      11.602  14.249  -0.689  1.00140.95    -0.377 N 
HETATM   22  C7  MIQ B 502      10.303  14.880  -0.847  1.00142.12     0.149 C 
HETATM   23  C8  MIQ B 502       9.330  13.994  -1.614  1.00144.10     0.187 C 
HETATM   24  O9  MIQ B 502       9.881  13.465  -2.782  1.00148.65    -0.388 OA
HETATM   25  C10 MIQ B 502      11.251  13.582  -3.034  1.00147.44     0.187 C 
HETATM   26  C11 MIQ B 502      12.210  13.621  -1.849  1.00144.08     0.149 C 
ENDBRANCH   5  21
TORSDOF 2
ENDMDL
MODEL 8
REMARK VINA RESULT:      -6.0      3.785      6.208
REMARK  2 active torsions:
REMARK  status: ('A' for Active; 'I' for Inactive)
REMARK    1  A    between atoms: C5_5  and  N6_21 
REMARK    2  A    between atoms: C18_14  and  N17_19 
ROOT
HETATM    1  O1  MIQ B 502      23.823   5.013  12.172  1.00142.91    -0.171 OA
HETATM    2  C2  MIQ B 502      23.295   3.837  12.709  1.00141.17     0.195 A 
HETATM    3  C3  MIQ B 502      21.836   3.312  12.521  1.00141.71     0.035 A 
HETATM    4  C4  MIQ B 502      20.654   3.825  11.789  1.00142.86     0.046 A 
HETATM    5  C5  MIQ B 502      19.434   3.104  11.803  1.00139.53     0.031 A 
HETATM    6  C12 MIQ B 502      19.342   1.852  12.541  1.00139.38     0.030 A 
HETATM    7  C13 MIQ B 502      20.475   1.359  13.243  1.00141.18     0.019 A 
HETATM    8  C14 MIQ B 502      21.755   2.119  13.222  1.00138.77     0.033 A 
HETATM    9  C15 MIQ B 502      23.171   1.904  13.848  1.00142.10     0.195 A 
HETATM   10  N17 MIQ B 502      23.901   2.939  13.466  1.00139.42    -0.288 N 
HETATM   11  O16 MIQ B 502      23.577   0.835  14.649  1.00148.93    -0.171 OA
ENDROOT
BRANCH  10  12
HETATM   12  C18 MIQ B 502      25.285   3.084  13.879  1.00139.82     0.187 C 
HETATM   13  C19 MIQ B 502      25.437   4.464  14.529  1.00140.06     0.247 C 
HETATM   14  O25 MIQ B 502      24.687   4.785  15.382  1.00143.95    -0.271 OA
HETATM   15  N20 MIQ B 502      26.481   5.386  14.129  1.00140.02    -0.296 N 
HETATM   16  H13 MIQ B 502      26.565   6.287  14.557  1.00142.77     0.171 HD
HETATM   17  C21 MIQ B 502      27.377   4.976  13.079  1.00142.22     0.224 C 
HETATM   18  C22 MIQ B 502      26.794   4.094  11.992  1.00139.52     0.106 C 
HETATM   19  O24 MIQ B 502      28.511   5.307  13.070  1.00146.13    -0.273 OA
HETATM   20  C23 MIQ B 502      26.219   2.874  12.688  1.00139.15     0.045 C 
ENDBRANCH  10  12
BRANCH   5  21
HETATM   21  N6  MIQ B 502      18.280   3.626  11.094  1.00140.95    -0.377 N 
HETATM   22  C7  MIQ B 502      18.237   5.045  10.786  1.00142.12     0.149 C 
HETATM   23  C8  MIQ B 502      16.808   5.557  10.658  1.00144.10     0.187 C 
HETATM   24  O9  MIQ B 502      16.011   4.746   9.847  1.00148.65    -0.388 OA
HETATM   25  C10 MIQ B 502      16.472   3.496   9.426  1.00147.44     0.187 C 
HETATM   26  C11 MIQ B 502      17.430   2.728  10.331  1.00144.08     0.149 C 
ENDBRANCH   5  21
TORSDOF 2
ENDMDL
MODEL 9
REMARK VINA RESULT:      -6.0     13.941     17.212
REMARK  2 active torsions:
REMARK  status: ('A' for Active; 'I' for Inactive)
REMARK    1  A    between atoms: C5_5  and  N6_21 
REMARK    2  A    between atoms: C18_14  and  N17_19 
ROOT
HETATM    1  O1  MIQ B 502      12.232  15.886   4.675  1.00142.91    -0.171 OA
HETATM    2  C2  MIQ B 502      13.405  15.649   3.955  1.00141.17     0.195 A 
HETATM    3  C3  MIQ B 502      13.496  15.206   2.460  1.00141.71     0.035 A 
HETATM    4  C4  MIQ B 502      12.481  14.923   1.417  1.00142.86     0.046 A 
HETATM    5  C5  MIQ B 502      12.881  14.532   0.115  1.00139.53     0.031 A 
HETATM    6  C12 MIQ B 502      14.297  14.408  -0.200  1.00139.38     0.030 A 
HETATM    7  C13 MIQ B 502      15.271  14.680   0.799  1.00141.18     0.019 A 
HETATM    8  C14 MIQ B 502      14.845  15.093   2.164  1.00138.77     0.033 A 
HETATM    9  C15 MIQ B 502      15.595  15.468   3.484  1.00142.10     0.195 A 
HETATM   10  N17 MIQ B 502      14.656  15.751   4.371  1.00139.42    -0.288 N 
HETATM   11  O16 MIQ B 502      16.977  15.495   3.680  1.00148.93    -0.171 OA
ENDROOT
BRANCH  10  12
HETATM   12  C18 MIQ B 502      14.988  16.130   5.731  1.00139.82     0.187 C 
HETATM   13  C19 MIQ B 502      14.149  15.262   6.677  1.00140.06     0.247 C 
HETATM   14  O25 MIQ B 502      14.147  14.091   6.535  1.00143.95    -0.271 OA
HETATM   15  N20 MIQ B 502      13.362  15.840   7.747  1.00140.02    -0.296 N 
HETATM   16  H13 MIQ B 502      12.813  15.263   8.354  1.00142.77     0.171 HD
HETATM   17  C21 MIQ B 502      13.372  17.273   7.894  1.00142.22     0.224 C 
HETATM   18  C22 MIQ B 502      13.493  18.088   6.621  1.00139.52     0.106 C 
HETATM   19  O24 MIQ B 502      13.295  17.785   8.957  1.00146.13    -0.273 OA
HETATM   20  C23 MIQ B 502      14.767  17.628   5.935  1.00139.15     0.045 C 
ENDBRANCH  10  12
BRANCH   5  21
HETATM   21  N6  MIQ B 502      11.876  14.244  -0.892  1.00140.95    -0.377 N 
HETATM   22  C7  MIQ B 502      12.208  13.315  -1.959  1.00142.12     0.149 C 
HETATM   23  C8  MIQ B 502      11.398  13.585  -3.221  1.00144.10     0.187 C 
HETATM   24  O9  MIQ B 502      10.034  13.740  -2.967  1.00148.65    -0.388 OA
HETATM   25  C10 MIQ B 502       9.566  13.859  -1.656  1.00147.44     0.187 C 
HETATM   26  C11 MIQ B 502      10.475  14.503  -0.614  1.00144.08     0.149 C 
ENDBRANCH   5  21
TORSDOF 2
ENDMDL
