MODEL 1
REMARK VINA RESULT:      -8.5      0.000      0.000
REMARK  2 active torsions:
REMARK  status: ('A' for Active; 'I' for Inactive)
REMARK    1  A    between atoms: C5_5  and  N6_21 
REMARK    2  A    between atoms: C18_14  and  N17_19 
ROOT
HETATM    1  O1  MIQ B 502      13.258  -1.439 -12.452  1.00142.91    -0.171 OA
HETATM    2  C2  MIQ B 502      13.463  -1.446 -13.833  1.00141.17     0.195 A 
HETATM    3  C3  MIQ B 502      13.022  -0.332 -14.836  1.00141.71     0.035 A 
HETATM    4  C4  MIQ B 502      12.319   0.963 -14.677  1.00142.86     0.046 A 
HETATM    5  C5  MIQ B 502      12.054   1.778 -15.806  1.00139.53     0.031 A 
HETATM    6  C12 MIQ B 502      12.477   1.341 -17.129  1.00139.38     0.030 A 
HETATM    7  C13 MIQ B 502      13.153   0.100 -17.282  1.00141.18     0.019 A 
HETATM    8  C14 MIQ B 502      13.430  -0.751 -16.093  1.00138.77     0.033 A 
HETATM    9  C15 MIQ B 502      14.128  -2.132 -15.868  1.00142.10     0.195 A 
HETATM   10  N17 MIQ B 502      14.063  -2.367 -14.568  1.00139.42    -0.288 N 
HETATM   11  O16 MIQ B 502      14.700  -2.948 -16.845  1.00148.93    -0.171 OA
ENDROOT
BRANCH  10  12
HETATM   12  C18 MIQ B 502      14.604  -3.583 -13.990  1.00139.82     0.187 C 
HETATM   13  C19 MIQ B 502      13.498  -4.236 -13.153  1.00140.06     0.247 C 
HETATM   14  O25 MIQ B 502      12.437  -4.413 -13.638  1.00143.95    -0.271 OA
HETATM   15  N20 MIQ B 502      13.719  -4.648 -11.782  1.00140.02    -0.296 N 
HETATM   16  H13 MIQ B 502      12.987  -5.067 -11.244  1.00142.77     0.171 HD
HETATM   17  C21 MIQ B 502      15.019  -4.411 -11.208  1.00142.22     0.224 C 
HETATM   18  C22 MIQ B 502      15.753  -3.168 -11.673  1.00139.52     0.106 C 
HETATM   19  O24 MIQ B 502      15.490  -5.153 -10.418  1.00146.13    -0.273 OA
HETATM   20  C23 MIQ B 502      15.865  -3.273 -13.183  1.00139.15     0.045 C 
ENDBRANCH  10  12
BRANCH   5  21
HETATM   21  N6  MIQ B 502      11.352   3.037 -15.637  1.00140.95    -0.377 N 
HETATM   22  C7  MIQ B 502      12.080   4.172 -15.096  1.00142.12     0.149 C 
HETATM   23  C8  MIQ B 502      11.156   5.156 -14.389  1.00144.10     0.187 C 
HETATM   24  O9  MIQ B 502      10.025   5.476 -15.142  1.00148.65    -0.388 OA
HETATM   25  C10 MIQ B 502       9.719   4.758 -16.301  1.00147.44     0.187 C 
HETATM   26  C11 MIQ B 502      10.129   3.291 -16.379  1.00144.08     0.149 C 
ENDBRANCH   5  21
TORSDOF 2
ENDMDL
MODEL 2
REMARK VINA RESULT:      -7.2      5.097      9.180
REMARK  2 active torsions:
REMARK  status: ('A' for Active; 'I' for Inactive)
REMARK    1  A    between atoms: C5_5  and  N6_21 
REMARK    2  A    between atoms: C18_14  and  N17_19 
ROOT
HETATM    1  O1  MIQ B 502      15.834  -6.795  -7.518  1.00142.91    -0.171 OA
HETATM    2  C2  MIQ B 502      16.631  -7.357  -8.518  1.00141.17     0.195 A 
HETATM    3  C3  MIQ B 502      16.678  -6.916 -10.016  1.00141.71     0.035 A 
HETATM    4  C4  MIQ B 502      15.974  -5.868 -10.793  1.00142.86     0.046 A 
HETATM    5  C5  MIQ B 502      16.236  -5.704 -12.176  1.00139.53     0.031 A 
HETATM    6  C12 MIQ B 502      17.202  -6.570 -12.837  1.00139.38     0.030 A 
HETATM    7  C13 MIQ B 502      17.878  -7.575 -12.092  1.00141.18     0.019 A 
HETATM    8  C14 MIQ B 502      17.601  -7.741 -10.639  1.00138.77     0.033 A 
HETATM    9  C15 MIQ B 502      18.130  -8.698  -9.522  1.00142.10     0.195 A 
HETATM   10  N17 MIQ B 502      17.496  -8.351  -8.414  1.00139.42    -0.288 N 
HETATM   11  O16 MIQ B 502      19.077  -9.712  -9.670  1.00148.93    -0.171 OA
ENDROOT
BRANCH  10  12
HETATM   12  C18 MIQ B 502      17.727  -9.044  -7.160  1.00139.82     0.187 C 
HETATM   13  C19 MIQ B 502      16.360  -9.380  -6.552  1.00140.06     0.247 C 
HETATM   14  O25 MIQ B 502      15.553  -9.928  -7.215  1.00143.95    -0.271 OA
HETATM   15  N20 MIQ B 502      16.032  -9.048  -5.180  1.00140.02    -0.296 N 
HETATM   16  H13 MIQ B 502      15.134  -9.266  -4.797  1.00142.77     0.171 HD
HETATM   17  C21 MIQ B 502      17.030  -8.370  -4.393  1.00142.22     0.224 C 
HETATM   18  C22 MIQ B 502      17.938  -7.404  -5.130  1.00139.52     0.106 C 
HETATM   19  O24 MIQ B 502      17.137  -8.563  -3.232  1.00146.13    -0.273 OA
HETATM   20  C23 MIQ B 502      18.604  -8.198  -6.238  1.00139.15     0.045 C 
ENDBRANCH  10  12
BRANCH   5  21
HETATM   21  N6  MIQ B 502      15.528  -4.684 -12.928  1.00140.95    -0.377 N 
HETATM   22  C7  MIQ B 502      14.295  -5.048 -13.603  1.00142.12     0.149 C 
HETATM   23  C8  MIQ B 502      14.023  -4.159 -14.810  1.00144.10     0.187 C 
HETATM   24  O9  MIQ B 502      14.169  -2.800 -14.527  1.00148.65    -0.388 OA
HETATM   25  C10 MIQ B 502      14.735  -2.385 -13.319  1.00147.44     0.187 C 
HETATM   26  C11 MIQ B 502      15.778  -3.279 -12.657  1.00144.08     0.149 C 
ENDBRANCH   5  21
TORSDOF 2
ENDMDL
MODEL 3
REMARK VINA RESULT:      -7.1      4.638     10.671
REMARK  2 active torsions:
REMARK  status: ('A' for Active; 'I' for Inactive)
REMARK    1  A    between atoms: C5_5  and  N6_21 
REMARK    2  A    between atoms: C18_14  and  N17_19 
ROOT
HETATM    1  O1  MIQ B 502      14.817  -4.361 -10.576  1.00142.91    -0.171 OA
HETATM    2  C2  MIQ B 502      15.643  -5.432 -10.925  1.00141.17     0.195 A 
HETATM    3  C3  MIQ B 502      16.195  -6.525  -9.956  1.00141.71     0.035 A 
HETATM    4  C4  MIQ B 502      16.044  -6.768  -8.501  1.00142.86     0.046 A 
HETATM    5  C5  MIQ B 502      16.684  -7.876  -7.889  1.00139.53     0.031 A 
HETATM    6  C12 MIQ B 502      17.493  -8.779  -8.695  1.00139.38     0.030 A 
HETATM    7  C13 MIQ B 502      17.638  -8.547 -10.089  1.00141.18     0.019 A 
HETATM    8  C14 MIQ B 502      16.962  -7.384 -10.727  1.00138.77     0.033 A 
HETATM    9  C15 MIQ B 502      16.884  -6.821 -12.184  1.00142.10     0.195 A 
HETATM   10  N17 MIQ B 502      16.116  -5.746 -12.119  1.00139.42    -0.288 N 
HETATM   11  O16 MIQ B 502      17.503  -7.349 -13.318  1.00148.93    -0.171 OA
ENDROOT
BRANCH  10  12
HETATM   12  C18 MIQ B 502      15.831  -4.946 -13.296  1.00139.82     0.187 C 
HETATM   13  C19 MIQ B 502      16.195  -3.492 -12.973  1.00140.06     0.247 C 
HETATM   14  O25 MIQ B 502      17.258  -3.250 -12.524  1.00143.95    -0.271 OA
HETATM   15  N20 MIQ B 502      15.269  -2.403 -13.211  1.00140.02    -0.296 N 
HETATM   16  H13 MIQ B 502      15.516  -1.458 -12.989  1.00142.77     0.171 HD
HETATM   17  C21 MIQ B 502      13.973  -2.724 -13.750  1.00142.22     0.224 C 
HETATM   18  C22 MIQ B 502      13.371  -4.051 -13.331  1.00139.52     0.106 C 
HETATM   19  O24 MIQ B 502      13.412  -1.991 -14.488  1.00146.13    -0.273 OA
HETATM   20  C23 MIQ B 502      14.374  -5.122 -13.719  1.00139.15     0.045 C 
ENDBRANCH  10  12
BRANCH   5  21
HETATM   21  N6  MIQ B 502      16.539  -8.093  -6.461  1.00140.95    -0.377 N 
HETATM   22  C7  MIQ B 502      17.392  -7.344  -5.555  1.00142.12     0.149 C 
HETATM   23  C8  MIQ B 502      17.610  -8.081  -4.239  1.00144.10     0.187 C 
HETATM   24  O9  MIQ B 502      16.422  -8.561  -3.683  1.00148.65    -0.388 OA
HETATM   25  C10 MIQ B 502      15.236  -8.540  -4.420  1.00147.44     0.187 C 
HETATM   26  C11 MIQ B 502      15.316  -8.676  -5.937  1.00144.08     0.149 C 
ENDBRANCH   5  21
TORSDOF 2
ENDMDL
MODEL 4
REMARK VINA RESULT:      -7.1      3.503      5.645
REMARK  2 active torsions:
REMARK  status: ('A' for Active; 'I' for Inactive)
REMARK    1  A    between atoms: C5_5  and  N6_21 
REMARK    2  A    between atoms: C18_14  and  N17_19 
ROOT
HETATM    1  O1  MIQ B 502      16.502  -5.885 -14.965  1.00142.91    -0.171 OA
HETATM    2  C2  MIQ B 502      16.084  -5.439 -13.709  1.00141.17     0.195 A 
HETATM    3  C3  MIQ B 502      15.257  -4.147 -13.417  1.00141.71     0.035 A 
HETATM    4  C4  MIQ B 502      14.697  -3.079 -14.280  1.00142.86     0.046 A 
HETATM    5  C5  MIQ B 502      13.970  -2.004 -13.709  1.00139.53     0.031 A 
HETATM    6  C12 MIQ B 502      13.774  -1.950 -12.267  1.00139.38     0.030 A 
HETATM    7  C13 MIQ B 502      14.310  -2.974 -11.440  1.00141.18     0.019 A 
HETATM    8  C14 MIQ B 502      15.070  -4.101 -12.046  1.00138.77     0.033 A 
HETATM    9  C15 MIQ B 502      15.784  -5.373 -11.482  1.00142.10     0.195 A 
HETATM   10  N17 MIQ B 502      16.289  -6.003 -12.531  1.00139.42    -0.288 N 
HETATM   11  O16 MIQ B 502      15.870  -5.759 -10.144  1.00148.93    -0.171 OA
ENDROOT
BRANCH  10  12
HETATM   12  C18 MIQ B 502      17.044  -7.233 -12.384  1.00139.82     0.187 C 
HETATM   13  C19 MIQ B 502      18.413  -7.023 -13.043  1.00140.06     0.247 C 
HETATM   14  O25 MIQ B 502      19.053  -6.076 -12.752  1.00143.95    -0.271 OA
HETATM   15  N20 MIQ B 502      18.946  -7.960 -14.011  1.00140.02    -0.296 N 
HETATM   16  H13 MIQ B 502      19.838  -7.808 -14.439  1.00142.77     0.171 HD
HETATM   17  C21 MIQ B 502      18.141  -9.103 -14.357  1.00142.22     0.224 C 
HETATM   18  C22 MIQ B 502      16.638  -8.902 -14.360  1.00139.52     0.106 C 
HETATM   19  O24 MIQ B 502      18.630 -10.146 -14.621  1.00146.13    -0.273 OA
HETATM   20  C23 MIQ B 502      16.266  -8.408 -12.974  1.00139.15     0.045 C 
ENDBRANCH  10  12
BRANCH   5  21
HETATM   21  N6  MIQ B 502      13.440  -0.958 -14.564  1.00140.95    -0.377 N 
HETATM   22  C7  MIQ B 502      13.215   0.359 -13.992  1.00142.12     0.149 C 
HETATM   23  C8  MIQ B 502      12.120   1.119 -14.729  1.00144.10     0.187 C 
HETATM   24  O9  MIQ B 502      12.278   1.090 -16.116  1.00148.65    -0.388 OA
HETATM   25  C10 MIQ B 502      13.220   0.241 -16.704  1.00147.44     0.187 C 
HETATM   26  C11 MIQ B 502      13.551  -1.074 -16.007  1.00144.08     0.149 C 
ENDBRANCH   5  21
TORSDOF 2
ENDMDL
MODEL 5
REMARK VINA RESULT:      -7.0      3.176      4.384
REMARK  2 active torsions:
REMARK  status: ('A' for Active; 'I' for Inactive)
REMARK    1  A    between atoms: C5_5  and  N6_21 
REMARK    2  A    between atoms: C18_14  and  N17_19 
ROOT
HETATM    1  O1  MIQ B 502      15.887  -5.053 -12.593  1.00142.91    -0.171 OA
HETATM    2  C2  MIQ B 502      15.896  -5.082 -13.989  1.00141.17     0.195 A 
HETATM    3  C3  MIQ B 502      15.248  -4.024 -14.938  1.00141.71     0.035 A 
HETATM    4  C4  MIQ B 502      14.494  -2.770 -14.702  1.00142.86     0.046 A 
HETATM    5  C5  MIQ B 502      14.021  -2.001 -15.795  1.00139.53     0.031 A 
HETATM    6  C12 MIQ B 502      14.281  -2.446 -17.157  1.00139.38     0.030 A 
HETATM    7  C13 MIQ B 502      15.005  -3.648 -17.384  1.00141.18     0.019 A 
HETATM    8  C14 MIQ B 502      15.501  -4.449 -16.232  1.00138.77     0.033 A 
HETATM    9  C15 MIQ B 502      16.310  -5.779 -16.085  1.00142.10     0.195 A 
HETATM   10  N17 MIQ B 502      16.444  -5.984 -14.785  1.00139.42    -0.288 N 
HETATM   11  O16 MIQ B 502      16.789  -6.584 -17.120  1.00148.93    -0.171 OA
ENDROOT
BRANCH  10  12
HETATM   12  C18 MIQ B 502      17.138  -7.149 -14.270  1.00139.82     0.187 C 
HETATM   13  C19 MIQ B 502      16.174  -7.893 -13.337  1.00140.06     0.247 C 
HETATM   14  O25 MIQ B 502      15.091  -8.159 -13.722  1.00143.95    -0.271 OA
HETATM   15  N20 MIQ B 502      16.558  -8.284 -11.996  1.00140.02    -0.296 N 
HETATM   16  H13 MIQ B 502      15.917  -8.763 -11.395  1.00142.77     0.171 HD
HETATM   17  C21 MIQ B 502      17.881  -7.938 -11.545  1.00142.22     0.224 C 
HETATM   18  C22 MIQ B 502      18.461  -6.638 -12.069  1.00139.52     0.106 C 
HETATM   19  O24 MIQ B 502      18.486  -8.637 -10.809  1.00146.13    -0.273 OA
HETATM   20  C23 MIQ B 502      18.438  -6.734 -13.583  1.00139.15     0.045 C 
ENDBRANCH  10  12
BRANCH   5  21
HETATM   21  N6  MIQ B 502      13.270  -0.784 -15.549  1.00140.95    -0.377 N 
HETATM   22  C7  MIQ B 502      13.355  -0.169 -14.236  1.00142.12     0.149 C 
HETATM   23  C8  MIQ B 502      12.110   0.645 -13.908  1.00144.10     0.187 C 
HETATM   24  O9  MIQ B 502      11.731   1.501 -14.944  1.00148.65    -0.388 OA
HETATM   25  C10 MIQ B 502      12.331   1.398 -16.202  1.00147.44     0.187 C 
HETATM   26  C11 MIQ B 502      12.823   0.031 -16.666  1.00144.08     0.149 C 
ENDBRANCH   5  21
TORSDOF 2
ENDMDL
MODEL 6
REMARK VINA RESULT:      -6.9     17.247     20.479
REMARK  2 active torsions:
REMARK  status: ('A' for Active; 'I' for Inactive)
REMARK    1  A    between atoms: C5_5  and  N6_21 
REMARK    2  A    between atoms: C18_14  and  N17_19 
ROOT
HETATM    1  O1  MIQ B 502      11.085  12.766  -2.204  1.00142.91    -0.171 OA
HETATM    2  C2  MIQ B 502      11.418  12.347  -0.914  1.00141.17     0.195 A 
HETATM    3  C3  MIQ B 502      11.703  13.274   0.311  1.00141.71     0.035 A 
HETATM    4  C4  MIQ B 502      11.711  14.744   0.497  1.00142.86     0.046 A 
HETATM    5  C5  MIQ B 502      12.014  15.305   1.763  1.00139.53     0.031 A 
HETATM    6  C12 MIQ B 502      12.318  14.431   2.887  1.00139.38     0.030 A 
HETATM    7  C13 MIQ B 502      12.308  13.021   2.710  1.00141.18     0.019 A 
HETATM    8  C14 MIQ B 502      11.987  12.438   1.379  1.00138.77     0.033 A 
HETATM    9  C15 MIQ B 502      11.878  10.984   0.813  1.00142.10     0.195 A 
HETATM   10  N17 MIQ B 502      11.554  11.112  -0.463  1.00139.42    -0.288 N 
HETATM   11  O16 MIQ B 502      12.084   9.796   1.516  1.00148.93    -0.171 OA
ENDROOT
BRANCH  10  12
HETATM   12  C18 MIQ B 502      11.381   9.954  -1.320  1.00139.82     0.187 C 
HETATM   13  C19 MIQ B 502      12.287  10.139  -2.544  1.00140.06     0.247 C 
HETATM   14  O25 MIQ B 502      13.425  10.401  -2.384  1.00143.95    -0.271 OA
HETATM   15  N20 MIQ B 502      11.784   9.994  -3.895  1.00140.02    -0.296 N 
HETATM   16  H13 MIQ B 502      12.384  10.123  -4.686  1.00142.77     0.171 HD
HETATM   17  C21 MIQ B 502      10.388   9.683  -4.066  1.00142.22     0.224 C 
HETATM   18  C22 MIQ B 502       9.431  10.262  -3.041  1.00139.52     0.106 C 
HETATM   19  O24 MIQ B 502      10.010   9.006  -4.958  1.00146.13    -0.273 OA
HETATM   20  C23 MIQ B 502       9.908   9.777  -1.684  1.00139.15     0.045 C 
ENDBRANCH  10  12
BRANCH   5  21
HETATM   21  N6  MIQ B 502      12.034  16.748   1.926  1.00140.95    -0.377 N 
HETATM   22  C7  MIQ B 502      10.771  17.444   2.101  1.00142.12     0.149 C 
HETATM   23  C8  MIQ B 502      10.847  18.888   1.623  1.00144.10     0.187 C 
HETATM   24  O9  MIQ B 502      11.972  19.562   2.106  1.00148.65    -0.388 OA
HETATM   25  C10 MIQ B 502      12.993  18.861   2.753  1.00147.44     0.187 C 
HETATM   26  C11 MIQ B 502      13.254  17.414   2.348  1.00144.08     0.149 C 
ENDBRANCH   5  21
TORSDOF 2
ENDMDL
MODEL 7
REMARK VINA RESULT:      -6.6      3.383      5.096
REMARK  2 active torsions:
REMARK  status: ('A' for Active; 'I' for Inactive)
REMARK    1  A    between atoms: C5_5  and  N6_21 
REMARK    2  A    between atoms: C18_14  and  N17_19 
ROOT
HETATM    1  O1  MIQ B 502      16.628  -3.540 -10.919  1.00142.91    -0.171 OA
HETATM    2  C2  MIQ B 502      16.441  -4.172 -12.150  1.00141.17     0.195 A 
HETATM    3  C3  MIQ B 502      15.615  -3.618 -13.355  1.00141.71     0.035 A 
HETATM    4  C4  MIQ B 502      14.841  -2.373 -13.573  1.00142.86     0.046 A 
HETATM    5  C5  MIQ B 502      14.182  -2.146 -14.808  1.00139.53     0.031 A 
HETATM    6  C12 MIQ B 502      14.269  -3.142 -15.867  1.00139.38     0.030 A 
HETATM    7  C13 MIQ B 502      15.012  -4.334 -15.659  1.00141.18     0.019 A 
HETATM    8  C14 MIQ B 502      15.704  -4.566 -14.361  1.00138.77     0.033 A 
HETATM    9  C15 MIQ B 502      16.590  -5.715 -13.778  1.00142.10     0.195 A 
HETATM   10  N17 MIQ B 502      16.915  -5.338 -12.552  1.00139.42    -0.288 N 
HETATM   11  O16 MIQ B 502      16.958  -6.897 -14.423  1.00148.93    -0.171 OA
ENDROOT
BRANCH  10  12
HETATM   12  C18 MIQ B 502      17.731  -6.177 -11.694  1.00139.82     0.187 C 
HETATM   13  C19 MIQ B 502      19.000  -6.547 -12.471  1.00140.06     0.247 C 
HETATM   14  O25 MIQ B 502      19.633  -5.692 -12.981  1.00143.95    -0.271 OA
HETATM   15  N20 MIQ B 502      19.449  -7.919 -12.592  1.00140.02    -0.296 N 
HETATM   16  H13 MIQ B 502      20.276  -8.148 -13.107  1.00142.77     0.171 HD
HETATM   17  C21 MIQ B 502      18.654  -8.946 -11.969  1.00142.22     0.224 C 
HETATM   18  C22 MIQ B 502      17.155  -8.720 -11.934  1.00139.52     0.106 C 
HETATM   19  O24 MIQ B 502      19.149  -9.914 -11.504  1.00146.13    -0.273 OA
HETATM   20  C23 MIQ B 502      16.935  -7.395 -11.228  1.00139.15     0.045 C 
ENDBRANCH  10  12
BRANCH   5  21
HETATM   21  N6  MIQ B 502      13.414  -0.930 -15.002  1.00140.95    -0.377 N 
HETATM   22  C7  MIQ B 502      13.288  -0.003 -13.891  1.00142.12     0.149 C 
HETATM   23  C8  MIQ B 502      12.014   0.828 -13.985  1.00144.10     0.187 C 
HETATM   24  O9  MIQ B 502      11.822   1.385 -15.251  1.00148.65    -0.388 OA
HETATM   25  C10 MIQ B 502      12.620   0.989 -16.327  1.00147.44     0.187 C 
HETATM   26  C11 MIQ B 502      13.167  -0.435 -16.345  1.00144.08     0.149 C 
ENDBRANCH   5  21
TORSDOF 2
ENDMDL
MODEL 8
REMARK VINA RESULT:      -6.6     14.457     17.893
REMARK  2 active torsions:
REMARK  status: ('A' for Active; 'I' for Inactive)
REMARK    1  A    between atoms: C5_5  and  N6_21 
REMARK    2  A    between atoms: C18_14  and  N17_19 
ROOT
HETATM    1  O1  MIQ B 502      13.384  13.138  -1.223  1.00142.91    -0.171 OA
HETATM    2  C2  MIQ B 502      12.652  12.086  -1.778  1.00141.17     0.195 A 
HETATM    3  C3  MIQ B 502      12.900  11.423  -3.170  1.00141.71     0.035 A 
HETATM    4  C4  MIQ B 502      13.889  11.659  -4.249  1.00142.86     0.046 A 
HETATM    5  C5  MIQ B 502      13.864  10.872  -5.428  1.00139.53     0.031 A 
HETATM    6  C12 MIQ B 502      12.862   9.827  -5.579  1.00139.38     0.030 A 
HETATM    7  C13 MIQ B 502      11.914   9.600  -4.544  1.00141.18     0.019 A 
HETATM    8  C14 MIQ B 502      11.947  10.427  -3.307  1.00138.77     0.033 A 
HETATM    9  C15 MIQ B 502      11.102  10.472  -1.992  1.00142.10     0.195 A 
HETATM   10  N17 MIQ B 502      11.623  11.440  -1.256  1.00139.42    -0.288 N 
HETATM   11  O16 MIQ B 502      10.017   9.656  -1.668  1.00148.93    -0.171 OA
ENDROOT
BRANCH  10  12
HETATM   12  C18 MIQ B 502      11.075  11.781   0.043  1.00139.82     0.187 C 
HETATM   13  C19 MIQ B 502      10.900  13.304   0.092  1.00140.06     0.247 C 
HETATM   14  O25 MIQ B 502      10.325  13.846  -0.784  1.00143.95    -0.271 OA
HETATM   15  N20 MIQ B 502      11.417  14.098   1.188  1.00140.02    -0.296 N 
HETATM   16  H13 MIQ B 502      11.301  15.092   1.204  1.00142.77     0.171 HD
HETATM   17  C21 MIQ B 502      12.124  13.415   2.241  1.00142.22     0.224 C 
HETATM   18  C22 MIQ B 502      12.936  12.199   1.838  1.00139.52     0.106 C 
HETATM   19  O24 MIQ B 502      12.068  13.783   3.362  1.00146.13    -0.273 OA
HETATM   20  C23 MIQ B 502      11.973  11.244   1.157  1.00139.15     0.045 C 
ENDBRANCH  10  12
BRANCH   5  21
HETATM   21  N6  MIQ B 502      14.829  11.124  -6.483  1.00140.95    -0.377 N 
HETATM   22  C7  MIQ B 502      14.640  10.471  -7.767  1.00142.12     0.149 C 
HETATM   23  C8  MIQ B 502      15.957  10.284  -8.509  1.00144.10     0.187 C 
HETATM   24  O9  MIQ B 502      16.734  11.444  -8.538  1.00148.65    -0.388 OA
HETATM   25  C10 MIQ B 502      16.390  12.546  -7.751  1.00147.44     0.187 C 
HETATM   26  C11 MIQ B 502      15.677  12.301  -6.425  1.00144.08     0.149 C 
ENDBRANCH   5  21
TORSDOF 2
ENDMDL
MODEL 9
REMARK VINA RESULT:      -6.6      5.172     11.782
REMARK  2 active torsions:
REMARK  status: ('A' for Active; 'I' for Inactive)
REMARK    1  A    between atoms: C5_5  and  N6_21 
REMARK    2  A    between atoms: C18_14  and  N17_19 
ROOT
HETATM    1  O1  MIQ B 502      18.251  -7.406 -12.406  1.00142.91    -0.171 OA
HETATM    2  C2  MIQ B 502      17.345  -6.896 -11.474  1.00141.17     0.195 A 
HETATM    3  C3  MIQ B 502      17.162  -7.387 -10.002  1.00141.71     0.035 A 
HETATM    4  C4  MIQ B 502      17.818  -8.439  -9.190  1.00142.86     0.046 A 
HETATM    5  C5  MIQ B 502      17.426  -8.654  -7.844  1.00139.53     0.031 A 
HETATM    6  C12 MIQ B 502      16.374  -7.835  -7.259  1.00139.38     0.030 A 
HETATM    7  C13 MIQ B 502      15.746  -6.826  -8.037  1.00141.18     0.019 A 
HETATM    8  C14 MIQ B 502      16.163  -6.603  -9.448  1.00138.77     0.033 A 
HETATM    9  C15 MIQ B 502      15.724  -5.620 -10.582  1.00142.10     0.195 A 
HETATM   10  N17 MIQ B 502      16.475  -5.913 -11.631  1.00139.42    -0.288 N 
HETATM   11  O16 MIQ B 502      14.736  -4.637 -10.499  1.00148.93    -0.171 OA
ENDROOT
BRANCH  10  12
HETATM   12  C18 MIQ B 502      16.331  -5.203 -12.888  1.00139.82     0.187 C 
HETATM   13  C19 MIQ B 502      16.495  -3.706 -12.601  1.00140.06     0.247 C 
HETATM   14  O25 MIQ B 502      17.435  -3.336 -11.991  1.00143.95    -0.271 OA
HETATM   15  N20 MIQ B 502      15.530  -2.729 -13.062  1.00140.02    -0.296 N 
HETATM   16  H13 MIQ B 502      15.646  -1.755 -12.862  1.00142.77     0.171 HD
HETATM   17  C21 MIQ B 502      14.385  -3.206 -13.795  1.00142.22     0.224 C 
HETATM   18  C22 MIQ B 502      13.843  -4.566 -13.401  1.00139.52     0.106 C 
HETATM   19  O24 MIQ B 502      13.898  -2.569 -14.663  1.00146.13    -0.273 OA
HETATM   20  C23 MIQ B 502      14.993  -5.546 -13.542  1.00139.15     0.045 C 
ENDBRANCH  10  12
BRANCH   5  21
HETATM   21  N6  MIQ B 502      18.067  -9.698  -7.065  1.00140.95    -0.377 N 
HETATM   22  C7  MIQ B 502      19.188 -10.412  -7.650  1.00142.12     0.149 C 
HETATM   23  C8  MIQ B 502      19.334 -11.814  -7.072  1.00144.10     0.187 C 
HETATM   24  O9  MIQ B 502      19.274 -11.835  -5.677  1.00148.65    -0.388 OA
HETATM   25  C10 MIQ B 502      18.885 -10.696  -4.967  1.00147.44     0.187 C 
HETATM   26  C11 MIQ B 502      17.905  -9.728  -5.622  1.00144.08     0.149 C 
ENDBRANCH   5  21
TORSDOF 2
ENDMDL
