MODEL 1
REMARK VINA RESULT:      -6.8      0.000      0.000
REMARK  2 active torsions:
REMARK  status: ('A' for Active; 'I' for Inactive)
REMARK    1  A    between atoms: C5_5  and  N6_21 
REMARK    2  A    between atoms: C18_14  and  N17_19 
ROOT
HETATM    1  O1  MIQ B 502       8.974   7.200 -13.256  1.00142.91    -0.171 OA
HETATM    2  C2  MIQ B 502       9.627   6.633 -14.352  1.00141.17     0.195 A 
HETATM    3  C3  MIQ B 502      10.118   5.155 -14.470  1.00141.71     0.035 A 
HETATM    4  C4  MIQ B 502      10.060   3.986 -13.560  1.00142.86     0.046 A 
HETATM    5  C5  MIQ B 502      10.605   2.740 -13.959  1.00139.53     0.031 A 
HETATM    6  C12 MIQ B 502      11.225   2.609 -15.270  1.00139.38     0.030 A 
HETATM    7  C13 MIQ B 502      11.280   3.729 -16.143  1.00141.18     0.019 A 
HETATM    8  C14 MIQ B 502      10.704   5.034 -15.720  1.00138.77     0.033 A 
HETATM    9  C15 MIQ B 502      10.575   6.445 -16.382  1.00142.10     0.195 A 
HETATM   10  N17 MIQ B 502       9.956   7.208 -15.496  1.00139.42    -0.288 N 
HETATM   11  O16 MIQ B 502      11.027   6.818 -17.649  1.00148.93    -0.171 OA
ENDROOT
BRANCH  10  12
HETATM   12  C18 MIQ B 502       9.676   8.606 -15.766  1.00139.82     0.187 C 
HETATM   13  C19 MIQ B 502      10.212   9.427 -14.587  1.00140.06     0.247 C 
HETATM   14  O25 MIQ B 502      11.324   9.262 -14.229  1.00143.95    -0.271 OA
HETATM   15  N20 MIQ B 502       9.393  10.406 -13.902  1.00140.02    -0.296 N 
HETATM   16  H13 MIQ B 502       9.753  10.930 -13.130  1.00142.77     0.171 HD
HETATM   17  C21 MIQ B 502       8.036  10.582 -14.351  1.00142.22     0.224 C 
HETATM   18  C22 MIQ B 502       7.327   9.349 -14.877  1.00139.52     0.106 C 
HETATM   19  O24 MIQ B 502       7.505  11.637 -14.314  1.00146.13    -0.273 OA
HETATM   20  C23 MIQ B 502       8.182   8.811 -16.011  1.00139.15     0.045 C 
ENDBRANCH  10  12
BRANCH   5  21
HETATM   21  N6  MIQ B 502      10.554   1.608 -13.052  1.00140.95    -0.377 N 
HETATM   22  C7  MIQ B 502      10.209   1.847 -11.662  1.00142.12     0.149 C 
HETATM   23  C8  MIQ B 502      10.797   0.787 -10.739  1.00144.10     0.187 C 
HETATM   24  O9  MIQ B 502      10.574  -0.514 -11.194  1.00148.65    -0.388 OA
HETATM   25  C10 MIQ B 502      10.070  -0.738 -12.478  1.00147.44     0.187 C 
HETATM   26  C11 MIQ B 502      10.407   0.262 -13.579  1.00144.08     0.149 C 
ENDBRANCH   5  21
TORSDOF 2
ENDMDL
MODEL 2
REMARK VINA RESULT:      -6.5      2.351      8.030
REMARK  2 active torsions:
REMARK  status: ('A' for Active; 'I' for Inactive)
REMARK    1  A    between atoms: C5_5  and  N6_21 
REMARK    2  A    between atoms: C18_14  and  N17_19 
ROOT
HETATM    1  O1  MIQ B 502      10.612   5.476 -13.368  1.00142.91    -0.171 OA
HETATM    2  C2  MIQ B 502       9.508   5.987 -14.054  1.00141.17     0.195 A 
HETATM    3  C3  MIQ B 502       9.180   7.497 -14.279  1.00141.71     0.035 A 
HETATM    4  C4  MIQ B 502       9.856   8.756 -13.886  1.00142.86     0.046 A 
HETATM    5  C5  MIQ B 502       9.302  10.010 -14.247  1.00139.53     0.031 A 
HETATM    6  C12 MIQ B 502       8.061  10.060 -15.008  1.00139.38     0.030 A 
HETATM    7  C13 MIQ B 502       7.413   8.853 -15.385  1.00141.18     0.019 A 
HETATM    8  C14 MIQ B 502       8.001   7.539 -15.005  1.00138.77     0.033 A 
HETATM    9  C15 MIQ B 502       7.595   6.047 -15.233  1.00142.10     0.195 A 
HETATM   10  N17 MIQ B 502       8.533   5.320 -14.648  1.00139.42    -0.288 N 
HETATM   11  O16 MIQ B 502       6.469   5.581 -15.914  1.00148.93    -0.171 OA
ENDROOT
BRANCH  10  12
HETATM   12  C18 MIQ B 502       8.475   3.870 -14.644  1.00139.82     0.187 C 
HETATM   13  C19 MIQ B 502       8.611   3.400 -13.190  1.00140.06     0.247 C 
HETATM   14  O25 MIQ B 502       7.911   3.871 -12.366  1.00143.95    -0.271 OA
HETATM   15  N20 MIQ B 502       9.571   2.388 -12.801  1.00140.02    -0.296 N 
HETATM   16  H13 MIQ B 502       9.654   2.095 -11.848  1.00142.77     0.171 HD
HETATM   17  C21 MIQ B 502      10.422   1.837 -13.824  1.00142.22     0.224 C 
HETATM   18  C22 MIQ B 502      10.833   2.771 -14.946  1.00139.52     0.106 C 
HETATM   19  O24 MIQ B 502      10.775   0.709 -13.792  1.00146.13    -0.273 OA
HETATM   20  C23 MIQ B 502       9.549   3.293 -15.565  1.00139.15     0.045 C 
ENDBRANCH  10  12
BRANCH   5  21
HETATM   21  N6  MIQ B 502       9.968  11.235 -13.844  1.00140.95    -0.377 N 
HETATM   22  C7  MIQ B 502      11.299  11.146 -13.269  1.00142.12     0.149 C 
HETATM   23  C8  MIQ B 502      11.597  12.316 -12.340  1.00144.10     0.187 C 
HETATM   24  O9  MIQ B 502      11.271  13.552 -12.901  1.00148.65    -0.388 OA
HETATM   25  C10 MIQ B 502      10.538  13.619 -14.089  1.00147.44     0.187 C 
HETATM   26  C11 MIQ B 502       9.536  12.510 -14.391  1.00144.08     0.149 C 
ENDBRANCH   5  21
TORSDOF 2
ENDMDL
MODEL 3
REMARK VINA RESULT:      -6.4      2.452      7.862
REMARK  2 active torsions:
REMARK  status: ('A' for Active; 'I' for Inactive)
REMARK    1  A    between atoms: C5_5  and  N6_21 
REMARK    2  A    between atoms: C18_14  and  N17_19 
ROOT
HETATM    1  O1  MIQ B 502       7.699   4.318 -12.519  1.00142.91    -0.171 OA
HETATM    2  C2  MIQ B 502       8.569   4.299 -13.612  1.00141.17     0.195 A 
HETATM    3  C3  MIQ B 502       9.294   5.535 -14.235  1.00141.71     0.035 A 
HETATM    4  C4  MIQ B 502       9.304   6.981 -13.910  1.00142.86     0.046 A 
HETATM    5  C5  MIQ B 502      10.084   7.882 -14.678  1.00139.53     0.031 A 
HETATM    6  C12 MIQ B 502      10.880   7.383 -15.790  1.00139.38     0.030 A 
HETATM    7  C13 MIQ B 502      10.872   5.997 -16.100  1.00141.18     0.019 A 
HETATM    8  C14 MIQ B 502      10.053   5.055 -15.290  1.00138.77     0.033 A 
HETATM    9  C15 MIQ B 502       9.798   3.512 -15.322  1.00142.10     0.195 A 
HETATM   10  N17 MIQ B 502       8.960   3.260 -14.330  1.00139.42    -0.288 N 
HETATM   11  O16 MIQ B 502      10.344   2.593 -16.219  1.00148.93    -0.171 OA
ENDROOT
BRANCH  10  12
HETATM   12  C18 MIQ B 502       8.483   1.915 -14.064  1.00139.82     0.187 C 
HETATM   13  C19 MIQ B 502       9.706   0.993 -13.986  1.00140.06     0.247 C 
HETATM   14  O25 MIQ B 502      10.606   1.287 -13.283  1.00143.95    -0.271 OA
HETATM   15  N20 MIQ B 502       9.785  -0.237 -14.748  1.00140.02    -0.296 N 
HETATM   16  H13 MIQ B 502      10.591  -0.827 -14.693  1.00142.77     0.171 HD
HETATM   17  C21 MIQ B 502       8.678  -0.570 -15.608  1.00142.22     0.224 C 
HETATM   18  C22 MIQ B 502       7.948   0.589 -16.258  1.00139.52     0.106 C 
HETATM   19  O24 MIQ B 502       8.354  -1.691 -15.791  1.00146.13    -0.273 OA
HETATM   20  C23 MIQ B 502       7.475   1.489 -15.130  1.00139.15     0.045 C 
ENDBRANCH  10  12
BRANCH   5  21
HETATM   21  N6  MIQ B 502      10.072   9.298 -14.358  1.00140.95    -0.377 N 
HETATM   22  C7  MIQ B 502      11.330  10.025 -14.379  1.00142.12     0.149 C 
HETATM   23  C8  MIQ B 502      11.304  11.233 -13.451  1.00144.10     0.187 C 
HETATM   24  O9  MIQ B 502      10.159  12.016 -13.609  1.00148.65    -0.388 OA
HETATM   25  C10 MIQ B 502       9.088  11.556 -14.380  1.00147.44     0.187 C 
HETATM   26  C11 MIQ B 502       8.835  10.054 -14.455  1.00144.08     0.149 C 
ENDBRANCH   5  21
TORSDOF 2
ENDMDL
MODEL 4
REMARK VINA RESULT:      -6.4      3.691      8.249
REMARK  2 active torsions:
REMARK  status: ('A' for Active; 'I' for Inactive)
REMARK    1  A    between atoms: C5_5  and  N6_21 
REMARK    2  A    between atoms: C18_14  and  N17_19 
ROOT
HETATM    1  O1  MIQ B 502      10.572   1.105 -16.837  1.00142.91    -0.171 OA
HETATM    2  C2  MIQ B 502      10.213   2.283 -16.179  1.00141.17     0.195 A 
HETATM    3  C3  MIQ B 502      10.804   3.705 -16.445  1.00141.71     0.035 A 
HETATM    4  C4  MIQ B 502      11.827   4.224 -17.383  1.00142.86     0.046 A 
HETATM    5  C5  MIQ B 502      12.158   5.602 -17.391  1.00139.53     0.031 A 
HETATM    6  C12 MIQ B 502      11.488   6.512 -16.473  1.00139.38     0.030 A 
HETATM    7  C13 MIQ B 502      10.506   6.015 -15.575  1.00141.18     0.019 A 
HETATM    8  C14 MIQ B 502      10.161   4.567 -15.572  1.00138.77     0.033 A 
HETATM    9  C15 MIQ B 502       9.165   3.676 -14.760  1.00142.10     0.195 A 
HETATM   10  N17 MIQ B 502       9.318   2.445 -15.219  1.00139.42    -0.288 N 
HETATM   11  O16 MIQ B 502       8.295   4.099 -13.753  1.00148.93    -0.171 OA
ENDROOT
BRANCH  10  12
HETATM   12  C18 MIQ B 502       8.556   1.335 -14.680  1.00139.82     0.187 C 
HETATM   13  C19 MIQ B 502       9.547   0.231 -14.292  1.00140.06     0.247 C 
HETATM   14  O25 MIQ B 502      10.473   0.502 -13.612  1.00143.95    -0.271 OA
HETATM   15  N20 MIQ B 502       9.377  -1.138 -14.732  1.00140.02    -0.296 N 
HETATM   16  H13 MIQ B 502      10.035  -1.848 -14.477  1.00142.77     0.171 HD
HETATM   17  C21 MIQ B 502       8.245  -1.441 -15.569  1.00142.22     0.224 C 
HETATM   18  C22 MIQ B 502       7.798  -0.356 -16.530  1.00139.52     0.106 C 
HETATM   19  O24 MIQ B 502       7.690  -2.483 -15.505  1.00146.13    -0.273 OA
HETATM   20  C23 MIQ B 502       7.505   0.872 -15.687  1.00139.15     0.045 C 
ENDBRANCH  10  12
BRANCH   5  21
HETATM   21  N6  MIQ B 502      13.173   6.094 -18.305  1.00140.95    -0.377 N 
HETATM   22  C7  MIQ B 502      14.373   5.300 -18.504  1.00142.12     0.149 C 
HETATM   23  C8  MIQ B 502      15.561   6.158 -18.918  1.00144.10     0.187 C 
HETATM   24  O9  MIQ B 502      15.256   7.047 -19.951  1.00148.65    -0.388 OA
HETATM   25  C10 MIQ B 502      13.931   7.241 -20.349  1.00147.44     0.187 C 
HETATM   26  C11 MIQ B 502      12.826   7.085 -19.309  1.00144.08     0.149 C 
ENDBRANCH   5  21
TORSDOF 2
ENDMDL
MODEL 5
REMARK VINA RESULT:      -6.3      4.241      6.243
REMARK  2 active torsions:
REMARK  status: ('A' for Active; 'I' for Inactive)
REMARK    1  A    between atoms: C5_5  and  N6_21 
REMARK    2  A    between atoms: C18_14  and  N17_19 
ROOT
HETATM    1  O1  MIQ B 502      12.077  11.048 -15.872  1.00142.91    -0.171 OA
HETATM    2  C2  MIQ B 502      11.450   9.852 -15.516  1.00141.17     0.195 A 
HETATM    3  C3  MIQ B 502      11.658   8.462 -16.199  1.00141.71     0.035 A 
HETATM    4  C4  MIQ B 502      12.500   7.997 -17.326  1.00142.86     0.046 A 
HETATM    5  C5  MIQ B 502      12.476   6.637 -17.726  1.00139.53     0.031 A 
HETATM    6  C12 MIQ B 502      11.618   5.693 -17.023  1.00139.38     0.030 A 
HETATM    7  C13 MIQ B 502      10.811   6.139 -15.941  1.00141.18     0.019 A 
HETATM    8  C14 MIQ B 502      10.843   7.567 -15.525  1.00138.77     0.033 A 
HETATM    9  C15 MIQ B 502      10.126   8.406 -14.418  1.00142.10     0.195 A 
HETATM   10  N17 MIQ B 502      10.573   9.643 -14.549  1.00139.42    -0.288 N 
HETATM   11  O16 MIQ B 502       9.199   7.938 -13.484  1.00148.93    -0.171 OA
ENDROOT
BRANCH  10  12
HETATM   12  C18 MIQ B 502      10.107  10.713 -13.687  1.00139.82     0.187 C 
HETATM   13  C19 MIQ B 502       9.515  11.810 -14.580  1.00140.06     0.247 C 
HETATM   14  O25 MIQ B 502       8.713  11.519 -15.395  1.00143.95    -0.271 OA
HETATM   15  N20 MIQ B 502       9.910  13.197 -14.449  1.00140.02    -0.296 N 
HETATM   16  H13 MIQ B 502       9.521  13.903 -15.044  1.00142.77     0.171 HD
HETATM   17  C21 MIQ B 502      10.899  13.526 -13.455  1.00142.22     0.224 C 
HETATM   18  C22 MIQ B 502      11.969  12.486 -13.188  1.00139.52     0.106 C 
HETATM   19  O24 MIQ B 502      10.872  14.555 -12.874  1.00146.13    -0.273 OA
HETATM   20  C23 MIQ B 502      11.243  11.212 -12.795  1.00139.15     0.045 C 
ENDBRANCH  10  12
BRANCH   5  21
HETATM   21  N6  MIQ B 502      13.294   6.198 -18.841  1.00140.95    -0.377 N 
HETATM   22  C7  MIQ B 502      13.800   7.197 -19.767  1.00142.12     0.149 C 
HETATM   23  C8  MIQ B 502      14.052   6.613 -21.151  1.00144.10     0.187 C 
HETATM   24  O9  MIQ B 502      14.771   5.416 -21.114  1.00148.65    -0.388 OA
HETATM   25  C10 MIQ B 502      14.994   4.763 -19.899  1.00147.44     0.187 C 
HETATM   26  C11 MIQ B 502      13.954   4.905 -18.792  1.00144.08     0.149 C 
ENDBRANCH   5  21
TORSDOF 2
ENDMDL
MODEL 6
REMARK VINA RESULT:      -6.3      2.780      4.756
REMARK  2 active torsions:
REMARK  status: ('A' for Active; 'I' for Inactive)
REMARK    1  A    between atoms: C5_5  and  N6_21 
REMARK    2  A    between atoms: C18_14  and  N17_19 
ROOT
HETATM    1  O1  MIQ B 502      11.861  10.511 -14.606  1.00142.91    -0.171 OA
HETATM    2  C2  MIQ B 502      10.482  10.314 -14.502  1.00141.17     0.195 A 
HETATM    3  C3  MIQ B 502       9.758   8.943 -14.315  1.00141.71     0.035 A 
HETATM    4  C4  MIQ B 502      10.237   7.545 -14.193  1.00142.86     0.046 A 
HETATM    5  C5  MIQ B 502       9.314   6.483 -14.026  1.00139.53     0.031 A 
HETATM    6  C12 MIQ B 502       7.887   6.768 -13.972  1.00139.38     0.030 A 
HETATM    7  C13 MIQ B 502       7.427   8.107 -14.087  1.00141.18     0.019 A 
HETATM    8  C14 MIQ B 502       8.402   9.219 -14.261  1.00138.77     0.033 A 
HETATM    9  C15 MIQ B 502       8.283  10.770 -14.415  1.00142.10     0.195 A 
HETATM   10  N17 MIQ B 502       9.521  11.221 -14.535  1.00139.42    -0.288 N 
HETATM   11  O16 MIQ B 502       7.107  11.522 -14.426  1.00148.93    -0.171 OA
ENDROOT
BRANCH  10  12
HETATM   12  C18 MIQ B 502       9.799  12.634 -14.714  1.00139.82     0.187 C 
HETATM   13  C19 MIQ B 502      10.567  12.796 -16.032  1.00140.06     0.247 C 
HETATM   14  O25 MIQ B 502      10.136  12.304 -17.014  1.00143.95    -0.271 OA
HETATM   15  N20 MIQ B 502      11.805  13.543 -16.107  1.00140.02    -0.296 N 
HETATM   16  H13 MIQ B 502      12.300  13.636 -16.972  1.00142.77     0.171 HD
HETATM   17  C21 MIQ B 502      12.316  14.126 -14.892  1.00142.22     0.224 C 
HETATM   18  C22 MIQ B 502      12.058  13.361 -13.609  1.00139.52     0.106 C 
HETATM   19  O24 MIQ B 502      12.902  15.153 -14.899  1.00146.13    -0.273 OA
HETATM   20  C23 MIQ B 502      10.554  13.185 -13.506  1.00139.15     0.045 C 
ENDBRANCH  10  12
BRANCH   5  21
HETATM   21  N6  MIQ B 502       9.796   5.118 -13.923  1.00140.95    -0.377 N 
HETATM   22  C7  MIQ B 502       9.130   4.213 -13.002  1.00142.12     0.149 C 
HETATM   23  C8  MIQ B 502      10.060   3.108 -12.518  1.00144.10     0.187 C 
HETATM   24  O9  MIQ B 502      10.760   2.493 -13.557  1.00148.65    -0.388 OA
HETATM   25  C10 MIQ B 502      10.741   3.038 -14.843  1.00147.44     0.187 C 
HETATM   26  C11 MIQ B 502      10.596   4.548 -14.994  1.00144.08     0.149 C 
ENDBRANCH   5  21
TORSDOF 2
ENDMDL
MODEL 7
REMARK VINA RESULT:      -6.3      2.358      8.217
REMARK  2 active torsions:
REMARK  status: ('A' for Active; 'I' for Inactive)
REMARK    1  A    between atoms: C5_5  and  N6_21 
REMARK    2  A    between atoms: C18_14  and  N17_19 
ROOT
HETATM    1  O1  MIQ B 502      10.643   3.732 -17.295  1.00142.91    -0.171 OA
HETATM    2  C2  MIQ B 502      10.219   3.889 -15.974  1.00141.17     0.195 A 
HETATM    3  C3  MIQ B 502      10.130   5.236 -15.188  1.00141.71     0.035 A 
HETATM    4  C4  MIQ B 502      10.430   6.644 -15.542  1.00142.86     0.046 A 
HETATM    5  C5  MIQ B 502      10.244   7.678 -14.589  1.00139.53     0.031 A 
HETATM    6  C12 MIQ B 502       9.754   7.353 -13.257  1.00139.38     0.030 A 
HETATM    7  C13 MIQ B 502       9.466   6.004 -12.918  1.00141.18     0.019 A 
HETATM    8  C14 MIQ B 502       9.661   4.923 -13.923  1.00138.77     0.033 A 
HETATM    9  C15 MIQ B 502       9.456   3.373 -13.924  1.00142.10     0.195 A 
HETATM   10  N17 MIQ B 502       9.807   2.959 -15.130  1.00139.42    -0.288 N 
HETATM   11  O16 MIQ B 502       8.998   2.590 -12.863  1.00148.93    -0.171 OA
ENDROOT
BRANCH  10  12
HETATM   12  C18 MIQ B 502       9.760   1.555 -15.492  1.00139.82     0.187 C 
HETATM   13  C19 MIQ B 502       8.353   1.035 -15.170  1.00140.06     0.247 C 
HETATM   14  O25 MIQ B 502       7.415   1.626 -15.573  1.00143.95    -0.271 OA
HETATM   15  N20 MIQ B 502       8.143  -0.166 -14.387  1.00140.02    -0.296 N 
HETATM   16  H13 MIQ B 502       7.220  -0.490 -14.178  1.00142.77     0.171 HD
HETATM   17  C21 MIQ B 502       9.304  -0.863 -13.898  1.00142.22     0.224 C 
HETATM   18  C22 MIQ B 502      10.506  -0.013 -13.532  1.00139.52     0.106 C 
HETATM   19  O24 MIQ B 502       9.319  -2.040 -13.792  1.00146.13    -0.273 OA
HETATM   20  C23 MIQ B 502      10.865   0.783 -14.773  1.00139.15     0.045 C 
ENDBRANCH  10  12
BRANCH   5  21
HETATM   21  N6  MIQ B 502      10.556   9.050 -14.944  1.00140.95    -0.377 N 
HETATM   22  C7  MIQ B 502      10.465  10.072 -13.916  1.00142.12     0.149 C 
HETATM   23  C8  MIQ B 502      10.177  11.447 -14.504  1.00144.10     0.187 C 
HETATM   24  O9  MIQ B 502      11.005  11.760 -15.584  1.00148.65    -0.388 OA
HETATM   25  C10 MIQ B 502      11.820  10.781 -16.158  1.00147.44     0.187 C 
HETATM   26  C11 MIQ B 502      11.350   9.331 -16.128  1.00144.08     0.149 C 
ENDBRANCH   5  21
TORSDOF 2
ENDMDL
MODEL 8
REMARK VINA RESULT:      -6.3      3.134      5.244
REMARK  2 active torsions:
REMARK  status: ('A' for Active; 'I' for Inactive)
REMARK    1  A    between atoms: C5_5  and  N6_21 
REMARK    2  A    between atoms: C18_14  and  N17_19 
ROOT
HETATM    1  O1  MIQ B 502      13.159   4.117 -18.249  1.00142.91    -0.171 OA
HETATM    2  C2  MIQ B 502      12.254   4.754 -17.397  1.00141.17     0.195 A 
HETATM    3  C3  MIQ B 502      11.235   4.053 -16.443  1.00141.71     0.035 A 
HETATM    4  C4  MIQ B 502      10.924   2.634 -16.150  1.00142.86     0.046 A 
HETATM    5  C5  MIQ B 502       9.919   2.301 -15.207  1.00139.53     0.031 A 
HETATM    6  C12 MIQ B 502       9.190   3.359 -14.523  1.00139.38     0.030 A 
HETATM    7  C13 MIQ B 502       9.489   4.720 -14.803  1.00141.18     0.019 A 
HETATM    8  C14 MIQ B 502      10.547   5.064 -15.792  1.00138.77     0.033 A 
HETATM    9  C15 MIQ B 502      11.142   6.400 -16.345  1.00142.10     0.195 A 
HETATM   10  N17 MIQ B 502      12.073   6.051 -17.217  1.00139.42    -0.288 N 
HETATM   11  O16 MIQ B 502      10.762   7.695 -15.988  1.00148.93    -0.171 OA
ENDROOT
BRANCH  10  12
HETATM   12  C18 MIQ B 502      12.835   7.046 -17.949  1.00139.82     0.187 C 
HETATM   13  C19 MIQ B 502      12.803   6.660 -19.434  1.00140.06     0.247 C 
HETATM   14  O25 MIQ B 502      11.766   6.435 -19.948  1.00143.95    -0.271 OA
HETATM   15  N20 MIQ B 502      14.013   6.571 -20.226  1.00140.02    -0.296 N 
HETATM   16  H13 MIQ B 502      13.979   6.312 -21.192  1.00142.77     0.171 HD
HETATM   17  C21 MIQ B 502      15.268   6.841 -19.573  1.00142.22     0.224 C 
HETATM   18  C22 MIQ B 502      15.378   6.440 -18.115  1.00139.52     0.106 C 
HETATM   19  O24 MIQ B 502      16.164   7.355 -20.147  1.00146.13    -0.273 OA
HETATM   20  C23 MIQ B 502      14.252   7.150 -17.386  1.00139.15     0.045 C 
ENDBRANCH  10  12
BRANCH   5  21
HETATM   21  N6  MIQ B 502       9.614   0.907 -14.941  1.00140.95    -0.377 N 
HETATM   22  C7  MIQ B 502       9.868   0.382 -13.610  1.00142.12     0.149 C 
HETATM   23  C8  MIQ B 502      10.129  -1.119 -13.631  1.00144.10     0.187 C 
HETATM   24  O9  MIQ B 502       9.186  -1.824 -14.380  1.00148.65    -0.388 OA
HETATM   25  C10 MIQ B 502       8.272  -1.144 -15.189  1.00147.44     0.187 C 
HETATM   26  C11 MIQ B 502       8.690   0.189 -15.802  1.00144.08     0.149 C 
ENDBRANCH   5  21
TORSDOF 2
ENDMDL
MODEL 9
REMARK VINA RESULT:      -6.2      1.350      1.532
REMARK  2 active torsions:
REMARK  status: ('A' for Active; 'I' for Inactive)
REMARK    1  A    between atoms: C5_5  and  N6_21 
REMARK    2  A    between atoms: C18_14  and  N17_19 
ROOT
HETATM    1  O1  MIQ B 502       7.857   6.466 -14.194  1.00142.91    -0.171 OA
HETATM    2  C2  MIQ B 502       8.953   6.233 -15.027  1.00141.17     0.195 A 
HETATM    3  C3  MIQ B 502       9.621   4.849 -15.309  1.00141.71     0.035 A 
HETATM    4  C4  MIQ B 502       9.344   3.470 -14.841  1.00142.86     0.046 A 
HETATM    5  C5  MIQ B 502      10.145   2.388 -15.285  1.00139.53     0.031 A 
HETATM    6  C12 MIQ B 502      11.245   2.634 -16.207  1.00139.38     0.030 A 
HETATM    7  C13 MIQ B 502      11.510   3.956 -16.656  1.00141.18     0.019 A 
HETATM    8  C14 MIQ B 502      10.664   5.088 -16.188  1.00138.77     0.033 A 
HETATM    9  C15 MIQ B 502      10.644   6.629 -16.455  1.00142.10     0.195 A 
HETATM   10  N17 MIQ B 502       9.639   7.109 -15.741  1.00139.42    -0.288 N 
HETATM   11  O16 MIQ B 502      11.514   7.346 -17.277  1.00148.93    -0.171 OA
ENDROOT
BRANCH  10  12
HETATM   12  C18 MIQ B 502       9.327   8.526 -15.731  1.00139.82     0.187 C 
HETATM   13  C19 MIQ B 502       9.343   8.999 -14.272  1.00140.06     0.247 C 
HETATM   14  O25 MIQ B 502      10.276   8.749 -13.596  1.00143.95    -0.271 OA
HETATM   15  N20 MIQ B 502       8.243   9.750 -13.701  1.00140.02    -0.296 N 
HETATM   16  H13 MIQ B 502       8.263  10.047 -12.745  1.00142.77     0.171 HD
HETATM   17  C21 MIQ B 502       7.111  10.034 -14.544  1.00142.22     0.224 C 
HETATM   18  C22 MIQ B 502       6.754   8.986 -15.581  1.00139.52     0.106 C 
HETATM   19  O24 MIQ B 502       6.494  11.036 -14.434  1.00146.13    -0.273 OA
HETATM   20  C23 MIQ B 502       7.994   8.782 -16.432  1.00139.15     0.045 C 
ENDBRANCH  10  12
BRANCH   5  21
HETATM   21  N6  MIQ B 502       9.872   1.045 -14.808  1.00140.95    -0.377 N 
HETATM   22  C7  MIQ B 502       9.928   0.792 -13.378  1.00142.12     0.149 C 
HETATM   23  C8  MIQ B 502      10.265  -0.662 -13.071  1.00144.10     0.187 C 
HETATM   24  O9  MIQ B 502       9.496  -1.565 -13.808  1.00148.65    -0.388 OA
HETATM   25  C10 MIQ B 502       8.695  -1.118 -14.862  1.00147.44     0.187 C 
HETATM   26  C11 MIQ B 502       9.141   0.111 -15.646  1.00144.08     0.149 C 
ENDBRANCH   5  21
TORSDOF 2
ENDMDL
