MODEL 1
REMARK VINA RESULT:      -6.5      0.000      0.000
REMARK  2 active torsions:
REMARK  status: ('A' for Active; 'I' for Inactive)
REMARK    1  A    between atoms: C5_5  and  N6_21 
REMARK    2  A    between atoms: C18_14  and  N17_19 
ROOT
HETATM    1  O1  MIQ B 502     -19.221   1.920  -6.770  1.00142.91    -0.171 OA
HETATM    2  C2  MIQ B 502     -18.226   1.194  -6.111  1.00141.17     0.195 A 
HETATM    3  C3  MIQ B 502     -16.812   0.844  -6.676  1.00141.71     0.035 A 
HETATM    4  C4  MIQ B 502     -16.126   1.136  -7.956  1.00142.86     0.046 A 
HETATM    5  C5  MIQ B 502     -14.805   0.674  -8.183  1.00139.53     0.031 A 
HETATM    6  C12 MIQ B 502     -14.120  -0.091  -7.151  1.00139.38     0.030 A 
HETATM    7  C13 MIQ B 502     -14.777  -0.370  -5.922  1.00141.18     0.019 A 
HETATM    8  C14 MIQ B 502     -16.163   0.120  -5.689  1.00138.77     0.033 A 
HETATM    9  C15 MIQ B 502     -17.180   0.020  -4.505  1.00142.10     0.195 A 
HETATM   10  N17 MIQ B 502     -18.264   0.666  -4.900  1.00139.42    -0.288 N 
HETATM   11  O16 MIQ B 502     -16.978  -0.624  -3.283  1.00148.93    -0.171 OA
ENDROOT
BRANCH  10  12
HETATM   12  C18 MIQ B 502     -19.437   0.766  -4.051  1.00139.82     0.187 C 
HETATM   13  C19 MIQ B 502     -18.964   1.151  -2.643  1.00140.06     0.247 C 
HETATM   14  O25 MIQ B 502     -18.244   2.076  -2.511  1.00143.95    -0.271 OA
HETATM   15  N20 MIQ B 502     -19.382   0.413  -1.469  1.00140.02    -0.296 N 
HETATM   16  H13 MIQ B 502     -19.060   0.671  -0.556  1.00142.77     0.171 HD
HETATM   17  C21 MIQ B 502     -20.252  -0.718  -1.658  1.00142.22     0.224 C 
HETATM   18  C22 MIQ B 502     -20.065  -1.517  -2.933  1.00139.52     0.106 C 
HETATM   19  O24 MIQ B 502     -21.075  -1.005  -0.859  1.00146.13    -0.273 OA
HETATM   20  C23 MIQ B 502     -20.230  -0.540  -4.082  1.00139.15     0.045 C 
ENDBRANCH  10  12
BRANCH   5  21
HETATM   21  N6  MIQ B 502     -14.150   0.954  -9.448  1.00140.95    -0.377 N 
HETATM   22  C7  MIQ B 502     -13.334  -0.085 -10.052  1.00142.12     0.149 C 
HETATM   23  C8  MIQ B 502     -12.246   0.495 -10.948  1.00144.10     0.187 C 
HETATM   24  O9  MIQ B 502     -12.728   1.465 -11.830  1.00148.65    -0.388 OA
HETATM   25  C10 MIQ B 502     -14.025   1.967 -11.690  1.00147.44     0.187 C 
HETATM   26  C11 MIQ B 502     -14.636   2.030 -10.294  1.00144.08     0.149 C 
ENDBRANCH   5  21
TORSDOF 2
ENDMDL
MODEL 2
REMARK VINA RESULT:      -6.1      7.055     11.387
REMARK  2 active torsions:
REMARK  status: ('A' for Active; 'I' for Inactive)
REMARK    1  A    between atoms: C5_5  and  N6_21 
REMARK    2  A    between atoms: C18_14  and  N17_19 
ROOT
HETATM    1  O1  MIQ B 502     -27.408  -2.983   0.151  1.00142.91    -0.171 OA
HETATM    2  C2  MIQ B 502     -26.508  -2.313   0.983  1.00141.17     0.195 A 
HETATM    3  C3  MIQ B 502     -25.064  -1.856   0.602  1.00141.71     0.035 A 
HETATM    4  C4  MIQ B 502     -24.255  -1.963  -0.635  1.00142.86     0.046 A 
HETATM    5  C5  MIQ B 502     -22.939  -1.436  -0.678  1.00139.53     0.031 A 
HETATM    6  C12 MIQ B 502     -22.382  -0.785   0.499  1.00139.38     0.030 A 
HETATM    7  C13 MIQ B 502     -23.159  -0.681   1.685  1.00141.18     0.019 A 
HETATM    8  C14 MIQ B 502     -24.540  -1.234   1.724  1.00138.77     0.033 A 
HETATM    9  C15 MIQ B 502     -25.665  -1.306   2.807  1.00142.10     0.195 A 
HETATM   10  N17 MIQ B 502     -26.683  -1.929   2.236  1.00139.42    -0.288 N 
HETATM   11  O16 MIQ B 502     -25.602  -0.814   4.112  1.00148.93    -0.171 OA
ENDROOT
BRANCH  10  12
HETATM   12  C18 MIQ B 502     -27.913  -2.191   2.960  1.00139.82     0.187 C 
HETATM   13  C19 MIQ B 502     -28.435  -0.853   3.496  1.00140.06     0.247 C 
HETATM   14  O25 MIQ B 502     -28.545   0.060   2.756  1.00143.95    -0.271 OA
HETATM   15  N20 MIQ B 502     -28.803  -0.678   4.886  1.00140.02    -0.296 N 
HETATM   16  H13 MIQ B 502     -29.136   0.203   5.224  1.00142.77     0.171 HD
HETATM   17  C21 MIQ B 502     -28.650  -1.803   5.771  1.00142.22     0.224 C 
HETATM   18  C22 MIQ B 502     -27.493  -2.742   5.486  1.00139.52     0.106 C 
HETATM   19  O24 MIQ B 502     -29.393  -1.987   6.671  1.00146.13    -0.273 OA
HETATM   20  C23 MIQ B 502     -27.673  -3.226   4.058  1.00139.15     0.045 C 
ENDBRANCH  10  12
BRANCH   5  21
HETATM   21  N6  MIQ B 502     -22.152  -1.561  -1.891  1.00140.95    -0.377 N 
HETATM   22  C7  MIQ B 502     -20.804  -1.020  -1.903  1.00142.12     0.149 C 
HETATM   23  C8  MIQ B 502     -20.359  -0.635  -3.308  1.00144.10     0.187 C 
HETATM   24  O9  MIQ B 502     -20.609  -1.634  -4.251  1.00148.65    -0.388 OA
HETATM   25  C10 MIQ B 502     -21.396  -2.739  -3.918  1.00147.44     0.187 C 
HETATM   26  C11 MIQ B 502     -22.503  -2.561  -2.884  1.00144.08     0.149 C 
ENDBRANCH   5  21
TORSDOF 2
ENDMDL
MODEL 3
REMARK VINA RESULT:      -6.0     22.674     24.859
REMARK  2 active torsions:
REMARK  status: ('A' for Active; 'I' for Inactive)
REMARK    1  A    between atoms: C5_5  and  N6_21 
REMARK    2  A    between atoms: C18_14  and  N17_19 
ROOT
HETATM    1  O1  MIQ B 502     -34.200   9.952   7.738  1.00142.91    -0.171 OA
HETATM    2  C2  MIQ B 502     -34.425   8.956   8.692  1.00141.17     0.195 A 
HETATM    3  C3  MIQ B 502     -34.966   7.518   8.413  1.00141.71     0.035 A 
HETATM    4  C4  MIQ B 502     -35.376   6.804   7.180  1.00142.86     0.046 A 
HETATM    5  C5  MIQ B 502     -35.836   5.465   7.247  1.00139.53     0.031 A 
HETATM    6  C12 MIQ B 502     -35.907   4.788   8.534  1.00139.38     0.030 A 
HETATM    7  C13 MIQ B 502     -35.514   5.472   9.716  1.00141.18     0.019 A 
HETATM    8  C14 MIQ B 502     -35.028   6.877   9.640  1.00138.77     0.033 A 
HETATM    9  C15 MIQ B 502     -34.522   7.923  10.685  1.00142.10     0.195 A 
HETATM   10  N17 MIQ B 502     -34.228   9.014   9.997  1.00139.42    -0.288 N 
HETATM   11  O16 MIQ B 502     -34.408   7.739  12.064  1.00148.93    -0.171 OA
ENDROOT
BRANCH  10  12
HETATM   12  C18 MIQ B 502     -33.736  10.213  10.652  1.00139.82     0.187 C 
HETATM   13  C19 MIQ B 502     -34.598  11.390  10.181  1.00140.06     0.247 C 
HETATM   14  O25 MIQ B 502     -35.773  11.305  10.243  1.00143.95    -0.271 OA
HETATM   15  N20 MIQ B 502     -34.010  12.609   9.665  1.00140.02    -0.296 N 
HETATM   16  H13 MIQ B 502     -34.584  13.368   9.354  1.00142.77     0.171 HD
HETATM   17  C21 MIQ B 502     -32.574  12.685   9.588  1.00142.22     0.224 C 
HETATM   18  C22 MIQ B 502     -31.838  11.394   9.287  1.00139.52     0.106 C 
HETATM   19  O24 MIQ B 502     -31.999  13.704   9.757  1.00146.13    -0.273 OA
HETATM   20  C23 MIQ B 502     -32.248  10.404  10.362  1.00139.15     0.045 C 
ENDBRANCH  10  12
BRANCH   5  21
HETATM   21  N6  MIQ B 502     -36.248   4.783   6.034  1.00140.95    -0.377 N 
HETATM   22  C7  MIQ B 502     -36.771   5.576   4.934  1.00142.12     0.149 C 
HETATM   23  C8  MIQ B 502     -37.719   4.772   4.054  1.00144.10     0.187 C 
HETATM   24  O9  MIQ B 502     -37.204   3.524   3.698  1.00148.65    -0.388 OA
HETATM   25  C10 MIQ B 502     -36.046   3.036   4.309  1.00147.44     0.187 C 
HETATM   26  C11 MIQ B 502     -35.751   3.448   5.747  1.00144.08     0.149 C 
ENDBRANCH   5  21
TORSDOF 2
ENDMDL
MODEL 4
REMARK VINA RESULT:      -6.0     22.574     24.856
REMARK  2 active torsions:
REMARK  status: ('A' for Active; 'I' for Inactive)
REMARK    1  A    between atoms: C5_5  and  N6_21 
REMARK    2  A    between atoms: C18_14  and  N17_19 
ROOT
HETATM    1  O1  MIQ B 502     -34.153  10.098   7.732  1.00142.91    -0.171 OA
HETATM    2  C2  MIQ B 502     -34.401   9.079   8.654  1.00141.17     0.195 A 
HETATM    3  C3  MIQ B 502     -34.971   7.661   8.330  1.00141.71     0.035 A 
HETATM    4  C4  MIQ B 502     -35.392   6.995   7.075  1.00142.86     0.046 A 
HETATM    5  C5  MIQ B 502     -35.880   5.664   7.099  1.00139.53     0.031 A 
HETATM    6  C12 MIQ B 502     -35.969   4.950   8.364  1.00139.38     0.030 A 
HETATM    7  C13 MIQ B 502     -35.565   5.588   9.568  1.00141.18     0.019 A 
HETATM    8  C14 MIQ B 502     -35.050   6.984   9.536  1.00138.77     0.033 A 
HETATM    9  C15 MIQ B 502     -34.525   7.987  10.615  1.00142.10     0.195 A 
HETATM   10  N17 MIQ B 502     -34.206   9.092   9.962  1.00139.42    -0.288 N 
HETATM   11  O16 MIQ B 502     -34.419   7.758  11.988  1.00148.93    -0.171 OA
ENDROOT
BRANCH  10  12
HETATM   12  C18 MIQ B 502     -33.691  10.259  10.653  1.00139.82     0.187 C 
HETATM   13  C19 MIQ B 502     -34.540  11.465  10.232  1.00140.06     0.247 C 
HETATM   14  O25 MIQ B 502     -35.715  11.395  10.301  1.00143.95    -0.271 OA
HETATM   15  N20 MIQ B 502     -33.938  12.693   9.755  1.00140.02    -0.296 N 
HETATM   16  H13 MIQ B 502     -34.503  13.471   9.476  1.00142.77     0.171 HD
HETATM   17  C21 MIQ B 502     -32.501  12.751   9.669  1.00142.22     0.224 C 
HETATM   18  C22 MIQ B 502     -31.787  11.460   9.316  1.00139.52     0.106 C 
HETATM   19  O24 MIQ B 502     -31.910  13.755   9.869  1.00146.13    -0.273 OA
HETATM   20  C23 MIQ B 502     -32.203  10.439  10.359  1.00139.15     0.045 C 
ENDBRANCH  10  12
BRANCH   5  21
HETATM   21  N6  MIQ B 502     -36.302   5.028   5.864  1.00140.95    -0.377 N 
HETATM   22  C7  MIQ B 502     -36.113   3.595   5.721  1.00142.12     0.149 C 
HETATM   23  C8  MIQ B 502     -35.975   3.183   4.261  1.00144.10     0.187 C 
HETATM   24  O9  MIQ B 502     -36.961   3.740   3.443  1.00148.65    -0.388 OA
HETATM   25  C10 MIQ B 502     -37.804   4.741   3.933  1.00147.44     0.187 C 
HETATM   26  C11 MIQ B 502     -37.268   5.687   5.002  1.00144.08     0.149 C 
ENDBRANCH   5  21
TORSDOF 2
ENDMDL
MODEL 5
REMARK VINA RESULT:      -5.9      1.315      2.464
REMARK  2 active torsions:
REMARK  status: ('A' for Active; 'I' for Inactive)
REMARK    1  A    between atoms: C5_5  and  N6_21 
REMARK    2  A    between atoms: C18_14  and  N17_19 
ROOT
HETATM    1  O1  MIQ B 502     -17.813  -0.560  -4.391  1.00142.91    -0.171 OA
HETATM    2  C2  MIQ B 502     -18.265   0.448  -5.245  1.00141.17     0.195 A 
HETATM    3  C3  MIQ B 502     -17.625   0.855  -6.610  1.00141.71     0.035 A 
HETATM    4  C4  MIQ B 502     -16.455   0.361  -7.375  1.00142.86     0.046 A 
HETATM    5  C5  MIQ B 502     -16.113   0.947  -8.620  1.00139.53     0.031 A 
HETATM    6  C12 MIQ B 502     -16.918   2.038  -9.150  1.00139.38     0.030 A 
HETATM    7  C13 MIQ B 502     -18.040   2.511  -8.418  1.00141.18     0.019 A 
HETATM    8  C14 MIQ B 502     -18.395   1.891  -7.112  1.00138.77     0.033 A 
HETATM    9  C15 MIQ B 502     -19.521   2.128  -6.053  1.00142.10     0.195 A 
HETATM   10  N17 MIQ B 502     -19.305   1.248  -5.089  1.00139.42    -0.288 N 
HETATM   11  O16 MIQ B 502     -20.541   3.078  -6.116  1.00148.93    -0.171 OA
ENDROOT
BRANCH  10  12
HETATM   12  C18 MIQ B 502     -20.158   1.186  -3.916  1.00139.82     0.187 C 
HETATM   13  C19 MIQ B 502     -19.251   1.167  -2.679  1.00140.06     0.247 C 
HETATM   14  O25 MIQ B 502     -18.410   1.987  -2.570  1.00143.95    -0.271 OA
HETATM   15  N20 MIQ B 502     -19.402   0.173  -1.637  1.00140.02    -0.296 N 
HETATM   16  H13 MIQ B 502     -18.799   0.168  -0.838  1.00142.77     0.171 HD
HETATM   17  C21 MIQ B 502     -20.429  -0.823  -1.799  1.00142.22     0.224 C 
HETATM   18  C22 MIQ B 502     -20.725  -1.273  -3.216  1.00139.52     0.106 C 
HETATM   19  O24 MIQ B 502     -21.015  -1.263  -0.871  1.00146.13    -0.273 OA
HETATM   20  C23 MIQ B 502     -21.088  -0.023  -3.998  1.00139.15     0.045 C 
ENDBRANCH  10  12
BRANCH   5  21
HETATM   21  N6  MIQ B 502     -14.956   0.463  -9.351  1.00140.95    -0.377 N 
HETATM   22  C7  MIQ B 502     -13.713   1.210  -9.257  1.00142.12     0.149 C 
HETATM   23  C8  MIQ B 502     -12.838   1.015 -10.488  1.00144.10     0.187 C 
HETATM   24  O9  MIQ B 502     -12.703  -0.326 -10.852  1.00148.65    -0.388 OA
HETATM   25  C10 MIQ B 502     -13.499  -1.306 -10.254  1.00147.44     0.187 C 
HETATM   26  C11 MIQ B 502     -14.899  -0.922  -9.785  1.00144.08     0.149 C 
ENDBRANCH   5  21
TORSDOF 2
ENDMDL
MODEL 6
REMARK VINA RESULT:      -5.9      3.576      7.646
REMARK  2 active torsions:
REMARK  status: ('A' for Active; 'I' for Inactive)
REMARK    1  A    between atoms: C5_5  and  N6_21 
REMARK    2  A    between atoms: C18_14  and  N17_19 
ROOT
HETATM    1  O1  MIQ B 502     -18.410  -2.492  -7.660  1.00142.91    -0.171 OA
HETATM    2  C2  MIQ B 502     -18.046  -1.570  -6.676  1.00141.17     0.195 A 
HETATM    3  C3  MIQ B 502     -18.991  -0.533  -5.989  1.00141.71     0.035 A 
HETATM    4  C4  MIQ B 502     -20.432  -0.216  -6.132  1.00142.86     0.046 A 
HETATM    5  C5  MIQ B 502     -21.022   0.807  -5.348  1.00139.53     0.031 A 
HETATM    6  C12 MIQ B 502     -20.208   1.549  -4.397  1.00139.38     0.030 A 
HETATM    7  C13 MIQ B 502     -18.827   1.245  -4.258  1.00141.18     0.019 A 
HETATM    8  C14 MIQ B 502     -18.213   0.168  -5.082  1.00138.77     0.033 A 
HETATM    9  C15 MIQ B 502     -16.777  -0.438  -5.206  1.00142.10     0.195 A 
HETATM   10  N17 MIQ B 502     -16.858  -1.385  -6.125  1.00139.42    -0.288 N 
HETATM   11  O16 MIQ B 502     -15.642  -0.050  -4.491  1.00148.93    -0.171 OA
ENDROOT
BRANCH  10  12
HETATM   12  C18 MIQ B 502     -15.697  -2.162  -6.518  1.00139.82     0.187 C 
HETATM   13  C19 MIQ B 502     -15.000  -2.641  -5.238  1.00140.06     0.247 C 
HETATM   14  O25 MIQ B 502     -15.635  -3.188  -4.408  1.00143.95    -0.271 OA
HETATM   15  N20 MIQ B 502     -13.581  -2.447  -5.023  1.00140.02    -0.296 N 
HETATM   16  H13 MIQ B 502     -13.140  -2.759  -4.180  1.00142.77     0.171 HD
HETATM   17  C21 MIQ B 502     -12.830  -1.768  -6.047  1.00142.22     0.224 C 
HETATM   18  C22 MIQ B 502     -13.556  -0.683  -6.818  1.00139.52     0.106 C 
HETATM   19  O24 MIQ B 502     -11.705  -2.048  -6.276  1.00146.13    -0.273 OA
HETATM   20  C23 MIQ B 502     -14.786  -1.335  -7.424  1.00139.15     0.045 C 
ENDBRANCH  10  12
BRANCH   5  21
HETATM   21  N6  MIQ B 502     -22.431   1.116  -5.510  1.00140.95    -0.377 N 
HETATM   22  C7  MIQ B 502     -23.385   0.512  -4.595  1.00142.12     0.149 C 
HETATM   23  C8  MIQ B 502     -24.767   0.377  -5.222  1.00144.10     0.187 C 
HETATM   24  O9  MIQ B 502     -25.198   1.551  -5.844  1.00148.65    -0.388 OA
HETATM   25  C10 MIQ B 502     -24.314   2.615  -6.038  1.00147.44     0.187 C 
HETATM   26  C11 MIQ B 502     -22.834   2.306  -6.240  1.00144.08     0.149 C 
ENDBRANCH   5  21
TORSDOF 2
ENDMDL
MODEL 7
REMARK VINA RESULT:      -5.9      2.920      8.501
REMARK  2 active torsions:
REMARK  status: ('A' for Active; 'I' for Inactive)
REMARK    1  A    between atoms: C5_5  and  N6_21 
REMARK    2  A    between atoms: C18_14  and  N17_19 
ROOT
HETATM    1  O1  MIQ B 502     -16.183  -2.107  -4.687  1.00142.91    -0.171 OA
HETATM    2  C2  MIQ B 502     -16.938  -1.021  -5.136  1.00141.17     0.195 A 
HETATM    3  C3  MIQ B 502     -18.331  -0.577  -4.587  1.00141.71     0.035 A 
HETATM    4  C4  MIQ B 502     -19.221  -1.100  -3.523  1.00142.86     0.046 A 
HETATM    5  C5  MIQ B 502     -20.458  -0.465  -3.248  1.00139.53     0.031 A 
HETATM    6  C12 MIQ B 502     -20.856   0.707  -4.015  1.00139.38     0.030 A 
HETATM    7  C13 MIQ B 502     -20.003   1.209  -5.034  1.00141.18     0.019 A 
HETATM    8  C14 MIQ B 502     -18.704   0.539  -5.317  1.00138.77     0.033 A 
HETATM    9  C15 MIQ B 502     -17.534   0.791  -6.324  1.00142.10     0.195 A 
HETATM   10  N17 MIQ B 502     -16.641  -0.155  -6.090  1.00139.42    -0.288 N 
HETATM   11  O16 MIQ B 502     -17.456   1.809  -7.277  1.00148.93    -0.171 OA
ENDROOT
BRANCH  10  12
HETATM   12  C18 MIQ B 502     -15.413  -0.245  -6.859  1.00139.82     0.187 C 
HETATM   13  C19 MIQ B 502     -15.328  -1.662  -7.440  1.00140.06     0.247 C 
HETATM   14  O25 MIQ B 502     -16.250  -2.098  -8.031  1.00143.95    -0.271 OA
HETATM   15  N20 MIQ B 502     -14.141  -2.479  -7.289  1.00140.02    -0.296 N 
HETATM   16  H13 MIQ B 502     -14.101  -3.405  -7.667  1.00142.77     0.171 HD
HETATM   17  C21 MIQ B 502     -13.032  -1.928  -6.554  1.00142.22     0.224 C 
HETATM   18  C22 MIQ B 502     -13.371  -0.999  -5.404  1.00139.52     0.106 C 
HETATM   19  O24 MIQ B 502     -11.914  -2.185  -6.838  1.00146.13    -0.273 OA
HETATM   20  C23 MIQ B 502     -14.212   0.121  -5.987  1.00139.15     0.045 C 
ENDBRANCH  10  12
BRANCH   5  21
HETATM   21  N6  MIQ B 502     -21.326  -0.997  -2.213  1.00140.95    -0.377 N 
HETATM   22  C7  MIQ B 502     -20.846  -1.008  -0.842  1.00142.12     0.149 C 
HETATM   23  C8  MIQ B 502     -21.502  -2.109  -0.018  1.00144.10     0.187 C 
HETATM   24  O9  MIQ B 502     -22.891  -2.143  -0.165  1.00148.65    -0.388 OA
HETATM   25  C10 MIQ B 502     -23.517  -1.379  -1.153  1.00147.44     0.187 C 
HETATM   26  C11 MIQ B 502     -22.757  -1.092  -2.444  1.00144.08     0.149 C 
ENDBRANCH   5  21
TORSDOF 2
ENDMDL
MODEL 8
REMARK VINA RESULT:      -5.9     12.921     16.544
REMARK  2 active torsions:
REMARK  status: ('A' for Active; 'I' for Inactive)
REMARK    1  A    between atoms: C5_5  and  N6_21 
REMARK    2  A    between atoms: C18_14  and  N17_19 
ROOT
HETATM    1  O1  MIQ B 502      -8.500  12.878  -9.257  1.00142.91    -0.171 OA
HETATM    2  C2  MIQ B 502      -9.508  12.830 -10.223  1.00141.17     0.195 A 
HETATM    3  C3  MIQ B 502     -10.387  14.031 -10.698  1.00141.71     0.035 A 
HETATM    4  C4  MIQ B 502     -10.440  15.465 -10.327  1.00142.86     0.046 A 
HETATM    5  C5  MIQ B 502     -11.372  16.333 -10.950  1.00139.53     0.031 A 
HETATM    6  C12 MIQ B 502     -12.280  15.811 -11.961  1.00139.38     0.030 A 
HETATM    7  C13 MIQ B 502     -12.229  14.437 -12.318  1.00141.18     0.019 A 
HETATM    8  C14 MIQ B 502     -11.248  13.531 -11.661  1.00138.77     0.033 A 
HETATM    9  C15 MIQ B 502     -10.900  12.011 -11.786  1.00142.10     0.195 A 
HETATM   10  N17 MIQ B 502      -9.919  11.790 -10.927  1.00139.42    -0.288 N 
HETATM   11  O16 MIQ B 502     -11.507  11.082 -12.632  1.00148.93    -0.171 OA
ENDROOT
BRANCH  10  12
HETATM   12  C18 MIQ B 502      -9.345  10.468 -10.757  1.00139.82     0.187 C 
HETATM   13  C19 MIQ B 502      -8.910   9.966 -12.139  1.00140.06     0.247 C 
HETATM   14  O25 MIQ B 502      -8.233  10.656 -12.816  1.00143.95    -0.271 OA
HETATM   15  N20 MIQ B 502      -9.301   8.663 -12.637  1.00140.02    -0.296 N 
HETATM   16  H13 MIQ B 502      -9.016   8.350 -13.544  1.00142.77     0.171 HD
HETATM   17  C21 MIQ B 502     -10.136   7.843 -11.797  1.00142.22     0.224 C 
HETATM   18  C22 MIQ B 502     -11.139   8.567 -10.920  1.00139.52     0.106 C 
HETATM   19  O24 MIQ B 502     -10.039   6.665 -11.791  1.00146.13    -0.273 OA
HETATM   20  C23 MIQ B 502     -10.344   9.539 -10.068  1.00139.15     0.045 C 
ENDBRANCH  10  12
BRANCH   5  21
HETATM   21  N6  MIQ B 502     -11.422  17.732 -10.567  1.00140.95    -0.377 N 
HETATM   22  C7  MIQ B 502     -10.189  18.388 -10.170  1.00142.12     0.149 C 
HETATM   23  C8  MIQ B 502     -10.444  19.553  -9.222  1.00144.10     0.187 C 
HETATM   24  O9  MIQ B 502     -11.456  20.405  -9.669  1.00148.65    -0.388 OA
HETATM   25  C10 MIQ B 502     -12.263  20.040 -10.750  1.00147.44     0.187 C 
HETATM   26  C11 MIQ B 502     -12.541  18.559 -10.984  1.00144.08     0.149 C 
ENDBRANCH   5  21
TORSDOF 2
ENDMDL
MODEL 9
REMARK VINA RESULT:      -5.8      1.788      2.715
REMARK  2 active torsions:
REMARK  status: ('A' for Active; 'I' for Inactive)
REMARK    1  A    between atoms: C5_5  and  N6_21 
REMARK    2  A    between atoms: C18_14  and  N17_19 
ROOT
HETATM    1  O1  MIQ B 502     -17.450   1.195  -6.059  1.00142.91    -0.171 OA
HETATM    2  C2  MIQ B 502     -16.387   0.309  -6.247  1.00141.17     0.195 A 
HETATM    3  C3  MIQ B 502     -15.352   0.344  -7.416  1.00141.71     0.035 A 
HETATM    4  C4  MIQ B 502     -15.168   1.233  -8.587  1.00142.86     0.046 A 
HETATM    5  C5  MIQ B 502     -14.105   1.007  -9.498  1.00139.53     0.031 A 
HETATM    6  C12 MIQ B 502     -13.190  -0.104  -9.280  1.00139.38     0.030 A 
HETATM    7  C13 MIQ B 502     -13.366  -0.955  -8.156  1.00141.18     0.019 A 
HETATM    8  C14 MIQ B 502     -14.482  -0.712  -7.202  1.00138.77     0.033 A 
HETATM    9  C15 MIQ B 502     -14.979  -1.407  -5.892  1.00142.10     0.195 A 
HETATM   10  N17 MIQ B 502     -16.036  -0.718  -5.493  1.00139.42    -0.288 N 
HETATM   11  O16 MIQ B 502     -14.419  -2.527  -5.276  1.00148.93    -0.171 OA
ENDROOT
BRANCH  10  12
HETATM   12  C18 MIQ B 502     -16.775  -1.091  -4.301  1.00139.82     0.187 C 
HETATM   13  C19 MIQ B 502     -18.270  -1.005  -4.633  1.00140.06     0.247 C 
HETATM   14  O25 MIQ B 502     -18.679  -1.553  -5.594  1.00143.95    -0.271 OA
HETATM   15  N20 MIQ B 502     -19.198  -0.273  -3.795  1.00140.02    -0.296 N 
HETATM   16  H13 MIQ B 502     -20.170  -0.220  -4.026  1.00142.77     0.171 HD
HETATM   17  C21 MIQ B 502     -18.673   0.396  -2.632  1.00142.22     0.224 C 
HETATM   18  C22 MIQ B 502     -17.269   0.957  -2.745  1.00139.52     0.106 C 
HETATM   19  O24 MIQ B 502     -19.306   0.496  -1.639  1.00146.13    -0.273 OA
HETATM   20  C23 MIQ B 502     -16.369  -0.205  -3.124  1.00139.15     0.045 C 
ENDBRANCH  10  12
BRANCH   5  21
HETATM   21  N6  MIQ B 502     -13.946   1.877 -10.650  1.00140.95    -0.377 N 
HETATM   22  C7  MIQ B 502     -12.619   2.379 -10.963  1.00142.12     0.149 C 
HETATM   23  C8  MIQ B 502     -12.674   3.703 -11.713  1.00144.10     0.187 C 
HETATM   24  O9  MIQ B 502     -13.573   3.686 -12.781  1.00148.65    -0.388 OA
HETATM   25  C10 MIQ B 502     -14.462   2.620 -12.941  1.00147.44     0.187 C 
HETATM   26  C11 MIQ B 502     -14.953   1.887 -11.697  1.00144.08     0.149 C 
ENDBRANCH   5  21
TORSDOF 2
ENDMDL
