MODEL 1
REMARK VINA RESULT:      -7.2      0.000      0.000
REMARK  2 active torsions:
REMARK  status: ('A' for Active; 'I' for Inactive)
REMARK    1  A    between atoms: C5_5  and  N6_21 
REMARK    2  A    between atoms: C18_14  and  N17_19 
ROOT
HETATM    1  O1  MIQ B 502       1.629 -11.219  11.583  1.00142.91    -0.171 OA
HETATM    2  C2  MIQ B 502       2.492 -10.165  11.275  1.00141.17     0.195 A 
HETATM    3  C3  MIQ B 502       2.597  -8.806  12.037  1.00141.71     0.035 A 
HETATM    4  C4  MIQ B 502       1.896  -8.241  13.214  1.00142.86     0.046 A 
HETATM    5  C5  MIQ B 502       2.219  -6.944  13.686  1.00139.53     0.031 A 
HETATM    6  C12 MIQ B 502       3.246  -6.164  13.010  1.00139.38     0.030 A 
HETATM    7  C13 MIQ B 502       3.919  -6.705  11.882  1.00141.18     0.019 A 
HETATM    8  C14 MIQ B 502       3.577  -8.069  11.393  1.00138.77     0.033 A 
HETATM    9  C15 MIQ B 502       4.085  -8.976  10.225  1.00142.10     0.195 A 
HETATM   10  N17 MIQ B 502       3.385 -10.097  10.302  1.00139.42    -0.288 N 
HETATM   11  O16 MIQ B 502       5.073  -8.661   9.290  1.00148.93    -0.171 OA
ENDROOT
BRANCH  10  12
HETATM   12  C18 MIQ B 502       3.580 -11.178   9.355  1.00139.82     0.187 C 
HETATM   13  C19 MIQ B 502       2.202 -11.580   8.815  1.00140.06     0.247 C 
HETATM   14  O25 MIQ B 502       1.483 -10.746   8.391  1.00143.95    -0.271 OA
HETATM   15  N20 MIQ B 502       1.758 -12.959   8.807  1.00140.02    -0.296 N 
HETATM   16  H13 MIQ B 502       0.853 -13.208   8.458  1.00142.77     0.171 HD
HETATM   17  C21 MIQ B 502       2.648 -13.958   9.340  1.00142.22     0.224 C 
HETATM   18  C22 MIQ B 502       3.532 -13.534  10.497  1.00139.52     0.106 C 
HETATM   19  O24 MIQ B 502       2.689 -15.051   8.893  1.00146.13    -0.273 OA
HETATM   20  C23 MIQ B 502       4.328 -12.335  10.014  1.00139.15     0.045 C 
ENDBRANCH  10  12
BRANCH   5  21
HETATM   21  N6  MIQ B 502       1.513  -6.397  14.831  1.00140.95    -0.377 N 
HETATM   22  C7  MIQ B 502       0.362  -5.544  14.595  1.00142.12     0.149 C 
HETATM   23  C8  MIQ B 502       0.134  -4.566  15.740  1.00144.10     0.187 C 
HETATM   24  O9  MIQ B 502       0.176  -5.178  16.994  1.00148.65    -0.388 OA
HETATM   25  C10 MIQ B 502       0.617  -6.497  17.123  1.00147.44     0.187 C 
HETATM   26  C11 MIQ B 502       1.656  -7.019  16.136  1.00144.08     0.149 C 
ENDBRANCH   5  21
TORSDOF 2
ENDMDL
MODEL 2
REMARK VINA RESULT:      -7.0      3.400      4.932
REMARK  2 active torsions:
REMARK  status: ('A' for Active; 'I' for Inactive)
REMARK    1  A    between atoms: C5_5  and  N6_21 
REMARK    2  A    between atoms: C18_14  and  N17_19 
ROOT
HETATM    1  O1  MIQ B 502       3.285  -8.764  10.854  1.00142.91    -0.171 OA
HETATM    2  C2  MIQ B 502       3.014 -10.102  11.151  1.00141.17     0.195 A 
HETATM    3  C3  MIQ B 502       3.105 -10.770  12.560  1.00141.71     0.035 A 
HETATM    4  C4  MIQ B 502       3.466 -10.266  13.906  1.00142.86     0.046 A 
HETATM    5  C5  MIQ B 502       3.455 -11.137  15.024  1.00139.53     0.031 A 
HETATM    6  C12 MIQ B 502       3.086 -12.534  14.849  1.00139.38     0.030 A 
HETATM    7  C13 MIQ B 502       2.739 -13.018  13.558  1.00141.18     0.019 A 
HETATM    8  C14 MIQ B 502       2.750 -12.098  12.388  1.00138.77     0.033 A 
HETATM    9  C15 MIQ B 502       2.436 -12.255  10.864  1.00142.10     0.195 A 
HETATM   10  N17 MIQ B 502       2.628 -11.061  10.328  1.00139.42    -0.288 N 
HETATM   11  O16 MIQ B 502       2.038 -13.421  10.208  1.00148.93    -0.171 OA
ENDROOT
BRANCH  10  12
HETATM   12  C18 MIQ B 502       2.443 -10.831   8.907  1.00139.82     0.187 C 
HETATM   13  C19 MIQ B 502       3.763 -10.290   8.345  1.00140.06     0.247 C 
HETATM   14  O25 MIQ B 502       4.765 -10.870   8.570  1.00143.95    -0.271 OA
HETATM   15  N20 MIQ B 502       3.815  -9.088   7.538  1.00140.02    -0.296 N 
HETATM   16  H13 MIQ B 502       4.684  -8.741   7.183  1.00142.77     0.171 HD
HETATM   17  C21 MIQ B 502       2.579  -8.392   7.286  1.00142.22     0.224 C 
HETATM   18  C22 MIQ B 502       1.539  -8.428   8.389  1.00139.52     0.106 C 
HETATM   19  O24 MIQ B 502       2.386  -7.825   6.267  1.00146.13    -0.273 OA
HETATM   20  C23 MIQ B 502       1.260  -9.894   8.670  1.00139.15     0.045 C 
ENDBRANCH  10  12
BRANCH   5  21
HETATM   21  N6  MIQ B 502       3.825 -10.633  16.334  1.00140.95    -0.377 N 
HETATM   22  C7  MIQ B 502       4.030 -11.585  17.413  1.00142.12     0.149 C 
HETATM   23  C8  MIQ B 502       3.771 -10.962  18.778  1.00144.10     0.187 C 
HETATM   24  O9  MIQ B 502       4.404  -9.729  18.942  1.00148.65    -0.388 OA
HETATM   25  C10 MIQ B 502       4.998  -9.087  17.852  1.00147.44     0.187 C 
HETATM   26  C11 MIQ B 502       4.404  -9.307  16.465  1.00144.08     0.149 C 
ENDBRANCH   5  21
TORSDOF 2
ENDMDL
MODEL 3
REMARK VINA RESULT:      -6.9      3.333      4.411
REMARK  2 active torsions:
REMARK  status: ('A' for Active; 'I' for Inactive)
REMARK    1  A    between atoms: C5_5  and  N6_21 
REMARK    2  A    between atoms: C18_14  and  N17_19 
ROOT
HETATM    1  O1  MIQ B 502       2.450 -11.964  11.751  1.00142.91    -0.171 OA
HETATM    2  C2  MIQ B 502       2.900 -10.643  11.810  1.00141.17     0.195 A 
HETATM    3  C3  MIQ B 502       3.406  -9.898  13.086  1.00141.71     0.035 A 
HETATM    4  C4  MIQ B 502       3.565 -10.298  14.504  1.00142.86     0.046 A 
HETATM    5  C5  MIQ B 502       4.066  -9.376  15.457  1.00139.53     0.031 A 
HETATM    6  C12 MIQ B 502       4.425  -8.028  15.039  1.00139.38     0.030 A 
HETATM    7  C13 MIQ B 502       4.274  -7.644  13.680  1.00141.18     0.019 A 
HETATM    8  C14 MIQ B 502       3.750  -8.618  12.683  1.00138.77     0.033 A 
HETATM    9  C15 MIQ B 502       3.457  -8.569  11.148  1.00142.10     0.195 A 
HETATM   10  N17 MIQ B 502       2.996  -9.766  10.826  1.00139.42    -0.288 N 
HETATM   11  O16 MIQ B 502       3.642  -7.479  10.296  1.00148.93    -0.171 OA
ENDROOT
BRANCH  10  12
HETATM   12  C18 MIQ B 502       2.599 -10.085   9.467  1.00139.82     0.187 C 
HETATM   13  C19 MIQ B 502       3.738  -9.655   8.534  1.00140.06     0.247 C 
HETATM   14  O25 MIQ B 502       4.838 -10.011   8.766  1.00143.95    -0.271 OA
HETATM   15  N20 MIQ B 502       3.500  -8.826   7.370  1.00140.02    -0.296 N 
HETATM   16  H13 MIQ B 502       4.253  -8.547   6.772  1.00142.77     0.171 HD
HETATM   17  C21 MIQ B 502       2.150  -8.396   7.113  1.00142.22     0.224 C 
HETATM   18  C22 MIQ B 502       1.276  -8.135   8.325  1.00139.52     0.106 C 
HETATM   19  O24 MIQ B 502       1.744  -8.258   6.011  1.00146.13    -0.273 OA
HETATM   20  C23 MIQ B 502       1.265  -9.420   9.133  1.00139.15     0.045 C 
ENDBRANCH  10  12
BRANCH   5  21
HETATM   21  N6  MIQ B 502       4.202  -9.776  16.846  1.00140.95    -0.377 N 
HETATM   22  C7  MIQ B 502       4.237 -11.194  17.159  1.00142.12     0.149 C 
HETATM   23  C8  MIQ B 502       3.742 -11.477  18.572  1.00144.10     0.187 C 
HETATM   24  O9  MIQ B 502       4.320 -10.640  19.528  1.00148.65    -0.388 OA
HETATM   25  C10 MIQ B 502       5.079  -9.535  19.135  1.00147.44     0.187 C 
HETATM   26  C11 MIQ B 502       4.731  -8.840  17.823  1.00144.08     0.149 C 
ENDBRANCH   5  21
TORSDOF 2
ENDMDL
MODEL 4
REMARK VINA RESULT:      -6.8      1.708      7.855
REMARK  2 active torsions:
REMARK  status: ('A' for Active; 'I' for Inactive)
REMARK    1  A    between atoms: C5_5  and  N6_21 
REMARK    2  A    between atoms: C18_14  and  N17_19 
ROOT
HETATM    1  O1  MIQ B 502       1.302  -9.103  13.848  1.00142.91    -0.171 OA
HETATM    2  C2  MIQ B 502       2.203  -8.663  12.876  1.00141.17     0.195 A 
HETATM    3  C3  MIQ B 502       2.693  -9.477  11.636  1.00141.71     0.035 A 
HETATM    4  C4  MIQ B 502       2.396 -10.837  11.128  1.00142.86     0.046 A 
HETATM    5  C5  MIQ B 502       3.011 -11.309   9.941  1.00139.53     0.031 A 
HETATM    6  C12 MIQ B 502       3.939 -10.451   9.218  1.00139.38     0.030 A 
HETATM    7  C13 MIQ B 502       4.223  -9.147   9.704  1.00141.18     0.019 A 
HETATM    8  C14 MIQ B 502       3.572  -8.656  10.950  1.00138.77     0.033 A 
HETATM    9  C15 MIQ B 502       3.629  -7.324  11.768  1.00142.10     0.195 A 
HETATM   10  N17 MIQ B 502       2.815  -7.494  12.797  1.00139.42    -0.288 N 
HETATM   11  O16 MIQ B 502       4.388  -6.191  11.469  1.00148.93    -0.171 OA
ENDROOT
BRANCH  10  12
HETATM   12  C18 MIQ B 502       2.626  -6.454  13.792  1.00139.82     0.187 C 
HETATM   13  C19 MIQ B 502       2.894  -7.072  15.170  1.00140.06     0.247 C 
HETATM   14  O25 MIQ B 502       3.893  -7.674  15.346  1.00143.95    -0.271 OA
HETATM   15  N20 MIQ B 502       1.957  -6.931  16.265  1.00140.02    -0.296 N 
HETATM   16  H13 MIQ B 502       2.141  -7.345  17.158  1.00142.77     0.171 HD
HETATM   17  C21 MIQ B 502       0.740  -6.201  16.022  1.00142.22     0.224 C 
HETATM   18  C22 MIQ B 502       0.149  -6.305  14.629  1.00139.52     0.106 C 
HETATM   19  O24 MIQ B 502       0.232  -5.549  16.867  1.00146.13    -0.273 OA
HETATM   20  C23 MIQ B 502       1.230  -5.847  13.667  1.00139.15     0.045 C 
ENDBRANCH  10  12
BRANCH   5  21
HETATM   21  N6  MIQ B 502       2.723 -12.649   9.463  1.00140.95    -0.377 N 
HETATM   22  C7  MIQ B 502       3.293 -13.779  10.177  1.00142.12     0.149 C 
HETATM   23  C8  MIQ B 502       3.470 -14.992   9.273  1.00144.10     0.187 C 
HETATM   24  O9  MIQ B 502       2.331 -15.277   8.517  1.00148.65    -0.388 OA
HETATM   25  C10 MIQ B 502       1.269 -14.370   8.468  1.00147.44     0.187 C 
HETATM   26  C11 MIQ B 502       1.573 -12.882   8.607  1.00144.08     0.149 C 
ENDBRANCH   5  21
TORSDOF 2
ENDMDL
MODEL 5
REMARK VINA RESULT:      -6.6      4.355      5.682
REMARK  2 active torsions:
REMARK  status: ('A' for Active; 'I' for Inactive)
REMARK    1  A    between atoms: C5_5  and  N6_21 
REMARK    2  A    between atoms: C18_14  and  N17_19 
ROOT
HETATM    1  O1  MIQ B 502       3.006 -10.834  11.953  1.00142.91    -0.171 OA
HETATM    2  C2  MIQ B 502       3.372  -9.858  12.883  1.00141.17     0.195 A 
HETATM    3  C3  MIQ B 502       3.679 -10.095  14.396  1.00141.71     0.035 A 
HETATM    4  C4  MIQ B 502       3.688 -11.302  15.257  1.00142.86     0.046 A 
HETATM    5  C5  MIQ B 502       4.018 -11.198  16.632  1.00139.53     0.031 A 
HETATM    6  C12 MIQ B 502       4.350  -9.900  17.200  1.00139.38     0.030 A 
HETATM    7  C13 MIQ B 502       4.343  -8.743  16.374  1.00141.18     0.019 A 
HETATM    8  C14 MIQ B 502       3.998  -8.858  14.931  1.00138.77     0.033 A 
HETATM    9  C15 MIQ B 502       3.889  -7.847  13.743  1.00142.10     0.195 A 
HETATM   10  N17 MIQ B 502       3.537  -8.561  12.687  1.00139.42    -0.288 N 
HETATM   11  O16 MIQ B 502       4.115  -6.470  13.794  1.00148.93    -0.171 OA
ENDROOT
BRANCH  10  12
HETATM   12  C18 MIQ B 502       3.325  -7.943  11.391  1.00139.82     0.187 C 
HETATM   13  C19 MIQ B 502       1.999  -8.473  10.832  1.00140.06     0.247 C 
HETATM   14  O25 MIQ B 502       1.031  -8.428  11.505  1.00143.95    -0.271 OA
HETATM   15  N20 MIQ B 502       1.898  -9.023   9.495  1.00140.02    -0.296 N 
HETATM   16  H13 MIQ B 502       1.028  -9.371   9.144  1.00142.77     0.171 HD
HETATM   17  C21 MIQ B 502       3.096  -9.077   8.697  1.00142.22     0.224 C 
HETATM   18  C22 MIQ B 502       4.398  -9.317   9.436  1.00139.52     0.106 C 
HETATM   19  O24 MIQ B 502       3.063  -8.935   7.524  1.00146.13    -0.273 OA
HETATM   20  C23 MIQ B 502       4.515  -8.213  10.472  1.00139.15     0.045 C 
ENDBRANCH  10  12
BRANCH   5  21
HETATM   21  N6  MIQ B 502       4.008 -12.386  17.467  1.00140.95    -0.377 N 
HETATM   22  C7  MIQ B 502       2.804 -12.697  18.218  1.00142.12     0.149 C 
HETATM   23  C8  MIQ B 502       3.109 -13.509  19.470  1.00144.10     0.187 C 
HETATM   24  O9  MIQ B 502       3.955 -14.592  19.223  1.00148.65    -0.388 OA
HETATM   25  C10 MIQ B 502       4.602 -14.718  17.991  1.00147.44     0.187 C 
HETATM   26  C11 MIQ B 502       4.966 -13.451  17.225  1.00144.08     0.149 C 
ENDBRANCH   5  21
TORSDOF 2
ENDMDL
MODEL 6
REMARK VINA RESULT:      -6.6      4.044      5.401
REMARK  2 active torsions:
REMARK  status: ('A' for Active; 'I' for Inactive)
REMARK    1  A    between atoms: C5_5  and  N6_21 
REMARK    2  A    between atoms: C18_14  and  N17_19 
ROOT
HETATM    1  O1  MIQ B 502       2.076 -13.207  10.546  1.00142.91    -0.171 OA
HETATM    2  C2  MIQ B 502       2.521 -11.980  11.045  1.00141.17     0.195 A 
HETATM    3  C3  MIQ B 502       2.910 -11.674  12.526  1.00141.71     0.035 A 
HETATM    4  C4  MIQ B 502       2.938 -12.492  13.762  1.00142.86     0.046 A 
HETATM    5  C5  MIQ B 502       3.351 -11.918  14.992  1.00139.53     0.031 A 
HETATM    6  C12 MIQ B 502       3.750 -10.519  15.039  1.00139.38     0.030 A 
HETATM    7  C13 MIQ B 502       3.724  -9.735  13.853  1.00141.18     0.019 A 
HETATM    8  C14 MIQ B 502       3.292 -10.343  12.565  1.00138.77     0.033 A 
HETATM    9  C15 MIQ B 502       3.140  -9.820  11.100  1.00142.10     0.195 A 
HETATM   10  N17 MIQ B 502       2.708 -10.849  10.388  1.00139.42    -0.288 N 
HETATM   11  O16 MIQ B 502       3.405  -8.529  10.641  1.00148.93    -0.171 OA
ENDROOT
BRANCH  10  12
HETATM   12  C18 MIQ B 502       2.437 -10.726   8.968  1.00139.82     0.187 C 
HETATM   13  C19 MIQ B 502       3.718 -10.228   8.288  1.00140.06     0.247 C 
HETATM   14  O25 MIQ B 502       4.735 -10.788   8.495  1.00143.95    -0.271 OA
HETATM   15  N20 MIQ B 502       3.714  -9.090   7.392  1.00140.02    -0.296 N 
HETATM   16  H13 MIQ B 502       4.558  -8.770   6.960  1.00142.77     0.171 HD
HETATM   17  C21 MIQ B 502       2.462  -8.416   7.163  1.00142.22     0.224 C 
HETATM   18  C22 MIQ B 502       1.490  -8.371   8.326  1.00139.52     0.106 C 
HETATM   19  O24 MIQ B 502       2.205  -7.928   6.118  1.00146.13    -0.273 OA
HETATM   20  C23 MIQ B 502       1.236  -9.811   8.733  1.00139.15     0.045 C 
ENDBRANCH  10  12
BRANCH   5  21
HETATM   21  N6  MIQ B 502       3.359 -12.727  16.197  1.00140.95    -0.377 N 
HETATM   22  C7  MIQ B 502       4.619 -12.925  16.892  1.00142.12     0.149 C 
HETATM   23  C8  MIQ B 502       4.634 -14.226  17.684  1.00144.10     0.187 C 
HETATM   24  O9  MIQ B 502       3.489 -14.400  18.464  1.00148.65    -0.388 OA
HETATM   25  C10 MIQ B 502       2.389 -13.553  18.305  1.00147.44     0.187 C 
HETATM   26  C11 MIQ B 502       2.124 -12.951  16.929  1.00144.08     0.149 C 
ENDBRANCH   5  21
TORSDOF 2
ENDMDL
MODEL 7
REMARK VINA RESULT:      -6.4      2.584      4.135
REMARK  2 active torsions:
REMARK  status: ('A' for Active; 'I' for Inactive)
REMARK    1  A    between atoms: C5_5  and  N6_21 
REMARK    2  A    between atoms: C18_14  and  N17_19 
ROOT
HETATM    1  O1  MIQ B 502       3.008  -7.387  12.294  1.00142.91    -0.171 OA
HETATM    2  C2  MIQ B 502       1.734  -7.892  12.564  1.00141.17     0.195 A 
HETATM    3  C3  MIQ B 502       0.754  -7.379  13.666  1.00141.71     0.035 A 
HETATM    4  C4  MIQ B 502       0.835  -6.302  14.681  1.00142.86     0.046 A 
HETATM    5  C5  MIQ B 502      -0.247  -6.069  15.567  1.00139.53     0.031 A 
HETATM    6  C12 MIQ B 502      -1.445  -6.892  15.477  1.00139.38     0.030 A 
HETATM    7  C13 MIQ B 502      -1.523  -7.924  14.503  1.00141.18     0.019 A 
HETATM    8  C14 MIQ B 502      -0.385  -8.163  13.575  1.00138.77     0.033 A 
HETATM    9  C15 MIQ B 502      -0.110  -9.167  12.408  1.00142.10     0.195 A 
HETATM   10  N17 MIQ B 502       1.100  -8.881  11.958  1.00139.42    -0.288 N 
HETATM   11  O16 MIQ B 502      -0.970 -10.164  11.943  1.00148.93    -0.171 OA
ENDROOT
BRANCH  10  12
HETATM   12  C18 MIQ B 502       1.701  -9.631  10.871  1.00139.82     0.187 C 
HETATM   13  C19 MIQ B 502       3.084 -10.102  11.335  1.00140.06     0.247 C 
HETATM   14  O25 MIQ B 502       3.185 -10.665  12.367  1.00143.95    -0.271 OA
HETATM   15  N20 MIQ B 502       4.274  -9.880  10.539  1.00140.02    -0.296 N 
HETATM   16  H13 MIQ B 502       5.172 -10.186  10.857  1.00142.77     0.171 HD
HETATM   17  C21 MIQ B 502       4.127  -9.181   9.288  1.00142.22     0.224 C 
HETATM   18  C22 MIQ B 502       3.057  -8.108   9.229  1.00139.52     0.106 C 
HETATM   19  O24 MIQ B 502       4.805  -9.436   8.355  1.00146.13    -0.273 OA
HETATM   20  C23 MIQ B 502       1.749  -8.782   9.601  1.00139.15     0.045 C 
ENDBRANCH  10  12
BRANCH   5  21
HETATM   21  N6  MIQ B 502      -0.148  -5.020  16.566  1.00140.95    -0.377 N 
HETATM   22  C7  MIQ B 502      -0.612  -3.687  16.222  1.00142.12     0.149 C 
HETATM   23  C8  MIQ B 502       0.101  -2.611  17.031  1.00144.10     0.187 C 
HETATM   24  O9  MIQ B 502       0.141  -2.895  18.397  1.00148.65    -0.388 OA
HETATM   25  C10 MIQ B 502      -0.238  -4.154  18.870  1.00147.44     0.187 C 
HETATM   26  C11 MIQ B 502      -0.021  -5.367  17.971  1.00144.08     0.149 C 
ENDBRANCH   5  21
TORSDOF 2
ENDMDL
MODEL 8
REMARK VINA RESULT:      -6.4      2.567      7.513
REMARK  2 active torsions:
REMARK  status: ('A' for Active; 'I' for Inactive)
REMARK    1  A    between atoms: C5_5  and  N6_21 
REMARK    2  A    between atoms: C18_14  and  N17_19 
ROOT
HETATM    1  O1  MIQ B 502       1.982  -9.685  14.094  1.00142.91    -0.171 OA
HETATM    2  C2  MIQ B 502       2.428  -9.011  12.955  1.00141.17     0.195 A 
HETATM    3  C3  MIQ B 502       2.147  -9.418  11.473  1.00141.71     0.035 A 
HETATM    4  C4  MIQ B 502       1.394 -10.530  10.847  1.00142.86     0.046 A 
HETATM    5  C5  MIQ B 502       1.314 -10.637   9.435  1.00139.53     0.031 A 
HETATM    6  C12 MIQ B 502       1.976  -9.647   8.598  1.00139.38     0.030 A 
HETATM    7  C13 MIQ B 502       2.697  -8.579   9.197  1.00141.18     0.019 A 
HETATM    8  C14 MIQ B 502       2.775  -8.471  10.680  1.00138.77     0.033 A 
HETATM    9  C15 MIQ B 502       3.449  -7.471  11.675  1.00142.10     0.195 A 
HETATM   10  N17 MIQ B 502       3.159  -7.911  12.888  1.00139.42    -0.288 N 
HETATM   11  O16 MIQ B 502       4.205  -6.345  11.344  1.00148.93    -0.171 OA
ENDROOT
BRANCH  10  12
HETATM   12  C18 MIQ B 502       3.638  -7.230  14.076  1.00139.82     0.187 C 
HETATM   13  C19 MIQ B 502       4.476  -8.230  14.882  1.00140.06     0.247 C 
HETATM   14  O25 MIQ B 502       5.336  -8.830  14.341  1.00143.95    -0.271 OA
HETATM   15  N20 MIQ B 502       4.245  -8.455  16.295  1.00140.02    -0.296 N 
HETATM   16  H13 MIQ B 502       4.794  -9.116  16.808  1.00142.77     0.171 HD
HETATM   17  C21 MIQ B 502       3.183  -7.719  16.930  1.00142.22     0.224 C 
HETATM   18  C22 MIQ B 502       1.965  -7.411  16.082  1.00139.52     0.106 C 
HETATM   19  O24 MIQ B 502       3.262  -7.369  18.056  1.00146.13    -0.273 OA
HETATM   20  C23 MIQ B 502       2.466  -6.651  14.867  1.00139.15     0.045 C 
ENDBRANCH  10  12
BRANCH   5  21
HETATM   21  N6  MIQ B 502       0.586 -11.740   8.836  1.00140.95    -0.377 N 
HETATM   22  C7  MIQ B 502       1.219 -13.047   8.789  1.00142.12     0.149 C 
HETATM   23  C8  MIQ B 502       0.694 -13.892   7.636  1.00144.10     0.187 C 
HETATM   24  O9  MIQ B 502      -0.700 -13.902   7.560  1.00148.65    -0.388 OA
HETATM   25  C10 MIQ B 502      -1.457 -13.023   8.338  1.00147.44     0.187 C 
HETATM   26  C11 MIQ B 502      -0.858 -11.667   8.700  1.00144.08     0.149 C 
ENDBRANCH   5  21
TORSDOF 2
ENDMDL
MODEL 9
REMARK VINA RESULT:      -6.4      3.549      8.969
REMARK  2 active torsions:
REMARK  status: ('A' for Active; 'I' for Inactive)
REMARK    1  A    between atoms: C5_5  and  N6_21 
REMARK    2  A    between atoms: C18_14  and  N17_19 
ROOT
HETATM    1  O1  MIQ B 502       4.570 -11.531  10.200  1.00142.91    -0.171 OA
HETATM    2  C2  MIQ B 502       3.319 -11.962   9.752  1.00141.17     0.195 A 
HETATM    3  C3  MIQ B 502       2.909 -13.437   9.442  1.00141.71     0.035 A 
HETATM    4  C4  MIQ B 502       3.627 -14.732   9.514  1.00142.86     0.046 A 
HETATM    5  C5  MIQ B 502       2.970 -15.937   9.159  1.00139.53     0.031 A 
HETATM    6  C12 MIQ B 502       1.581 -15.901   8.723  1.00139.38     0.030 A 
HETATM    7  C13 MIQ B 502       0.892 -14.661   8.655  1.00141.18     0.019 A 
HETATM    8  C14 MIQ B 502       1.586 -13.399   9.031  1.00138.77     0.033 A 
HETATM    9  C15 MIQ B 502       1.173 -11.892   9.087  1.00142.10     0.195 A 
HETATM   10  N17 MIQ B 502       2.242 -11.236   9.507  1.00139.42    -0.288 N 
HETATM   11  O16 MIQ B 502      -0.072 -11.353   8.757  1.00148.93    -0.171 OA
ENDROOT
BRANCH  10  12
HETATM   12  C18 MIQ B 502       2.232  -9.793   9.665  1.00139.82     0.187 C 
HETATM   13  C19 MIQ B 502       3.451  -9.232   8.923  1.00140.06     0.247 C 
HETATM   14  O25 MIQ B 502       3.641  -9.550   7.803  1.00143.95    -0.271 OA
HETATM   15  N20 MIQ B 502       4.376  -8.316   9.558  1.00140.02    -0.296 N 
HETATM   16  H13 MIQ B 502       5.172  -7.962   9.065  1.00142.77     0.171 HD
HETATM   17  C21 MIQ B 502       4.130  -7.950  10.929  1.00142.22     0.224 C 
HETATM   18  C22 MIQ B 502       3.506  -9.011  11.815  1.00139.52     0.106 C 
HETATM   19  O24 MIQ B 502       4.397  -6.874  11.339  1.00146.13    -0.273 OA
HETATM   20  C23 MIQ B 502       2.207  -9.422  11.147  1.00139.15     0.045 C 
ENDBRANCH  10  12
BRANCH   5  21
HETATM   21  N6  MIQ B 502       3.690 -17.195   9.220  1.00140.95    -0.377 N 
HETATM   22  C7  MIQ B 502       4.988 -17.285   8.573  1.00142.12     0.149 C 
HETATM   23  C8  MIQ B 502       5.316 -18.712   8.152  1.00144.10     0.187 C 
HETATM   24  O9  MIQ B 502       5.090 -19.644   9.166  1.00148.65    -0.388 OA
HETATM   25  C10 MIQ B 502       4.413 -19.272  10.331  1.00147.44     0.187 C 
HETATM   26  C11 MIQ B 502       3.359 -18.172  10.243  1.00144.08     0.149 C 
ENDBRANCH   5  21
TORSDOF 2
ENDMDL
