MODEL 1
REMARK VINA RESULT:      -6.1      0.000      0.000
REMARK  2 active torsions:
REMARK  status: ('A' for Active; 'I' for Inactive)
REMARK    1  A    between atoms: C5_5  and  N6_21 
REMARK    2  A    between atoms: C18_14  and  N17_19 
ROOT
HETATM    1  O1  MIQ B 502     -10.566 -10.522  17.328  1.00142.91    -0.171 OA
HETATM    2  C2  MIQ B 502     -11.436 -11.024  16.358  1.00141.17     0.195 A 
HETATM    3  C3  MIQ B 502     -11.188 -12.276  15.457  1.00141.71     0.035 A 
HETATM    4  C4  MIQ B 502     -10.073 -13.245  15.344  1.00142.86     0.046 A 
HETATM    5  C5  MIQ B 502     -10.139 -14.308  14.407  1.00139.53     0.031 A 
HETATM    6  C12 MIQ B 502     -11.310 -14.446  13.553  1.00139.38     0.030 A 
HETATM    7  C13 MIQ B 502     -12.380 -13.517  13.662  1.00141.18     0.019 A 
HETATM    8  C14 MIQ B 502     -12.306 -12.405  14.649  1.00138.77     0.033 A 
HETATM    9  C15 MIQ B 502     -13.253 -11.228  15.050  1.00142.10     0.195 A 
HETATM   10  N17 MIQ B 502     -12.624 -10.564  16.007  1.00139.42    -0.288 N 
HETATM   11  O16 MIQ B 502     -14.504 -10.938  14.505  1.00148.93    -0.171 OA
ENDROOT
BRANCH  10  12
HETATM   12  C18 MIQ B 502     -13.206  -9.383  16.617  1.00139.82     0.187 C 
HETATM   13  C19 MIQ B 502     -12.199  -8.236  16.471  1.00140.06     0.247 C 
HETATM   14  O25 MIQ B 502     -11.743  -8.003  15.408  1.00143.95    -0.271 OA
HETATM   15  N20 MIQ B 502     -11.795  -7.425  17.601  1.00140.02    -0.296 N 
HETATM   16  H13 MIQ B 502     -11.132  -6.683  17.493  1.00142.77     0.171 HD
HETATM   17  C21 MIQ B 502     -12.358  -7.736  18.889  1.00142.22     0.224 C 
HETATM   18  C22 MIQ B 502     -12.652  -9.197  19.170  1.00139.52     0.106 C 
HETATM   19  O24 MIQ B 502     -12.584  -6.891  19.685  1.00146.13    -0.273 OA
HETATM   20  C23 MIQ B 502     -13.586  -9.668  18.070  1.00139.15     0.045 C 
ENDBRANCH  10  12
BRANCH   5  21
HETATM   21  N6  MIQ B 502      -9.033 -15.241  14.297  1.00140.95    -0.377 N 
HETATM   22  C7  MIQ B 502      -7.921 -15.113  15.222  1.00142.12     0.149 C 
HETATM   23  C8  MIQ B 502      -6.626 -15.659  14.634  1.00144.10     0.187 C 
HETATM   24  O9  MIQ B 502      -6.780 -16.921  14.058  1.00148.65    -0.388 OA
HETATM   25  C10 MIQ B 502      -8.055 -17.461  13.867  1.00147.44     0.187 C 
HETATM   26  C11 MIQ B 502      -9.219 -16.509  13.612  1.00144.08     0.149 C 
ENDBRANCH   5  21
TORSDOF 2
ENDMDL
MODEL 2
REMARK VINA RESULT:      -5.8      3.809      7.164
REMARK  2 active torsions:
REMARK  status: ('A' for Active; 'I' for Inactive)
REMARK    1  A    between atoms: C5_5  and  N6_21 
REMARK    2  A    between atoms: C18_14  and  N17_19 
ROOT
HETATM    1  O1  MIQ B 502     -13.703 -12.123  16.909  1.00142.91    -0.171 OA
HETATM    2  C2  MIQ B 502     -13.663 -10.928  16.187  1.00141.17     0.195 A 
HETATM    3  C3  MIQ B 502     -14.697 -10.465  15.112  1.00141.71     0.035 A 
HETATM    4  C4  MIQ B 502     -15.934 -11.069  14.561  1.00142.86     0.046 A 
HETATM    5  C5  MIQ B 502     -16.682 -10.389  13.567  1.00139.53     0.031 A 
HETATM    6  C12 MIQ B 502     -16.232  -9.091  13.086  1.00139.38     0.030 A 
HETATM    7  C13 MIQ B 502     -15.048  -8.511  13.615  1.00141.18     0.019 A 
HETATM    8  C14 MIQ B 502     -14.267  -9.228  14.660  1.00138.77     0.033 A 
HETATM    9  C15 MIQ B 502     -12.959  -8.921  15.459  1.00142.10     0.195 A 
HETATM   10  N17 MIQ B 502     -12.768  -9.958  16.259  1.00139.42    -0.288 N 
HETATM   11  O16 MIQ B 502     -12.158  -7.784  15.345  1.00148.93    -0.171 OA
ENDROOT
BRANCH  10  12
HETATM   12  C18 MIQ B 502     -11.624 -10.027  17.149  1.00139.82     0.187 C 
HETATM   13  C19 MIQ B 502     -10.888 -11.341  16.863  1.00140.06     0.247 C 
HETATM   14  O25 MIQ B 502     -10.598 -11.609  15.751  1.00143.95    -0.271 OA
HETATM   15  N20 MIQ B 502     -10.532 -12.263  17.922  1.00140.02    -0.296 N 
HETATM   16  H13 MIQ B 502     -10.057 -13.122  17.722  1.00142.77     0.171 HD
HETATM   17  C21 MIQ B 502     -10.906 -11.919  19.270  1.00142.22     0.224 C 
HETATM   18  C22 MIQ B 502     -12.203 -11.151  19.442  1.00139.52     0.106 C 
HETATM   19  O24 MIQ B 502     -10.232 -12.218  20.193  1.00146.13    -0.273 OA
HETATM   20  C23 MIQ B 502     -12.073  -9.893  18.603  1.00139.15     0.045 C 
ENDBRANCH  10  12
BRANCH   5  21
HETATM   21  N6  MIQ B 502     -17.883 -10.999  13.026  1.00140.95    -0.377 N 
HETATM   22  C7  MIQ B 502     -18.693 -10.232  12.095  1.00142.12     0.149 C 
HETATM   23  C8  MIQ B 502     -20.152 -10.669  12.117  1.00144.10     0.187 C 
HETATM   24  O9  MIQ B 502     -20.306 -12.054  12.041  1.00148.65    -0.388 OA
HETATM   25  C10 MIQ B 502     -19.199 -12.897  12.171  1.00147.44     0.187 C 
HETATM   26  C11 MIQ B 502     -18.035 -12.444  13.046  1.00144.08     0.149 C 
ENDBRANCH   5  21
TORSDOF 2
ENDMDL
MODEL 3
REMARK VINA RESULT:      -5.8      1.531      2.713
REMARK  2 active torsions:
REMARK  status: ('A' for Active; 'I' for Inactive)
REMARK    1  A    between atoms: C5_5  and  N6_21 
REMARK    2  A    between atoms: C18_14  and  N17_19 
ROOT
HETATM    1  O1  MIQ B 502     -13.400 -10.938  13.904  1.00142.91    -0.171 OA
HETATM    2  C2  MIQ B 502     -12.421 -11.220  14.859  1.00141.17     0.195 A 
HETATM    3  C3  MIQ B 502     -11.580 -12.532  14.959  1.00141.71     0.035 A 
HETATM    4  C4  MIQ B 502     -11.540 -13.780  14.160  1.00142.86     0.046 A 
HETATM    5  C5  MIQ B 502     -10.643 -14.823  14.504  1.00139.53     0.031 A 
HETATM    6  C12 MIQ B 502      -9.757 -14.666  15.649  1.00139.38     0.030 A 
HETATM    7  C13 MIQ B 502      -9.795 -13.469  16.414  1.00141.18     0.019 A 
HETATM    8  C14 MIQ B 502     -10.737 -12.376  16.047  1.00138.77     0.033 A 
HETATM    9  C15 MIQ B 502     -11.056 -10.959  16.625  1.00142.10     0.195 A 
HETATM   10  N17 MIQ B 502     -12.004 -10.455  15.853  1.00139.42    -0.288 N 
HETATM   11  O16 MIQ B 502     -10.459 -10.355  17.733  1.00148.93    -0.171 OA
ENDROOT
BRANCH  10  12
HETATM   12  C18 MIQ B 502     -12.566  -9.141  16.105  1.00139.82     0.187 C 
HETATM   13  C19 MIQ B 502     -11.436  -8.114  15.965  1.00140.06     0.247 C 
HETATM   14  O25 MIQ B 502     -10.763  -8.127  14.996  1.00143.95    -0.271 OA
HETATM   15  N20 MIQ B 502     -11.174  -7.123  16.988  1.00140.02    -0.296 N 
HETATM   16  H13 MIQ B 502     -10.428  -6.462  16.888  1.00142.77     0.171 HD
HETATM   17  C21 MIQ B 502     -12.002  -7.134  18.166  1.00142.22     0.224 C 
HETATM   18  C22 MIQ B 502     -12.495  -8.487  18.640  1.00139.52     0.106 C 
HETATM   19  O24 MIQ B 502     -12.287  -6.135  18.731  1.00146.13    -0.273 OA
HETATM   20  C23 MIQ B 502     -13.244  -9.106  17.474  1.00139.15     0.045 C 
ENDBRANCH  10  12
BRANCH   5  21
HETATM   21  N6  MIQ B 502     -10.625 -16.045  13.722  1.00140.95    -0.377 N 
HETATM   22  C7  MIQ B 502     -11.726 -16.303  12.810  1.00142.12     0.149 C 
HETATM   23  C8  MIQ B 502     -11.929 -17.793  12.569  1.00144.10     0.187 C 
HETATM   24  O9  MIQ B 502     -10.740 -18.463  12.273  1.00148.65    -0.388 OA
HETATM   25  C10 MIQ B 502      -9.508 -17.821  12.431  1.00147.44     0.187 C 
HETATM   26  C11 MIQ B 502      -9.375 -16.754  13.513  1.00144.08     0.149 C 
ENDBRANCH   5  21
TORSDOF 2
ENDMDL
MODEL 4
REMARK VINA RESULT:      -5.8     20.141     23.186
REMARK  2 active torsions:
REMARK  status: ('A' for Active; 'I' for Inactive)
REMARK    1  A    between atoms: C5_5  and  N6_21 
REMARK    2  A    between atoms: C18_14  and  N17_19 
ROOT
HETATM    1  O1  MIQ B 502      -7.802  -1.392  34.859  1.00142.91    -0.171 OA
HETATM    2  C2  MIQ B 502      -6.902  -2.414  35.166  1.00141.17     0.195 A 
HETATM    3  C3  MIQ B 502      -5.362  -2.255  35.372  1.00141.71     0.035 A 
HETATM    4  C4  MIQ B 502      -4.441  -1.095  35.321  1.00142.86     0.046 A 
HETATM    5  C5  MIQ B 502      -3.054  -1.269  35.560  1.00139.53     0.031 A 
HETATM    6  C12 MIQ B 502      -2.533  -2.595  35.858  1.00139.38     0.030 A 
HETATM    7  C13 MIQ B 502      -3.416  -3.708  35.909  1.00141.18     0.019 A 
HETATM    8  C14 MIQ B 502      -4.871  -3.519  35.659  1.00138.77     0.033 A 
HETATM    9  C15 MIQ B 502      -6.114  -4.467  35.631  1.00142.10     0.195 A 
HETATM   10  N17 MIQ B 502      -7.153  -3.699  35.347  1.00139.42    -0.288 N 
HETATM   11  O16 MIQ B 502      -6.119  -5.845  35.857  1.00148.93    -0.171 OA
ENDROOT
BRANCH  10  12
HETATM   12  C18 MIQ B 502      -8.490  -4.250  35.223  1.00139.82     0.187 C 
HETATM   13  C19 MIQ B 502      -9.009  -3.903  33.822  1.00140.06     0.247 C 
HETATM   14  O25 MIQ B 502      -8.342  -4.152  32.882  1.00143.95    -0.271 OA
HETATM   15  N20 MIQ B 502     -10.303  -3.283  33.619  1.00140.02    -0.296 N 
HETATM   16  H13 MIQ B 502     -10.628  -3.056  32.700  1.00142.77     0.171 HD
HETATM   17  C21 MIQ B 502     -11.095  -2.980  34.783  1.00142.22     0.224 C 
HETATM   18  C22 MIQ B 502     -10.340  -2.586  36.037  1.00139.52     0.106 C 
HETATM   19  O24 MIQ B 502     -12.275  -3.041  34.760  1.00146.13    -0.273 OA
HETATM   20  C23 MIQ B 502      -9.387  -3.726  36.343  1.00139.15     0.045 C 
ENDBRANCH  10  12
BRANCH   5  21
HETATM   21  N6  MIQ B 502      -2.162  -0.126  35.493  1.00140.95    -0.377 N 
HETATM   22  C7  MIQ B 502      -2.715   1.201  35.704  1.00142.12     0.149 C 
HETATM   23  C8  MIQ B 502      -1.898   2.277  35.000  1.00144.10     0.187 C 
HETATM   24  O9  MIQ B 502      -0.527   2.158  35.235  1.00148.65    -0.388 OA
HETATM   25  C10 MIQ B 502      -0.012   1.018  35.859  1.00147.44     0.187 C 
HETATM   26  C11 MIQ B 502      -0.731  -0.312  35.658  1.00144.08     0.149 C 
ENDBRANCH   5  21
TORSDOF 2
ENDMDL
MODEL 5
REMARK VINA RESULT:      -5.7     19.917     23.127
REMARK  2 active torsions:
REMARK  status: ('A' for Active; 'I' for Inactive)
REMARK    1  A    between atoms: C5_5  and  N6_21 
REMARK    2  A    between atoms: C18_14  and  N17_19 
ROOT
HETATM    1  O1  MIQ B 502      -8.479  -2.245  34.960  1.00142.91    -0.171 OA
HETATM    2  C2  MIQ B 502      -7.314  -2.980  35.192  1.00141.17     0.195 A 
HETATM    3  C3  MIQ B 502      -5.869  -2.401  35.319  1.00141.71     0.035 A 
HETATM    4  C4  MIQ B 502      -5.309  -1.031  35.248  1.00142.86     0.046 A 
HETATM    5  C5  MIQ B 502      -3.917  -0.815  35.408  1.00139.53     0.031 A 
HETATM    6  C12 MIQ B 502      -3.033  -1.948  35.644  1.00139.38     0.030 A 
HETATM    7  C13 MIQ B 502      -3.569  -3.262  35.713  1.00141.18     0.019 A 
HETATM    8  C14 MIQ B 502      -5.032  -3.482  35.547  1.00138.77     0.033 A 
HETATM    9  C15 MIQ B 502      -5.963  -4.738  35.562  1.00142.10     0.195 A 
HETATM   10  N17 MIQ B 502      -7.189  -4.286  35.354  1.00139.42    -0.288 N 
HETATM   11  O16 MIQ B 502      -5.574  -6.064  35.754  1.00148.93    -0.171 OA
ENDROOT
BRANCH  10  12
HETATM   12  C18 MIQ B 502      -8.326  -5.184  35.288  1.00139.82     0.187 C 
HETATM   13  C19 MIQ B 502      -9.083  -4.886  33.988  1.00140.06     0.247 C 
HETATM   14  O25 MIQ B 502      -8.488  -4.852  32.970  1.00143.95    -0.271 OA
HETATM   15  N20 MIQ B 502     -10.512  -4.648  33.973  1.00140.02    -0.296 N 
HETATM   16  H13 MIQ B 502     -10.993  -4.448  33.119  1.00142.77     0.171 HD
HETATM   17  C21 MIQ B 502     -11.215  -4.684  35.230  1.00142.22     0.224 C 
HETATM   18  C22 MIQ B 502     -10.455  -4.196  36.449  1.00139.52     0.106 C 
HETATM   19  O24 MIQ B 502     -12.326  -5.079  35.306  1.00146.13    -0.273 OA
HETATM   20  C23 MIQ B 502      -9.194  -5.036  36.536  1.00139.15     0.045 C 
ENDBRANCH  10  12
BRANCH   5  21
HETATM   21  N6  MIQ B 502      -3.381   0.531  35.321  1.00140.95    -0.377 N 
HETATM   22  C7  MIQ B 502      -4.284   1.617  34.978  1.00142.12     0.149 C 
HETATM   23  C8  MIQ B 502      -3.553   2.773  34.308  1.00144.10     0.187 C 
HETATM   24  O9  MIQ B 502      -2.395   3.152  34.989  1.00148.65    -0.388 OA
HETATM   25  C10 MIQ B 502      -1.895   2.363  36.028  1.00147.44     0.187 C 
HETATM   26  C11 MIQ B 502      -2.127   0.856  35.976  1.00144.08     0.149 C 
ENDBRANCH   5  21
TORSDOF 2
ENDMDL
MODEL 6
REMARK VINA RESULT:      -5.7     20.263     22.669
REMARK  2 active torsions:
REMARK  status: ('A' for Active; 'I' for Inactive)
REMARK    1  A    between atoms: C5_5  and  N6_21 
REMARK    2  A    between atoms: C18_14  and  N17_19 
ROOT
HETATM    1  O1  MIQ B 502      -6.628  -5.991  36.009  1.00142.91    -0.171 OA
HETATM    2  C2  MIQ B 502      -6.493  -4.628  35.737  1.00141.17     0.195 A 
HETATM    3  C3  MIQ B 502      -5.158  -3.817  35.730  1.00141.71     0.035 A 
HETATM    4  C4  MIQ B 502      -3.743  -4.181  35.978  1.00142.86     0.046 A 
HETATM    5  C5  MIQ B 502      -2.725  -3.198  35.895  1.00139.53     0.031 A 
HETATM    6  C12 MIQ B 502      -3.073  -1.824  35.562  1.00139.38     0.030 A 
HETATM    7  C13 MIQ B 502      -4.429  -1.475  35.322  1.00141.18     0.019 A 
HETATM    8  C14 MIQ B 502      -5.494  -2.512  35.409  1.00138.77     0.033 A 
HETATM    9  C15 MIQ B 502      -7.045  -2.513  35.216  1.00142.10     0.195 A 
HETATM   10  N17 MIQ B 502      -7.439  -3.757  35.430  1.00139.42    -0.288 N 
HETATM   11  O16 MIQ B 502      -7.847  -1.419  34.887  1.00148.93    -0.171 OA
ENDROOT
BRANCH  10  12
HETATM   12  C18 MIQ B 502      -8.838  -4.133  35.351  1.00139.82     0.187 C 
HETATM   13  C19 MIQ B 502      -9.338  -3.785  33.944  1.00140.06     0.247 C 
HETATM   14  O25 MIQ B 502      -8.728  -4.160  33.007  1.00143.95    -0.271 OA
HETATM   15  N20 MIQ B 502     -10.544  -3.011  33.731  1.00140.02    -0.296 N 
HETATM   16  H13 MIQ B 502     -10.855  -2.784  32.807  1.00142.77     0.171 HD
HETATM   17  C21 MIQ B 502     -11.265  -2.554  34.891  1.00142.22     0.224 C 
HETATM   18  C22 MIQ B 502     -10.439  -2.207  36.114  1.00139.52     0.106 C 
HETATM   19  O24 MIQ B 502     -12.444  -2.462  34.889  1.00146.13    -0.273 OA
HETATM   20  C23 MIQ B 502      -9.636  -3.448  36.459  1.00139.15     0.045 C 
ENDBRANCH  10  12
BRANCH   5  21
HETATM   21  N6  MIQ B 502      -1.345  -3.565  36.155  1.00140.95    -0.377 N 
HETATM   22  C7  MIQ B 502      -0.675  -4.454  35.222  1.00142.12     0.149 C 
HETATM   23  C8  MIQ B 502       0.443  -5.243  35.891  1.00144.10     0.187 C 
HETATM   24  O9  MIQ B 502       1.287  -4.443  36.664  1.00148.65    -0.388 OA
HETATM   25  C10 MIQ B 502       0.946  -3.116  36.939  1.00147.44     0.187 C 
HETATM   26  C11 MIQ B 502      -0.530  -2.746  37.036  1.00144.08     0.149 C 
ENDBRANCH   5  21
TORSDOF 2
ENDMDL
MODEL 7
REMARK VINA RESULT:      -5.6     20.272     22.747
REMARK  2 active torsions:
REMARK  status: ('A' for Active; 'I' for Inactive)
REMARK    1  A    between atoms: C5_5  and  N6_21 
REMARK    2  A    between atoms: C18_14  and  N17_19 
ROOT
HETATM    1  O1  MIQ B 502      -6.150  -5.536  35.394  1.00142.91    -0.171 OA
HETATM    2  C2  MIQ B 502      -5.543  -4.279  35.428  1.00141.17     0.195 A 
HETATM    3  C3  MIQ B 502      -4.013  -3.996  35.563  1.00141.71     0.035 A 
HETATM    4  C4  MIQ B 502      -2.822  -4.870  35.683  1.00142.86     0.046 A 
HETATM    5  C5  MIQ B 502      -1.526  -4.305  35.791  1.00139.53     0.031 A 
HETATM    6  C12 MIQ B 502      -1.366  -2.858  35.783  1.00139.38     0.030 A 
HETATM    7  C13 MIQ B 502      -2.508  -2.020  35.666  1.00141.18     0.019 A 
HETATM    8  C14 MIQ B 502      -3.865  -2.619  35.551  1.00138.77     0.033 A 
HETATM    9  C15 MIQ B 502      -5.312  -2.043  35.407  1.00142.10     0.195 A 
HETATM   10  N17 MIQ B 502      -6.118  -3.090  35.350  1.00139.42    -0.288 N 
HETATM   11  O16 MIQ B 502      -5.674  -0.696  35.354  1.00148.93    -0.171 OA
ENDROOT
BRANCH  10  12
HETATM   12  C18 MIQ B 502      -7.556  -2.934  35.231  1.00139.82     0.187 C 
HETATM   13  C19 MIQ B 502      -8.208  -3.725  36.371  1.00140.06     0.247 C 
HETATM   14  O25 MIQ B 502      -7.838  -3.553  37.477  1.00143.95    -0.271 OA
HETATM   15  N20 MIQ B 502      -9.274  -4.676  36.129  1.00140.02    -0.296 N 
HETATM   16  H13 MIQ B 502      -9.688  -5.190  36.881  1.00142.77     0.171 HD
HETATM   17  C21 MIQ B 502      -9.703  -4.876  34.768  1.00142.22     0.224 C 
HETATM   18  C22 MIQ B 502      -8.639  -4.758  33.694  1.00139.52     0.106 C 
HETATM   19  O24 MIQ B 502     -10.829  -5.116  34.504  1.00146.13    -0.273 OA
HETATM   20  C23 MIQ B 502      -8.025  -3.378  33.846  1.00139.15     0.045 C 
ENDBRANCH  10  12
BRANCH   5  21
HETATM   21  N6  MIQ B 502      -0.370  -5.173  35.923  1.00140.95    -0.377 N 
HETATM   22  C7  MIQ B 502       0.916  -4.693  35.449  1.00142.12     0.149 C 
HETATM   23  C8  MIQ B 502       1.838  -5.838  35.049  1.00144.10     0.187 C 
HETATM   24  O9  MIQ B 502       1.896  -6.849  36.009  1.00148.65    -0.388 OA
HETATM   25  C10 MIQ B 502       1.001  -6.859  37.082  1.00147.44     0.187 C 
HETATM   26  C11 MIQ B 502      -0.390  -6.268  36.877  1.00144.08     0.149 C 
ENDBRANCH   5  21
TORSDOF 2
ENDMDL
MODEL 8
REMARK VINA RESULT:      -5.6     19.939     22.859
REMARK  2 active torsions:
REMARK  status: ('A' for Active; 'I' for Inactive)
REMARK    1  A    between atoms: C5_5  and  N6_21 
REMARK    2  A    between atoms: C18_14  and  N17_19 
ROOT
HETATM    1  O1  MIQ B 502      -5.541  -5.952  35.665  1.00142.91    -0.171 OA
HETATM    2  C2  MIQ B 502      -5.997  -4.641  35.511  1.00141.17     0.195 A 
HETATM    3  C3  MIQ B 502      -5.114  -3.353  35.503  1.00141.71     0.035 A 
HETATM    4  C4  MIQ B 502      -3.657  -3.115  35.638  1.00142.86     0.046 A 
HETATM    5  C5  MIQ B 502      -3.139  -1.796  35.588  1.00139.53     0.031 A 
HETATM    6  C12 MIQ B 502      -4.043  -0.670  35.401  1.00139.38     0.030 A 
HETATM    7  C13 MIQ B 502      -5.440  -0.898  35.270  1.00141.18     0.019 A 
HETATM    8  C14 MIQ B 502      -5.978  -2.285  35.321  1.00138.77     0.033 A 
HETATM    9  C15 MIQ B 502      -7.405  -2.915  35.215  1.00142.10     0.195 A 
HETATM   10  N17 MIQ B 502      -7.238  -4.221  35.337  1.00139.42    -0.288 N 
HETATM   11  O16 MIQ B 502      -8.609  -2.231  35.032  1.00148.93    -0.171 OA
ENDROOT
BRANCH  10  12
HETATM   12  C18 MIQ B 502      -8.365  -5.135  35.302  1.00139.82     0.187 C 
HETATM   13  C19 MIQ B 502      -9.148  -4.864  34.012  1.00140.06     0.247 C 
HETATM   14  O25 MIQ B 502      -8.571  -4.837  32.983  1.00143.95    -0.271 OA
HETATM   15  N20 MIQ B 502     -10.580  -4.645  34.020  1.00140.02    -0.296 N 
HETATM   16  H13 MIQ B 502     -11.078  -4.463  33.171  1.00142.77     0.171 HD
HETATM   17  C21 MIQ B 502     -11.260  -4.673  35.289  1.00142.22     0.224 C 
HETATM   18  C22 MIQ B 502     -10.486  -4.159  36.488  1.00139.52     0.106 C 
HETATM   19  O24 MIQ B 502     -12.364  -5.082  35.390  1.00146.13    -0.273 OA
HETATM   20  C23 MIQ B 502      -9.213  -4.982  36.564  1.00139.15     0.045 C 
ENDBRANCH  10  12
BRANCH   5  21
HETATM   21  N6  MIQ B 502      -1.712  -1.576  35.737  1.00140.95    -0.377 N 
HETATM   22  C7  MIQ B 502      -1.215  -0.211  35.732  1.00142.12     0.149 C 
HETATM   23  C8  MIQ B 502       0.229  -0.133  35.254  1.00144.10     0.187 C 
HETATM   24  O9  MIQ B 502       1.059  -1.068  35.876  1.00148.65    -0.388 OA
HETATM   25  C10 MIQ B 502       0.513  -2.086  36.662  1.00147.44     0.187 C 
HETATM   26  C11 MIQ B 502      -0.874  -2.614  36.312  1.00144.08     0.149 C 
ENDBRANCH   5  21
TORSDOF 2
ENDMDL
MODEL 9
REMARK VINA RESULT:      -5.5     20.568     22.348
REMARK  2 active torsions:
REMARK  status: ('A' for Active; 'I' for Inactive)
REMARK    1  A    between atoms: C5_5  and  N6_21 
REMARK    2  A    between atoms: C18_14  and  N17_19 
ROOT
HETATM    1  O1  MIQ B 502      -7.882  -6.091  36.153  1.00142.91    -0.171 OA
HETATM    2  C2  MIQ B 502      -6.951  -5.090  35.868  1.00141.17     0.195 A 
HETATM    3  C3  MIQ B 502      -5.397  -5.221  35.968  1.00141.71     0.035 A 
HETATM    4  C4  MIQ B 502      -4.491  -6.328  36.353  1.00142.86     0.046 A 
HETATM    5  C5  MIQ B 502      -3.085  -6.139  36.345  1.00139.53     0.031 A 
HETATM    6  C12 MIQ B 502      -2.532  -4.850  35.956  1.00139.38     0.030 A 
HETATM    7  C13 MIQ B 502      -3.401  -3.789  35.585  1.00141.18     0.019 A 
HETATM    8  C14 MIQ B 502      -4.875  -3.994  35.593  1.00138.77     0.033 A 
HETATM    9  C15 MIQ B 502      -6.111  -3.097  35.258  1.00142.10     0.195 A 
HETATM   10  N17 MIQ B 502      -7.177  -3.854  35.459  1.00139.42    -0.288 N 
HETATM   11  O16 MIQ B 502      -6.088  -1.766  34.836  1.00148.93    -0.171 OA
ENDROOT
BRANCH  10  12
HETATM   12  C18 MIQ B 502      -8.519  -3.340  35.258  1.00139.82     0.187 C 
HETATM   13  C19 MIQ B 502      -9.302  -3.556  36.559  1.00140.06     0.247 C 
HETATM   14  O25 MIQ B 502      -8.837  -3.188  37.579  1.00143.95    -0.271 OA
HETATM   15  N20 MIQ B 502     -10.601  -4.197  36.572  1.00140.02    -0.296 N 
HETATM   16  H13 MIQ B 502     -11.099  -4.338  37.429  1.00142.77     0.171 HD
HETATM   17  C21 MIQ B 502     -11.143  -4.647  35.316  1.00142.22     0.224 C 
HETATM   18  C22 MIQ B 502     -10.149  -5.144  34.284  1.00139.52     0.106 C 
HETATM   19  O24 MIQ B 502     -12.305  -4.625  35.101  1.00146.13    -0.273 OA
HETATM   20  C23 MIQ B 502      -9.169  -4.009  34.048  1.00139.15     0.045 C 
ENDBRANCH  10  12
BRANCH   5  21
HETATM   21  N6  MIQ B 502      -2.210  -7.228  36.739  1.00140.95    -0.377 N 
HETATM   22  C7  MIQ B 502      -0.950  -6.906  37.387  1.00142.12     0.149 C 
HETATM   23  C8  MIQ B 502       0.099  -7.988  37.161  1.00144.10     0.187 C 
HETATM   24  O9  MIQ B 502      -0.386  -9.274  37.405  1.00148.65    -0.388 OA
HETATM   25  C10 MIQ B 502      -1.753  -9.490  37.600  1.00147.44     0.187 C 
HETATM   26  C11 MIQ B 502      -2.745  -8.569  36.897  1.00144.08     0.149 C 
ENDBRANCH   5  21
TORSDOF 2
ENDMDL
