MODEL 1
REMARK VINA RESULT:      -6.1      0.000      0.000
REMARK  2 active torsions:
REMARK  status: ('A' for Active; 'I' for Inactive)
REMARK    1  A    between atoms: C5_5  and  N6_21 
REMARK    2  A    between atoms: C18_14  and  N17_19 
ROOT
HETATM    1  O1  MIQ B 502      -1.958 -12.694 -20.512  1.00142.91    -0.171 OA
HETATM    2  C2  MIQ B 502      -2.507 -11.733 -21.364  1.00141.17     0.195 A 
HETATM    3  C3  MIQ B 502      -3.957 -11.157 -21.293  1.00141.71     0.035 A 
HETATM    4  C4  MIQ B 502      -5.109 -11.406 -20.394  1.00142.86     0.046 A 
HETATM    5  C5  MIQ B 502      -6.330 -10.710 -20.584  1.00139.53     0.031 A 
HETATM    6  C12 MIQ B 502      -6.450  -9.744 -21.666  1.00139.38     0.030 A 
HETATM    7  C13 MIQ B 502      -5.345  -9.503 -22.527  1.00141.18     0.019 A 
HETATM    8  C14 MIQ B 502      -4.065 -10.236 -22.322  1.00138.77     0.033 A 
HETATM    9  C15 MIQ B 502      -2.675 -10.240 -23.036  1.00142.10     0.195 A 
HETATM   10  N17 MIQ B 502      -1.931 -11.117 -22.383  1.00139.42    -0.288 N 
HETATM   11  O16 MIQ B 502      -2.300  -9.473 -24.141  1.00148.93    -0.171 OA
ENDROOT
BRANCH  10  12
HETATM   12  C18 MIQ B 502      -0.565 -11.399 -22.782  1.00139.82     0.187 C 
HETATM   13  C19 MIQ B 502      -0.428 -12.918 -22.943  1.00140.06     0.247 C 
HETATM   14  O25 MIQ B 502      -1.209 -13.499 -23.608  1.00143.95    -0.271 OA
HETATM   15  N20 MIQ B 502       0.640 -13.660 -22.305  1.00140.02    -0.296 N 
HETATM   16  H13 MIQ B 502       0.714 -14.653 -22.413  1.00142.77     0.171 HD
HETATM   17  C21 MIQ B 502       1.576 -12.930 -21.490  1.00142.22     0.224 C 
HETATM   18  C22 MIQ B 502       1.031 -11.734 -20.733  1.00139.52     0.106 C 
HETATM   19  O24 MIQ B 502       2.712 -13.246 -21.420  1.00146.13    -0.273 OA
HETATM   20  C23 MIQ B 502       0.417 -10.811 -21.770  1.00139.15     0.045 C 
ENDBRANCH  10  12
BRANCH   5  21
HETATM   21  N6  MIQ B 502      -7.455 -10.975 -19.706  1.00140.95    -0.377 N 
HETATM   22  C7  MIQ B 502      -8.516 -11.846 -20.181  1.00142.12     0.149 C 
HETATM   23  C8  MIQ B 502      -9.848 -11.537 -19.509  1.00144.10     0.187 C 
HETATM   24  O9  MIQ B 502      -9.744 -11.426 -18.121  1.00148.65    -0.388 OA
HETATM   25  C10 MIQ B 502      -8.490 -11.378 -17.507  1.00147.44     0.187 C 
HETATM   26  C11 MIQ B 502      -7.325 -10.761 -18.275  1.00144.08     0.149 C 
ENDBRANCH   5  21
TORSDOF 2
ENDMDL
MODEL 2
REMARK VINA RESULT:      -6.0      5.799      8.596
REMARK  2 active torsions:
REMARK  status: ('A' for Active; 'I' for Inactive)
REMARK    1  A    between atoms: C5_5  and  N6_21 
REMARK    2  A    between atoms: C18_14  and  N17_19 
ROOT
HETATM    1  O1  MIQ B 502     -10.948 -10.743 -16.602  1.00142.91    -0.171 OA
HETATM    2  C2  MIQ B 502     -10.821 -11.101 -17.946  1.00141.17     0.195 A 
HETATM    3  C3  MIQ B 502     -11.845 -10.790 -19.084  1.00141.71     0.035 A 
HETATM    4  C4  MIQ B 502     -13.148 -10.086 -19.117  1.00142.86     0.046 A 
HETATM    5  C5  MIQ B 502     -13.863  -9.959 -20.335  1.00139.53     0.031 A 
HETATM    6  C12 MIQ B 502     -13.312 -10.524 -21.559  1.00139.38     0.030 A 
HETATM    7  C13 MIQ B 502     -12.062 -11.198 -21.527  1.00141.18     0.019 A 
HETATM    8  C14 MIQ B 502     -11.315 -11.326 -20.246  1.00138.77     0.033 A 
HETATM    9  C15 MIQ B 502      -9.954 -11.973 -19.827  1.00142.10     0.195 A 
HETATM   10  N17 MIQ B 502      -9.832 -11.758 -18.528  1.00139.42    -0.288 N 
HETATM   11  O16 MIQ B 502      -9.056 -12.643 -20.660  1.00148.93    -0.171 OA
ENDROOT
BRANCH  10  12
HETATM   12  C18 MIQ B 502      -8.682 -12.239 -17.785  1.00139.82     0.187 C 
HETATM   13  C19 MIQ B 502      -7.422 -11.831 -18.559  1.00140.06     0.247 C 
HETATM   14  O25 MIQ B 502      -7.291 -10.708 -18.895  1.00143.95    -0.271 OA
HETATM   15  N20 MIQ B 502      -6.383 -12.787 -18.884  1.00140.02    -0.296 N 
HETATM   16  H13 MIQ B 502      -5.568 -12.509 -19.395  1.00142.77     0.171 HD
HETATM   17  C21 MIQ B 502      -6.571 -14.154 -18.472  1.00142.22     0.224 C 
HETATM   18  C22 MIQ B 502      -7.996 -14.673 -18.463  1.00139.52     0.106 C 
HETATM   19  O24 MIQ B 502      -5.659 -14.833 -18.151  1.00146.13    -0.273 OA
HETATM   20  C23 MIQ B 502      -8.788 -13.746 -17.559  1.00139.15     0.045 C 
ENDBRANCH  10  12
BRANCH   5  21
HETATM   21  N6  MIQ B 502     -15.146  -9.279 -20.351  1.00140.95    -0.377 N 
HETATM   22  C7  MIQ B 502     -15.164  -7.828 -20.289  1.00142.12     0.149 C 
HETATM   23  C8  MIQ B 502     -16.456  -7.300 -19.680  1.00144.10     0.187 C 
HETATM   24  O9  MIQ B 502     -17.596  -7.889 -20.230  1.00148.65    -0.388 OA
HETATM   25  C10 MIQ B 502     -17.484  -8.999 -21.071  1.00147.44     0.187 C 
HETATM   26  C11 MIQ B 502     -16.324  -9.964 -20.854  1.00144.08     0.149 C 
ENDBRANCH   5  21
TORSDOF 2
ENDMDL
MODEL 3
REMARK VINA RESULT:      -6.0      3.487      6.159
REMARK  2 active torsions:
REMARK  status: ('A' for Active; 'I' for Inactive)
REMARK    1  A    between atoms: C5_5  and  N6_21 
REMARK    2  A    between atoms: C18_14  and  N17_19 
ROOT
HETATM    1  O1  MIQ B 502      -6.675  -9.964 -19.055  1.00142.91    -0.171 OA
HETATM    2  C2  MIQ B 502      -7.522 -11.009 -19.432  1.00141.17     0.195 A 
HETATM    3  C3  MIQ B 502      -8.845 -11.428 -18.716  1.00141.71     0.035 A 
HETATM    4  C4  MIQ B 502      -9.569 -10.912 -17.530  1.00142.86     0.046 A 
HETATM    5  C5  MIQ B 502     -10.782 -11.516 -17.112  1.00139.53     0.031 A 
HETATM    6  C12 MIQ B 502     -11.318 -12.649 -17.853  1.00139.38     0.030 A 
HETATM    7  C13 MIQ B 502     -10.625 -13.143 -18.991  1.00141.18     0.019 A 
HETATM    8  C14 MIQ B 502      -9.353 -12.503 -19.427  1.00138.77     0.033 A 
HETATM    9  C15 MIQ B 502      -8.340 -12.753 -20.591  1.00142.10     0.195 A 
HETATM   10  N17 MIQ B 502      -7.391 -11.842 -20.451  1.00139.42    -0.288 N 
HETATM   11  O16 MIQ B 502      -8.423 -13.740 -21.574  1.00148.93    -0.171 OA
ENDROOT
BRANCH  10  12
HETATM   12  C18 MIQ B 502      -6.260 -11.781 -21.357  1.00139.82     0.187 C 
HETATM   13  C19 MIQ B 502      -4.983 -11.730 -20.509  1.00140.06     0.247 C 
HETATM   14  O25 MIQ B 502      -4.823 -12.532 -19.660  1.00143.95    -0.271 OA
HETATM   15  N20 MIQ B 502      -3.962 -10.726 -20.726  1.00140.02    -0.296 N 
HETATM   16  H13 MIQ B 502      -3.136 -10.699 -20.162  1.00142.77     0.171 HD
HETATM   17  C21 MIQ B 502      -4.184  -9.750 -21.762  1.00142.22     0.224 C 
HETATM   18  C22 MIQ B 502      -5.620  -9.324 -22.000  1.00139.52     0.106 C 
HETATM   19  O24 MIQ B 502      -3.291  -9.310 -22.398  1.00146.13    -0.273 OA
HETATM   20  C23 MIQ B 502      -6.401 -10.590 -22.304  1.00139.15     0.045 C 
ENDBRANCH  10  12
BRANCH   5  21
HETATM   21  N6  MIQ B 502     -11.473 -11.010 -15.940  1.00140.95    -0.377 N 
HETATM   22  C7  MIQ B 502     -12.430  -9.930 -16.110  1.00142.12     0.149 C 
HETATM   23  C8  MIQ B 502     -12.575  -9.095 -14.844  1.00144.10     0.187 C 
HETATM   24  O9  MIQ B 502     -12.750  -9.872 -13.698  1.00148.65    -0.388 OA
HETATM   25  C10 MIQ B 502     -12.564 -11.256 -13.746  1.00147.44     0.187 C 
HETATM   26  C11 MIQ B 502     -11.554 -11.822 -14.739  1.00144.08     0.149 C 
ENDBRANCH   5  21
TORSDOF 2
ENDMDL
MODEL 4
REMARK VINA RESULT:      -6.0      3.342     10.290
REMARK  2 active torsions:
REMARK  status: ('A' for Active; 'I' for Inactive)
REMARK    1  A    between atoms: C5_5  and  N6_21 
REMARK    2  A    between atoms: C18_14  and  N17_19 
ROOT
HETATM    1  O1  MIQ B 502     -11.436 -11.641 -20.974  1.00142.91    -0.171 OA
HETATM    2  C2  MIQ B 502     -10.876 -11.277 -19.748  1.00141.17     0.195 A 
HETATM    3  C3  MIQ B 502      -9.365 -11.369 -19.361  1.00141.71     0.035 A 
HETATM    4  C4  MIQ B 502      -8.153 -11.818 -20.086  1.00142.86     0.046 A 
HETATM    5  C5  MIQ B 502      -6.885 -11.781 -19.453  1.00139.53     0.031 A 
HETATM    6  C12 MIQ B 502      -6.774 -11.298 -18.084  1.00139.38     0.030 A 
HETATM    7  C13 MIQ B 502      -7.935 -10.866 -17.390  1.00141.18     0.019 A 
HETATM    8  C14 MIQ B 502      -9.264 -10.905 -18.059  1.00138.77     0.033 A 
HETATM    9  C15 MIQ B 502     -10.720 -10.523 -17.636  1.00142.10     0.195 A 
HETATM   10  N17 MIQ B 502     -11.486 -10.787 -18.682  1.00139.42    -0.288 N 
HETATM   11  O16 MIQ B 502     -11.124 -10.010 -16.402  1.00148.93    -0.171 OA
ENDROOT
BRANCH  10  12
HETATM   12  C18 MIQ B 502     -12.919 -10.567 -18.646  1.00139.82     0.187 C 
HETATM   13  C19 MIQ B 502     -13.601 -11.843 -19.155  1.00140.06     0.247 C 
HETATM   14  O25 MIQ B 502     -13.303 -12.883 -18.684  1.00143.95    -0.271 OA
HETATM   15  N20 MIQ B 502     -14.607 -11.807 -20.197  1.00140.02    -0.296 N 
HETATM   16  H13 MIQ B 502     -15.040 -12.648 -20.525  1.00142.77     0.171 HD
HETATM   17  C21 MIQ B 502     -14.947 -10.528 -20.763  1.00142.22     0.224 C 
HETATM   18  C22 MIQ B 502     -13.829  -9.508 -20.861  1.00139.52     0.106 C 
HETATM   19  O24 MIQ B 502     -16.044 -10.285 -21.128  1.00146.13    -0.273 OA
HETATM   20  C23 MIQ B 502     -13.288  -9.325 -19.455  1.00139.15     0.045 C 
ENDBRANCH  10  12
BRANCH   5  21
HETATM   21  N6  MIQ B 502      -5.708 -12.239 -20.170  1.00140.95    -0.377 N 
HETATM   22  C7  MIQ B 502      -4.474 -11.485 -20.032  1.00142.12     0.149 C 
HETATM   23  C8  MIQ B 502      -3.571 -11.644 -21.249  1.00144.10     0.187 C 
HETATM   24  O9  MIQ B 502      -3.417 -12.975 -21.641  1.00148.65    -0.388 OA
HETATM   25  C10 MIQ B 502      -4.218 -13.975 -21.082  1.00147.44     0.187 C 
HETATM   26  C11 MIQ B 502      -5.630 -13.613 -20.634  1.00144.08     0.149 C 
ENDBRANCH   5  21
TORSDOF 2
ENDMDL
MODEL 5
REMARK VINA RESULT:      -5.9      3.310      5.945
REMARK  2 active torsions:
REMARK  status: ('A' for Active; 'I' for Inactive)
REMARK    1  A    between atoms: C5_5  and  N6_21 
REMARK    2  A    between atoms: C18_14  and  N17_19 
ROOT
HETATM    1  O1  MIQ B 502      -7.197 -10.231 -21.691  1.00142.91    -0.171 OA
HETATM    2  C2  MIQ B 502      -7.410 -11.256 -20.766  1.00141.17     0.195 A 
HETATM    3  C3  MIQ B 502      -8.795 -11.745 -20.235  1.00141.71     0.035 A 
HETATM    4  C4  MIQ B 502     -10.193 -11.334 -20.506  1.00142.86     0.046 A 
HETATM    5  C5  MIQ B 502     -11.271 -11.985 -19.853  1.00139.53     0.031 A 
HETATM    6  C12 MIQ B 502     -11.001 -13.063 -18.913  1.00139.38     0.030 A 
HETATM    7  C13 MIQ B 502      -9.660 -13.458 -18.654  1.00141.18     0.019 A 
HETATM    8  C14 MIQ B 502      -8.533 -12.773 -19.343  1.00138.77     0.033 A 
HETATM    9  C15 MIQ B 502      -6.977 -12.923 -19.322  1.00142.10     0.195 A 
HETATM   10  N17 MIQ B 502      -6.511 -12.015 -20.163  1.00139.42    -0.288 N 
HETATM   11  O16 MIQ B 502      -6.236 -13.831 -18.564  1.00148.93    -0.171 OA
ENDROOT
BRANCH  10  12
HETATM   12  C18 MIQ B 502      -5.087 -11.852 -20.389  1.00139.82     0.187 C 
HETATM   13  C19 MIQ B 502      -4.740 -10.378 -20.143  1.00140.06     0.247 C 
HETATM   14  O25 MIQ B 502      -5.088  -9.864 -19.140  1.00143.95    -0.271 OA
HETATM   15  N20 MIQ B 502      -3.989  -9.599 -21.107  1.00140.02    -0.296 N 
HETATM   16  H13 MIQ B 502      -3.775  -8.637 -20.937  1.00142.77     0.171 HD
HETATM   17  C21 MIQ B 502      -3.585 -10.246 -22.328  1.00142.22     0.224 C 
HETATM   18  C22 MIQ B 502      -4.524 -11.298 -22.886  1.00139.52     0.106 C 
HETATM   19  O24 MIQ B 502      -2.567  -9.973 -22.864  1.00146.13    -0.273 OA
HETATM   20  C23 MIQ B 502      -4.713 -12.332 -21.790  1.00139.15     0.045 C 
ENDBRANCH  10  12
BRANCH   5  21
HETATM   21  N6  MIQ B 502     -12.634 -11.562 -20.116  1.00140.95    -0.377 N 
HETATM   22  C7  MIQ B 502     -12.907 -10.816 -21.333  1.00142.12     0.149 C 
HETATM   23  C8  MIQ B 502     -14.129  -9.918 -21.187  1.00144.10     0.187 C 
HETATM   24  O9  MIQ B 502     -15.227 -10.579 -20.633  1.00148.65    -0.388 OA
HETATM   25  C10 MIQ B 502     -15.080 -11.854 -20.079  1.00147.44     0.187 C 
HETATM   26  C11 MIQ B 502     -13.741 -12.225 -19.449  1.00144.08     0.149 C 
ENDBRANCH   5  21
TORSDOF 2
ENDMDL
MODEL 6
REMARK VINA RESULT:      -5.9     12.871     14.937
REMARK  2 active torsions:
REMARK  status: ('A' for Active; 'I' for Inactive)
REMARK    1  A    between atoms: C5_5  and  N6_21 
REMARK    2  A    between atoms: C18_14  and  N17_19 
ROOT
HETATM    1  O1  MIQ B 502      -8.436  -2.002 -31.598  1.00142.91    -0.171 OA
HETATM    2  C2  MIQ B 502      -8.261  -1.307 -30.400  1.00141.17     0.195 A 
HETATM    3  C3  MIQ B 502      -9.296  -0.348 -29.730  1.00141.71     0.035 A 
HETATM    4  C4  MIQ B 502     -10.662   0.095 -30.099  1.00142.86     0.046 A 
HETATM    5  C5  MIQ B 502     -11.373   0.996 -29.266  1.00139.53     0.031 A 
HETATM    6  C12 MIQ B 502     -10.757   1.487 -28.042  1.00139.38     0.030 A 
HETATM    7  C13 MIQ B 502      -9.448   1.062 -27.687  1.00141.18     0.019 A 
HETATM    8  C14 MIQ B 502      -8.708   0.114 -28.564  1.00138.77     0.033 A 
HETATM    9  C15 MIQ B 502      -7.299  -0.562 -28.509  1.00142.10     0.195 A 
HETATM   10  N17 MIQ B 502      -7.213  -1.315 -29.594  1.00139.42    -0.288 N 
HETATM   11  O16 MIQ B 502      -6.331  -0.399 -27.517  1.00148.93    -0.171 OA
ENDROOT
BRANCH  10  12
HETATM   12  C18 MIQ B 502      -6.021  -2.089 -29.886  1.00139.82     0.187 C 
HETATM   13  C19 MIQ B 502      -5.783  -3.045 -28.710  1.00140.06     0.247 C 
HETATM   14  O25 MIQ B 502      -6.669  -3.727 -28.334  1.00143.95    -0.271 OA
HETATM   15  N20 MIQ B 502      -4.497  -3.139 -28.050  1.00140.02    -0.296 N 
HETATM   16  H13 MIQ B 502      -4.357  -3.762 -27.279  1.00142.77     0.171 HD
HETATM   17  C21 MIQ B 502      -3.434  -2.288 -28.520  1.00142.22     0.224 C 
HETATM   18  C22 MIQ B 502      -3.835  -0.921 -29.040  1.00139.52     0.106 C 
HETATM   19  O24 MIQ B 502      -2.307  -2.643 -28.505  1.00146.13    -0.273 OA
HETATM   20  C23 MIQ B 502      -4.837  -1.161 -30.154  1.00139.15     0.045 C 
ENDBRANCH  10  12
BRANCH   5  21
HETATM   21  N6  MIQ B 502     -12.703   1.433 -29.647  1.00140.95    -0.377 N 
HETATM   22  C7  MIQ B 502     -12.970   2.859 -29.726  1.00142.12     0.149 C 
HETATM   23  C8  MIQ B 502     -14.441   3.176 -29.491  1.00144.10     0.187 C 
HETATM   24  O9  MIQ B 502     -15.298   2.366 -30.239  1.00148.65    -0.388 OA
HETATM   25  C10 MIQ B 502     -14.802   1.254 -30.924  1.00147.44     0.187 C 
HETATM   26  C11 MIQ B 502     -13.592   0.524 -30.351  1.00144.08     0.149 C 
ENDBRANCH   5  21
TORSDOF 2
ENDMDL
MODEL 7
REMARK VINA RESULT:      -5.9      3.113      4.946
REMARK  2 active torsions:
REMARK  status: ('A' for Active; 'I' for Inactive)
REMARK    1  A    between atoms: C5_5  and  N6_21 
REMARK    2  A    between atoms: C18_14  and  N17_19 
ROOT
HETATM    1  O1  MIQ B 502      -6.785 -11.869 -22.503  1.00142.91    -0.171 OA
HETATM    2  C2  MIQ B 502      -6.632 -11.386 -21.202  1.00141.17     0.195 A 
HETATM    3  C3  MIQ B 502      -7.743 -11.320 -20.106  1.00141.71     0.035 A 
HETATM    4  C4  MIQ B 502      -9.173 -11.708 -20.080  1.00142.86     0.046 A 
HETATM    5  C5  MIQ B 502      -9.945 -11.523 -18.905  1.00139.53     0.031 A 
HETATM    6  C12 MIQ B 502      -9.327 -10.950 -17.718  1.00139.38     0.030 A 
HETATM    7  C13 MIQ B 502      -7.956 -10.578 -17.742  1.00141.18     0.019 A 
HETATM    8  C14 MIQ B 502      -7.150 -10.777 -18.978  1.00138.77     0.033 A 
HETATM    9  C15 MIQ B 502      -5.662 -10.505 -19.375  1.00142.10     0.195 A 
HETATM   10  N17 MIQ B 502      -5.543 -10.899 -20.632  1.00139.42    -0.288 N 
HETATM   11  O16 MIQ B 502      -4.668  -9.954 -18.565  1.00148.93    -0.171 OA
ENDROOT
BRANCH  10  12
HETATM   12  C18 MIQ B 502      -4.285 -10.780 -21.347  1.00139.82     0.187 C 
HETATM   13  C19 MIQ B 502      -4.565 -10.052 -22.667  1.00140.06     0.247 C 
HETATM   14  O25 MIQ B 502      -5.159  -9.033 -22.649  1.00143.95    -0.271 OA
HETATM   15  N20 MIQ B 502      -4.114 -10.578 -23.940  1.00140.02    -0.296 N 
HETATM   16  H13 MIQ B 502      -4.309 -10.097 -24.795  1.00142.77     0.171 HD
HETATM   17  C21 MIQ B 502      -3.400 -11.829 -23.938  1.00142.22     0.224 C 
HETATM   18  C22 MIQ B 502      -3.807 -12.844 -22.887  1.00139.52     0.106 C 
HETATM   19  O24 MIQ B 502      -2.537 -12.049 -24.715  1.00146.13    -0.273 OA
HETATM   20  C23 MIQ B 502      -3.652 -12.157 -21.542  1.00139.15     0.045 C 
ENDBRANCH  10  12
BRANCH   5  21
HETATM   21  N6  MIQ B 502     -11.348 -11.894 -18.898  1.00140.95    -0.377 N 
HETATM   22  C7  MIQ B 502     -12.276 -11.086 -18.127  1.00142.12     0.149 C 
HETATM   23  C8  MIQ B 502     -13.492 -11.887 -17.680  1.00144.10     0.187 C 
HETATM   24  O9  MIQ B 502     -14.065 -12.629 -18.715  1.00148.65    -0.388 OA
HETATM   25  C10 MIQ B 502     -13.405 -12.761 -19.940  1.00147.44     0.187 C 
HETATM   26  C11 MIQ B 502     -11.880 -12.740 -19.953  1.00144.08     0.149 C 
ENDBRANCH   5  21
TORSDOF 2
ENDMDL
MODEL 8
REMARK VINA RESULT:      -5.9      3.180      4.960
REMARK  2 active torsions:
REMARK  status: ('A' for Active; 'I' for Inactive)
REMARK    1  A    between atoms: C5_5  and  N6_21 
REMARK    2  A    between atoms: C18_14  and  N17_19 
ROOT
HETATM    1  O1  MIQ B 502      -5.219 -10.163 -18.494  1.00142.91    -0.171 OA
HETATM    2  C2  MIQ B 502      -6.128 -10.709 -19.403  1.00141.17     0.195 A 
HETATM    3  C3  MIQ B 502      -7.637 -11.007 -19.131  1.00141.71     0.035 A 
HETATM    4  C4  MIQ B 502      -8.515 -10.827 -17.951  1.00142.86     0.046 A 
HETATM    5  C5  MIQ B 502      -9.881 -11.200 -18.010  1.00139.53     0.031 A 
HETATM    6  C12 MIQ B 502     -10.424 -11.763 -19.238  1.00139.38     0.030 A 
HETATM    7  C13 MIQ B 502      -9.583 -11.934 -20.371  1.00141.18     0.019 A 
HETATM    8  C14 MIQ B 502      -8.150 -11.538 -20.303  1.00138.77     0.033 A 
HETATM    9  C15 MIQ B 502      -6.953 -11.570 -21.309  1.00142.10     0.195 A 
HETATM   10  N17 MIQ B 502      -5.914 -11.076 -20.655  1.00139.42    -0.288 N 
HETATM   11  O16 MIQ B 502      -6.980 -12.029 -22.626  1.00148.93    -0.171 OA
ENDROOT
BRANCH  10  12
HETATM   12  C18 MIQ B 502      -4.609 -10.966 -21.279  1.00139.82     0.187 C 
HETATM   13  C19 MIQ B 502      -4.786 -10.215 -22.604  1.00140.06     0.247 C 
HETATM   14  O25 MIQ B 502      -5.364  -9.187 -22.611  1.00143.95    -0.271 OA
HETATM   15  N20 MIQ B 502      -4.256 -10.730 -23.851  1.00140.02    -0.296 N 
HETATM   16  H13 MIQ B 502      -4.384 -10.233 -24.710  1.00142.77     0.171 HD
HETATM   17  C21 MIQ B 502      -3.562 -11.992 -23.819  1.00142.22     0.224 C 
HETATM   18  C22 MIQ B 502      -4.055 -13.015 -22.814  1.00139.52     0.106 C 
HETATM   19  O24 MIQ B 502      -2.651 -12.214 -24.537  1.00146.13    -0.273 OA
HETATM   20  C23 MIQ B 502      -3.984 -12.350 -21.451  1.00139.15     0.045 C 
ENDBRANCH  10  12
BRANCH   5  21
HETATM   21  N6  MIQ B 502     -10.726 -11.033 -16.841  1.00140.95    -0.377 N 
HETATM   22  C7  MIQ B 502     -11.790 -10.045 -16.889  1.00142.12     0.149 C 
HETATM   23  C8  MIQ B 502     -12.144  -9.522 -15.503  1.00144.10     0.187 C 
HETATM   24  O9  MIQ B 502     -12.318 -10.542 -14.566  1.00148.65    -0.388 OA
HETATM   25  C10 MIQ B 502     -11.960 -11.857 -14.875  1.00147.44     0.187 C 
HETATM   26  C11 MIQ B 502     -10.808 -12.089 -15.848  1.00144.08     0.149 C 
ENDBRANCH   5  21
TORSDOF 2
ENDMDL
MODEL 9
REMARK VINA RESULT:      -5.8     25.757     27.218
REMARK  2 active torsions:
REMARK  status: ('A' for Active; 'I' for Inactive)
REMARK    1  A    between atoms: C5_5  and  N6_21 
REMARK    2  A    between atoms: C18_14  and  N17_19 
ROOT
HETATM    1  O1  MIQ B 502      -0.432  17.327 -18.005  1.00142.91    -0.171 OA
HETATM    2  C2  MIQ B 502      -0.962  16.157 -17.457  1.00141.17     0.195 A 
HETATM    3  C3  MIQ B 502      -2.146  15.320 -18.039  1.00141.71     0.035 A 
HETATM    4  C4  MIQ B 502      -3.005  15.467 -19.238  1.00142.86     0.046 A 
HETATM    5  C5  MIQ B 502      -4.024  14.519 -19.509  1.00139.53     0.031 A 
HETATM    6  C12 MIQ B 502      -4.226  13.396 -18.605  1.00139.38     0.030 A 
HETATM    7  C13 MIQ B 502      -3.401  13.254 -17.457  1.00141.18     0.019 A 
HETATM    8  C14 MIQ B 502      -2.331  14.250 -17.178  1.00138.77     0.033 A 
HETATM    9  C15 MIQ B 502      -1.257  14.424 -16.055  1.00142.10     0.195 A 
HETATM   10  N17 MIQ B 502      -0.584  15.522 -16.361  1.00139.42    -0.288 N 
HETATM   11  O16 MIQ B 502      -1.055  13.589 -14.955  1.00148.93    -0.171 OA
ENDROOT
BRANCH  10  12
HETATM   12  C18 MIQ B 502       0.495  16.007 -15.521  1.00139.82     0.187 C 
HETATM   13  C19 MIQ B 502       1.487  14.855 -15.322  1.00140.06     0.247 C 
HETATM   14  O25 MIQ B 502       1.891  14.274 -16.266  1.00143.95    -0.271 OA
HETATM   15  N20 MIQ B 502       1.949  14.463 -14.006  1.00140.02    -0.296 N 
HETATM   16  H13 MIQ B 502       2.592  13.705 -13.889  1.00142.77     0.171 HD
HETATM   17  C21 MIQ B 502       1.433  15.181 -12.869  1.00142.22     0.224 C 
HETATM   18  C22 MIQ B 502       0.004  15.680 -12.969  1.00139.52     0.106 C 
HETATM   19  O24 MIQ B 502       2.094  15.374 -11.908  1.00146.13    -0.273 OA
HETATM   20  C23 MIQ B 502      -0.060  16.556 -14.207  1.00139.15     0.045 C 
ENDBRANCH  10  12
BRANCH   5  21
HETATM   21  N6  MIQ B 502      -4.868  14.684 -20.679  1.00140.95    -0.377 N 
HETATM   22  C7  MIQ B 502      -6.259  15.056 -20.484  1.00142.12     0.149 C 
HETATM   23  C8  MIQ B 502      -7.141  14.578 -21.631  1.00144.10     0.187 C 
HETATM   24  O9  MIQ B 502      -6.612  14.882 -22.887  1.00148.65    -0.388 OA
HETATM   25  C10 MIQ B 502      -5.304  15.359 -23.007  1.00147.44     0.187 C 
HETATM   26  C11 MIQ B 502      -4.267  14.913 -21.981  1.00144.08     0.149 C 
ENDBRANCH   5  21
TORSDOF 2
ENDMDL
