MODEL 1
REMARK VINA RESULT:      -6.3      0.000      0.000
REMARK  2 active torsions:
REMARK  status: ('A' for Active; 'I' for Inactive)
REMARK    1  A    between atoms: C5_5  and  N6_21 
REMARK    2  A    between atoms: C18_14  and  N17_19 
ROOT
HETATM    1  O1  MIQ B 502       0.949  -1.436 -17.325  1.00142.91    -0.171 OA
HETATM    2  C2  MIQ B 502       1.731  -1.524 -18.478  1.00141.17     0.195 A 
HETATM    3  C3  MIQ B 502       1.945  -0.396 -19.537  1.00141.71     0.035 A 
HETATM    4  C4  MIQ B 502       1.448   0.995 -19.658  1.00142.86     0.046 A 
HETATM    5  C5  MIQ B 502       1.827   1.799 -20.762  1.00139.53     0.031 A 
HETATM    6  C12 MIQ B 502       2.712   1.253 -21.782  1.00139.38     0.030 A 
HETATM    7  C13 MIQ B 502       3.190  -0.080 -21.666  1.00141.18     0.019 A 
HETATM    8  C14 MIQ B 502       2.789  -0.918 -20.503  1.00138.77     0.033 A 
HETATM    9  C15 MIQ B 502       3.102  -2.379 -20.041  1.00142.10     0.195 A 
HETATM   10  N17 MIQ B 502       2.444  -2.552 -18.907  1.00139.42    -0.288 N 
HETATM   11  O16 MIQ B 502       3.911  -3.308 -20.698  1.00148.93    -0.171 OA
ENDROOT
BRANCH  10  12
HETATM   12  C18 MIQ B 502       2.488  -3.813 -18.191  1.00139.82     0.187 C 
HETATM   13  C19 MIQ B 502       3.959  -4.127 -17.889  1.00140.06     0.247 C 
HETATM   14  O25 MIQ B 502       4.630  -3.305 -17.374  1.00143.95    -0.271 OA
HETATM   15  N20 MIQ B 502       4.548  -5.411 -18.212  1.00140.02    -0.296 N 
HETATM   16  H13 MIQ B 502       5.511  -5.601 -18.016  1.00142.77     0.171 HD
HETATM   17  C21 MIQ B 502       3.711  -6.395 -18.849  1.00142.22     0.224 C 
HETATM   18  C22 MIQ B 502       2.648  -5.875 -19.797  1.00139.52     0.106 C 
HETATM   19  O24 MIQ B 502       3.846  -7.550 -18.638  1.00146.13    -0.273 OA
HETATM   20  C23 MIQ B 502       1.793  -4.908 -18.998  1.00139.15     0.045 C 
ENDBRANCH  10  12
BRANCH   5  21
HETATM   21  N6  MIQ B 502       1.321   3.154 -20.876  1.00140.95    -0.377 N 
HETATM   22  C7  MIQ B 502       0.965   3.867 -19.661  1.00142.12     0.149 C 
HETATM   23  C8  MIQ B 502      -0.097   4.929 -19.915  1.00144.10     0.187 C 
HETATM   24  O9  MIQ B 502       0.194   5.736 -21.016  1.00148.65    -0.388 OA
HETATM   25  C10 MIQ B 502       1.236   5.400 -21.884  1.00147.44     0.187 C 
HETATM   26  C11 MIQ B 502       1.576   3.926 -22.080  1.00144.08     0.149 C 
ENDBRANCH   5  21
TORSDOF 2
ENDMDL
MODEL 2
REMARK VINA RESULT:      -6.3      2.679      3.944
REMARK  2 active torsions:
REMARK  status: ('A' for Active; 'I' for Inactive)
REMARK    1  A    between atoms: C5_5  and  N6_21 
REMARK    2  A    between atoms: C18_14  and  N17_19 
ROOT
HETATM    1  O1  MIQ B 502       3.133  -0.577 -23.088  1.00142.91    -0.171 OA
HETATM    2  C2  MIQ B 502       2.928  -0.970 -21.764  1.00141.17     0.195 A 
HETATM    3  C3  MIQ B 502       2.266  -0.112 -20.639  1.00141.71     0.035 A 
HETATM    4  C4  MIQ B 502       1.694   1.255 -20.604  1.00142.86     0.046 A 
HETATM    5  C5  MIQ B 502       1.149   1.773 -19.402  1.00139.53     0.031 A 
HETATM    6  C12 MIQ B 502       1.152   0.956 -18.196  1.00139.38     0.030 A 
HETATM    7  C13 MIQ B 502       1.700  -0.354 -18.230  1.00141.18     0.019 A 
HETATM    8  C14 MIQ B 502       2.269  -0.894 -19.495  1.00138.77     0.033 A 
HETATM    9  C15 MIQ B 502       2.935  -2.245 -19.912  1.00142.10     0.195 A 
HETATM   10  N17 MIQ B 502       3.237  -2.123 -21.194  1.00139.42    -0.288 N 
HETATM   11  O16 MIQ B 502       3.164  -3.352 -19.093  1.00148.93    -0.171 OA
ENDROOT
BRANCH  10  12
HETATM   12  C18 MIQ B 502       3.892  -3.193 -21.924  1.00139.82     0.187 C 
HETATM   13  C19 MIQ B 502       5.166  -2.617 -22.555  1.00140.06     0.247 C 
HETATM   14  O25 MIQ B 502       5.924  -2.017 -21.879  1.00143.95    -0.271 OA
HETATM   15  N20 MIQ B 502       5.469  -2.794 -23.961  1.00140.02    -0.296 N 
HETATM   16  H13 MIQ B 502       6.300  -2.408 -24.362  1.00142.77     0.171 HD
HETATM   17  C21 MIQ B 502       4.523  -3.521 -24.768  1.00142.22     0.224 C 
HETATM   18  C22 MIQ B 502       3.059  -3.376 -24.399  1.00139.52     0.106 C 
HETATM   19  O24 MIQ B 502       4.874  -4.201 -25.669  1.00146.13    -0.273 OA
HETATM   20  C23 MIQ B 502       2.936  -3.801 -22.948  1.00139.15     0.045 C 
ENDBRANCH  10  12
BRANCH   5  21
HETATM   21  N6  MIQ B 502       0.605   3.118 -19.378  1.00140.95    -0.377 N 
HETATM   22  C7  MIQ B 502       1.376   4.190 -19.983  1.00142.12     0.149 C 
HETATM   23  C8  MIQ B 502       1.059   5.542 -19.357  1.00144.10     0.187 C 
HETATM   24  O9  MIQ B 502      -0.312   5.782 -19.247  1.00148.65    -0.388 OA
HETATM   25  C10 MIQ B 502      -1.231   4.757 -19.484  1.00147.44     0.187 C 
HETATM   26  C11 MIQ B 502      -0.819   3.322 -19.174  1.00144.08     0.149 C 
ENDBRANCH   5  21
TORSDOF 2
ENDMDL
MODEL 3
REMARK VINA RESULT:      -6.3      1.448      2.585
REMARK  2 active torsions:
REMARK  status: ('A' for Active; 'I' for Inactive)
REMARK    1  A    between atoms: C5_5  and  N6_21 
REMARK    2  A    between atoms: C18_14  and  N17_19 
ROOT
HETATM    1  O1  MIQ B 502       3.573  -2.298 -21.348  1.00142.91    -0.171 OA
HETATM    2  C2  MIQ B 502       2.872  -1.600 -20.362  1.00141.17     0.195 A 
HETATM    3  C3  MIQ B 502       2.407  -0.111 -20.441  1.00141.71     0.035 A 
HETATM    4  C4  MIQ B 502       2.536   0.944 -21.475  1.00142.86     0.046 A 
HETATM    5  C5  MIQ B 502       1.995   2.235 -21.253  1.00139.53     0.031 A 
HETATM    6  C12 MIQ B 502       1.308   2.525 -20.002  1.00139.38     0.030 A 
HETATM    7  C13 MIQ B 502       1.183   1.514 -19.012  1.00141.18     0.019 A 
HETATM    8  C14 MIQ B 502       1.751   0.160 -19.251  1.00138.77     0.033 A 
HETATM    9  C15 MIQ B 502       1.809  -1.169 -18.429  1.00142.10     0.195 A 
HETATM   10  N17 MIQ B 502       2.459  -2.038 -19.186  1.00139.42    -0.288 N 
HETATM   11  O16 MIQ B 502       1.283  -1.387 -17.155  1.00148.93    -0.171 OA
ENDROOT
BRANCH  10  12
HETATM   12  C18 MIQ B 502       2.717  -3.392 -18.732  1.00139.82     0.187 C 
HETATM   13  C19 MIQ B 502       4.223  -3.651 -18.867  1.00140.06     0.247 C 
HETATM   14  O25 MIQ B 502       4.984  -2.878 -18.403  1.00143.95    -0.271 OA
HETATM   15  N20 MIQ B 502       4.739  -4.823 -19.544  1.00140.02    -0.296 N 
HETATM   16  H13 MIQ B 502       5.724  -4.977 -19.631  1.00142.77     0.171 HD
HETATM   17  C21 MIQ B 502       3.790  -5.746 -20.112  1.00142.22     0.224 C 
HETATM   18  C22 MIQ B 502       2.506  -5.154 -20.659  1.00139.52     0.106 C 
HETATM   19  O24 MIQ B 502       4.002  -6.909 -20.143  1.00146.13    -0.273 OA
HETATM   20  C23 MIQ B 502       1.863  -4.388 -19.516  1.00139.15     0.045 C 
ENDBRANCH  10  12
BRANCH   5  21
HETATM   21  N6  MIQ B 502       2.141   3.263 -22.268  1.00140.95    -0.377 N 
HETATM   22  C7  MIQ B 502       1.326   3.175 -23.467  1.00142.12     0.149 C 
HETATM   23  C8  MIQ B 502       1.989   3.860 -24.656  1.00144.10     0.187 C 
HETATM   24  O9  MIQ B 502       2.468   5.136 -24.351  1.00148.65    -0.388 OA
HETATM   25  C10 MIQ B 502       2.513   5.576 -23.026  1.00147.44     0.187 C 
HETATM   26  C11 MIQ B 502       2.725   4.547 -21.921  1.00144.08     0.149 C 
ENDBRANCH   5  21
TORSDOF 2
ENDMDL
MODEL 4
REMARK VINA RESULT:      -6.2      1.559      2.169
REMARK  2 active torsions:
REMARK  status: ('A' for Active; 'I' for Inactive)
REMARK    1  A    between atoms: C5_5  and  N6_21 
REMARK    2  A    between atoms: C18_14  and  N17_19 
ROOT
HETATM    1  O1  MIQ B 502       1.587  -2.045 -18.165  1.00142.91    -0.171 OA
HETATM    2  C2  MIQ B 502       2.152  -1.610 -19.366  1.00141.17     0.195 A 
HETATM    3  C3  MIQ B 502       2.049  -0.172 -19.967  1.00141.71     0.035 A 
HETATM    4  C4  MIQ B 502       1.393   1.077 -19.513  1.00142.86     0.046 A 
HETATM    5  C5  MIQ B 502       1.479   2.257 -20.295  1.00139.53     0.031 A 
HETATM    6  C12 MIQ B 502       2.216   2.239 -21.550  1.00139.38     0.030 A 
HETATM    7  C13 MIQ B 502       2.846   1.042 -21.985  1.00141.18     0.019 A 
HETATM    8  C14 MIQ B 502       2.755  -0.192 -21.159  1.00138.77     0.033 A 
HETATM    9  C15 MIQ B 502       3.299  -1.651 -21.299  1.00142.10     0.195 A 
HETATM   10  N17 MIQ B 502       2.879  -2.302 -20.226  1.00139.42    -0.288 N 
HETATM   11  O16 MIQ B 502       4.070  -2.159 -22.346  1.00148.93    -0.171 OA
ENDROOT
BRANCH  10  12
HETATM   12  C18 MIQ B 502       3.187  -3.706 -20.023  1.00139.82     0.187 C 
HETATM   13  C19 MIQ B 502       1.866  -4.442 -19.770  1.00140.06     0.247 C 
HETATM   14  O25 MIQ B 502       0.969  -4.292 -20.521  1.00143.95    -0.271 OA
HETATM   15  N20 MIQ B 502       1.689  -5.324 -18.634  1.00140.02    -0.296 N 
HETATM   16  H13 MIQ B 502       0.819  -5.793 -18.476  1.00142.77     0.171 HD
HETATM   17  C21 MIQ B 502       2.794  -5.482 -17.724  1.00142.22     0.224 C 
HETATM   18  C22 MIQ B 502       3.684  -4.272 -17.515  1.00139.52     0.106 C 
HETATM   19  O24 MIQ B 502       2.999  -6.508 -17.174  1.00146.13    -0.273 OA
HETATM   20  C23 MIQ B 502       4.195  -3.870 -18.887  1.00139.15     0.045 C 
ENDBRANCH  10  12
BRANCH   5  21
HETATM   21  N6  MIQ B 502       0.819   3.469 -19.846  1.00140.95    -0.377 N 
HETATM   22  C7  MIQ B 502       1.338   4.750 -20.295  1.00142.12     0.149 C 
HETATM   23  C8  MIQ B 502       1.022   5.868 -19.310  1.00144.10     0.187 C 
HETATM   24  O9  MIQ B 502      -0.314   5.875 -18.905  1.00148.65    -0.388 OA
HETATM   25  C10 MIQ B 502      -1.154   4.804 -19.222  1.00147.44     0.187 C 
HETATM   26  C11 MIQ B 502      -0.545   3.412 -19.351  1.00144.08     0.149 C 
ENDBRANCH   5  21
TORSDOF 2
ENDMDL
MODEL 5
REMARK VINA RESULT:      -6.1      4.277     10.090
REMARK  2 active torsions:
REMARK  status: ('A' for Active; 'I' for Inactive)
REMARK    1  A    between atoms: C5_5  and  N6_21 
REMARK    2  A    between atoms: C18_14  and  N17_19 
ROOT
HETATM    1  O1  MIQ B 502       2.449  -5.226 -17.462  1.00142.91    -0.171 OA
HETATM    2  C2  MIQ B 502       2.958  -5.721 -18.665  1.00141.17     0.195 A 
HETATM    3  C3  MIQ B 502       3.137  -7.226 -19.041  1.00141.71     0.035 A 
HETATM    4  C4  MIQ B 502       2.856  -8.495 -18.329  1.00142.86     0.046 A 
HETATM    5  C5  MIQ B 502       3.131  -9.740 -18.948  1.00139.53     0.031 A 
HETATM    6  C12 MIQ B 502       3.693  -9.771 -20.291  1.00139.38     0.030 A 
HETATM    7  C13 MIQ B 502       3.962  -8.555 -20.974  1.00141.18     0.019 A 
HETATM    8  C14 MIQ B 502       3.669  -7.250 -20.320  1.00138.77     0.033 A 
HETATM    9  C15 MIQ B 502       3.820  -5.752 -20.741  1.00142.10     0.195 A 
HETATM   10  N17 MIQ B 502       3.380  -5.039 -19.716  1.00139.42    -0.288 N 
HETATM   11  O16 MIQ B 502       4.320  -5.270 -21.952  1.00148.93    -0.171 OA
ENDROOT
BRANCH  10  12
HETATM   12  C18 MIQ B 502       3.386  -3.589 -19.745  1.00139.82     0.187 C 
HETATM   13  C19 MIQ B 502       2.648  -3.143 -21.013  1.00140.06     0.247 C 
HETATM   14  O25 MIQ B 502       1.577  -3.584 -21.241  1.00143.95    -0.271 OA
HETATM   15  N20 MIQ B 502       3.225  -2.190 -21.938  1.00140.02    -0.296 N 
HETATM   16  H13 MIQ B 502       2.736  -1.912 -22.766  1.00142.77     0.171 HD
HETATM   17  C21 MIQ B 502       4.537  -1.674 -21.643  1.00142.22     0.224 C 
HETATM   18  C22 MIQ B 502       5.500  -2.617 -20.948  1.00139.52     0.106 C 
HETATM   19  O24 MIQ B 502       4.844  -0.568 -21.926  1.00146.13    -0.273 OA
HETATM   20  C23 MIQ B 502       4.818  -3.061 -19.666  1.00139.15     0.045 C 
ENDBRANCH  10  12
BRANCH   5  21
HETATM   21  N6  MIQ B 502       2.865 -10.975 -18.233  1.00140.95    -0.377 N 
HETATM   22  C7  MIQ B 502       2.468 -10.898 -16.837  1.00142.12     0.149 C 
HETATM   23  C8  MIQ B 502       2.842 -12.159 -16.069  1.00144.10     0.187 C 
HETATM   24  O9  MIQ B 502       2.468 -13.330 -16.732  1.00148.65    -0.388 OA
HETATM   25  C10 MIQ B 502       2.020 -13.282 -18.055  1.00147.44     0.187 C 
HETATM   26  C11 MIQ B 502       2.564 -12.190 -18.970  1.00144.08     0.149 C 
ENDBRANCH   5  21
TORSDOF 2
ENDMDL
MODEL 6
REMARK VINA RESULT:      -6.1      3.646      9.544
REMARK  2 active torsions:
REMARK  status: ('A' for Active; 'I' for Inactive)
REMARK    1  A    between atoms: C5_5  and  N6_21 
REMARK    2  A    between atoms: C18_14  and  N17_19 
ROOT
HETATM    1  O1  MIQ B 502       2.210  -4.607 -17.829  1.00142.91    -0.171 OA
HETATM    2  C2  MIQ B 502       2.942  -5.075 -18.923  1.00141.17     0.195 A 
HETATM    3  C3  MIQ B 502       3.106  -6.568 -19.352  1.00141.71     0.035 A 
HETATM    4  C4  MIQ B 502       2.595  -7.847 -18.805  1.00142.86     0.046 A 
HETATM    5  C5  MIQ B 502       2.923  -9.076 -19.431  1.00139.53     0.031 A 
HETATM    6  C12 MIQ B 502       3.766  -9.080 -20.618  1.00139.38     0.030 A 
HETATM    7  C13 MIQ B 502       4.255  -7.853 -21.143  1.00141.18     0.019 A 
HETATM    8  C14 MIQ B 502       3.906  -6.566 -20.483  1.00138.77     0.033 A 
HETATM    9  C15 MIQ B 502       4.239  -5.063 -20.759  1.00142.10     0.195 A 
HETATM   10  N17 MIQ B 502       3.628  -4.374 -19.809  1.00139.42    -0.288 N 
HETATM   11  O16 MIQ B 502       5.024  -4.558 -21.796  1.00148.93    -0.171 OA
ENDROOT
BRANCH  10  12
HETATM   12  C18 MIQ B 502       3.730  -2.928 -19.738  1.00139.82     0.187 C 
HETATM   13  C19 MIQ B 502       4.136  -2.557 -18.306  1.00140.06     0.247 C 
HETATM   14  O25 MIQ B 502       5.068  -3.089 -17.816  1.00143.95    -0.271 OA
HETATM   15  N20 MIQ B 502       3.410  -1.567 -17.539  1.00140.02    -0.296 N 
HETATM   16  H13 MIQ B 502       3.682  -1.338 -16.602  1.00142.77     0.171 HD
HETATM   17  C21 MIQ B 502       2.270  -0.939 -18.155  1.00142.22     0.224 C 
HETATM   18  C22 MIQ B 502       1.456  -1.791 -19.110  1.00139.52     0.106 C 
HETATM   19  O24 MIQ B 502       1.987   0.186 -17.930  1.00146.13    -0.273 OA
HETATM   20  C23 MIQ B 502       2.418  -2.280 -20.177  1.00139.15     0.045 C 
ENDBRANCH  10  12
BRANCH   5  21
HETATM   21  N6  MIQ B 502       2.428 -10.323 -18.876  1.00140.95    -0.377 N 
HETATM   22  C7  MIQ B 502       2.392 -11.497 -19.730  1.00142.12     0.149 C 
HETATM   23  C8  MIQ B 502       1.319 -12.486 -19.292  1.00144.10     0.187 C 
HETATM   24  O9  MIQ B 502       1.347 -12.746 -17.921  1.00148.65    -0.388 OA
HETATM   25  C10 MIQ B 502       2.141 -11.972 -17.070  1.00147.44     0.187 C 
HETATM   26  C11 MIQ B 502       2.397 -10.514 -17.437  1.00144.08     0.149 C 
ENDBRANCH   5  21
TORSDOF 2
ENDMDL
MODEL 7
REMARK VINA RESULT:      -6.0      1.790      2.986
REMARK  2 active torsions:
REMARK  status: ('A' for Active; 'I' for Inactive)
REMARK    1  A    between atoms: C5_5  and  N6_21 
REMARK    2  A    between atoms: C18_14  and  N17_19 
ROOT
HETATM    1  O1  MIQ B 502       4.021  -1.987 -22.382  1.00142.91    -0.171 OA
HETATM    2  C2  MIQ B 502       3.262  -1.524 -21.305  1.00141.17     0.195 A 
HETATM    3  C3  MIQ B 502       2.711  -0.075 -21.120  1.00141.71     0.035 A 
HETATM    4  C4  MIQ B 502       2.796   1.160 -21.936  1.00142.86     0.046 A 
HETATM    5  C5  MIQ B 502       2.175   2.355 -21.495  1.00139.53     0.031 A 
HETATM    6  C12 MIQ B 502       1.449   2.369 -20.233  1.00139.38     0.030 A 
HETATM    7  C13 MIQ B 502       1.366   1.186 -19.451  1.00141.18     0.019 A 
HETATM    8  C14 MIQ B 502       2.018  -0.067 -19.920  1.00138.77     0.033 A 
HETATM    9  C15 MIQ B 502       2.139  -1.521 -19.357  1.00142.10     0.195 A 
HETATM   10  N17 MIQ B 502       2.853  -2.197 -20.243  1.00139.42    -0.288 N 
HETATM   11  O16 MIQ B 502       1.603  -2.002 -18.161  1.00148.93    -0.171 OA
ENDROOT
BRANCH  10  12
HETATM   12  C18 MIQ B 502       3.183  -3.596 -20.040  1.00139.82     0.187 C 
HETATM   13  C19 MIQ B 502       1.874  -4.353 -19.788  1.00140.06     0.247 C 
HETATM   14  O25 MIQ B 502       0.975  -4.217 -20.541  1.00143.95    -0.271 OA
HETATM   15  N20 MIQ B 502       1.710  -5.238 -18.653  1.00140.02    -0.296 N 
HETATM   16  H13 MIQ B 502       0.848  -5.722 -18.496  1.00142.77     0.171 HD
HETATM   17  C21 MIQ B 502       2.817  -5.380 -17.743  1.00142.22     0.224 C 
HETATM   18  C22 MIQ B 502       3.687  -4.155 -17.532  1.00139.52     0.106 C 
HETATM   19  O24 MIQ B 502       3.038  -6.402 -17.193  1.00146.13    -0.273 OA
HETATM   20  C23 MIQ B 502       4.192  -3.745 -18.903  1.00139.15     0.045 C 
ENDBRANCH  10  12
BRANCH   5  21
HETATM   21  N6  MIQ B 502       2.279   3.561 -22.297  1.00140.95    -0.377 N 
HETATM   22  C7  MIQ B 502       1.479   3.662 -23.505  1.00142.12     0.149 C 
HETATM   23  C8  MIQ B 502       2.117   4.588 -24.533  1.00144.10     0.187 C 
HETATM   24  O9  MIQ B 502       2.530   5.804 -23.987  1.00148.65    -0.388 OA
HETATM   25  C10 MIQ B 502       2.543   5.990 -22.602  1.00147.44     0.187 C 
HETATM   26  C11 MIQ B 502       2.797   4.782 -21.706  1.00144.08     0.149 C 
ENDBRANCH   5  21
TORSDOF 2
ENDMDL
MODEL 8
REMARK VINA RESULT:      -6.0      1.913      2.749
REMARK  2 active torsions:
REMARK  status: ('A' for Active; 'I' for Inactive)
REMARK    1  A    between atoms: C5_5  and  N6_21 
REMARK    2  A    between atoms: C18_14  and  N17_19 
ROOT
HETATM    1  O1  MIQ B 502       1.719  -4.413 -18.921  1.00142.91    -0.171 OA
HETATM    2  C2  MIQ B 502       2.705  -3.921 -19.779  1.00141.17     0.195 A 
HETATM    3  C3  MIQ B 502       2.826  -2.453 -20.299  1.00141.71     0.035 A 
HETATM    4  C4  MIQ B 502       2.027  -1.224 -20.078  1.00142.86     0.046 A 
HETATM    5  C5  MIQ B 502       2.397  -0.006 -20.703  1.00139.53     0.031 A 
HETATM    6  C12 MIQ B 502       3.569   0.036 -21.566  1.00139.38     0.030 A 
HETATM    7  C13 MIQ B 502       4.336  -1.141 -21.777  1.00141.18     0.019 A 
HETATM    8  C14 MIQ B 502       3.944  -2.416 -21.116  1.00138.77     0.033 A 
HETATM    9  C15 MIQ B 502       4.520  -3.870 -21.103  1.00142.10     0.195 A 
HETATM   10  N17 MIQ B 502       3.721  -4.572 -20.317  1.00139.42    -0.288 N 
HETATM   11  O16 MIQ B 502       5.647  -4.328 -21.788  1.00148.93    -0.171 OA
ENDROOT
BRANCH  10  12
HETATM   12  C18 MIQ B 502       3.944  -5.986 -20.080  1.00139.82     0.187 C 
HETATM   13  C19 MIQ B 502       2.679  -6.738 -20.511  1.00140.06     0.247 C 
HETATM   14  O25 MIQ B 502       2.226  -6.537 -21.581  1.00143.95    -0.271 OA
HETATM   15  N20 MIQ B 502       2.025  -7.694 -19.641  1.00140.02    -0.296 N 
HETATM   16  H13 MIQ B 502       1.195  -8.173 -19.932  1.00142.77     0.171 HD
HETATM   17  C21 MIQ B 502       2.590  -7.915 -18.335  1.00142.22     0.224 C 
HETATM   18  C22 MIQ B 502       3.245  -6.722 -17.666  1.00139.52     0.106 C 
HETATM   19  O24 MIQ B 502       2.550  -8.975 -17.815  1.00146.13    -0.273 OA
HETATM   20  C23 MIQ B 502       4.318  -6.228 -18.618  1.00139.15     0.045 C 
ENDBRANCH  10  12
BRANCH   5  21
HETATM   21  N6  MIQ B 502       1.597   1.186 -20.489  1.00140.95    -0.377 N 
HETATM   22  C7  MIQ B 502       1.192   1.517 -19.134  1.00142.12     0.149 C 
HETATM   23  C8  MIQ B 502      -0.095   2.332 -19.108  1.00144.10     0.187 C 
HETATM   24  O9  MIQ B 502      -0.078   3.402 -20.004  1.00148.65    -0.388 OA
HETATM   25  C10 MIQ B 502       0.939   3.513 -20.956  1.00147.44     0.187 C 
HETATM   26  C11 MIQ B 502       1.578   2.236 -21.492  1.00144.08     0.149 C 
ENDBRANCH   5  21
TORSDOF 2
ENDMDL
MODEL 9
REMARK VINA RESULT:      -5.9      7.684     10.726
REMARK  2 active torsions:
REMARK  status: ('A' for Active; 'I' for Inactive)
REMARK    1  A    between atoms: C5_5  and  N6_21 
REMARK    2  A    between atoms: C18_14  and  N17_19 
ROOT
HETATM    1  O1  MIQ B 502       1.371   8.248 -19.998  1.00142.91    -0.171 OA
HETATM    2  C2  MIQ B 502       2.259   8.102 -18.930  1.00141.17     0.195 A 
HETATM    3  C3  MIQ B 502       2.329   9.006 -17.658  1.00141.71     0.035 A 
HETATM    4  C4  MIQ B 502       1.560  10.189 -17.205  1.00142.86     0.046 A 
HETATM    5  C5  MIQ B 502       1.864  10.811 -15.968  1.00139.53     0.031 A 
HETATM    6  C12 MIQ B 502       2.937  10.282 -15.138  1.00139.38     0.030 A 
HETATM    7  C13 MIQ B 502       3.674   9.147 -15.571  1.00141.18     0.019 A 
HETATM    8  C14 MIQ B 502       3.349   8.497 -16.870  1.00138.77     0.033 A 
HETATM    9  C15 MIQ B 502       3.914   7.270 -17.657  1.00142.10     0.195 A 
HETATM   10  N17 MIQ B 502       3.201   7.189 -18.769  1.00139.42    -0.288 N 
HETATM   11  O16 MIQ B 502       4.961   6.434 -17.263  1.00148.93    -0.171 OA
ENDROOT
BRANCH  10  12
HETATM   12  C18 MIQ B 502       3.461   6.163 -19.762  1.00139.82     0.187 C 
HETATM   13  C19 MIQ B 502       3.651   6.859 -21.115  1.00140.06     0.247 C 
HETATM   14  O25 MIQ B 502       4.412   7.756 -21.199  1.00143.95    -0.271 OA
HETATM   15  N20 MIQ B 502       2.925   6.443 -22.297  1.00140.02    -0.296 N 
HETATM   16  H13 MIQ B 502       3.053   6.910 -23.173  1.00142.77     0.171 HD
HETATM   17  C21 MIQ B 502       1.993   5.352 -22.167  1.00142.22     0.224 C 
HETATM   18  C22 MIQ B 502       1.264   5.234 -20.842  1.00139.52     0.106 C 
HETATM   19  O24 MIQ B 502       1.811   4.586 -23.048  1.00146.13    -0.273 OA
HETATM   20  C23 MIQ B 502       2.333   5.133 -19.769  1.00139.15     0.045 C 
ENDBRANCH  10  12
BRANCH   5  21
HETATM   21  N6  MIQ B 502       1.113  11.978 -15.544  1.00140.95    -0.377 N 
HETATM   22  C7  MIQ B 502       1.749  12.924 -14.643  1.00142.12     0.149 C 
HETATM   23  C8  MIQ B 502       0.730  13.681 -13.802  1.00144.10     0.187 C 
HETATM   24  O9  MIQ B 502      -0.326  14.194 -14.558  1.00148.65    -0.388 OA
HETATM   25  C10 MIQ B 502      -0.490  13.816 -15.893  1.00147.44     0.187 C 
HETATM   26  C11 MIQ B 502      -0.033  12.424 -16.317  1.00144.08     0.149 C 
ENDBRANCH   5  21
TORSDOF 2
ENDMDL
