MODEL 1
REMARK VINA RESULT:      -7.7      0.000      0.000
REMARK  2 active torsions:
REMARK  status: ('A' for Active; 'I' for Inactive)
REMARK    1  A    between atoms: C5_5  and  N6_21 
REMARK    2  A    between atoms: C18_14  and  N17_19 
ROOT
HETATM    1  O1  MIQ B 502      -7.936  -7.524 -15.640  1.00142.91    -0.171 OA
HETATM    2  C2  MIQ B 502      -9.171  -7.000 -15.254  1.00141.17     0.195 A 
HETATM    3  C3  MIQ B 502     -10.445  -7.822 -14.878  1.00141.71     0.035 A 
HETATM    4  C4  MIQ B 502     -10.737  -9.274 -14.808  1.00142.86     0.046 A 
HETATM    5  C5  MIQ B 502     -12.023  -9.728 -14.422  1.00139.53     0.031 A 
HETATM    6  C12 MIQ B 502     -13.062  -8.763 -14.092  1.00139.38     0.030 A 
HETATM    7  C13 MIQ B 502     -12.782  -7.371 -14.158  1.00141.18     0.019 A 
HETATM    8  C14 MIQ B 502     -11.429  -6.900 -14.562  1.00138.77     0.033 A 
HETATM    9  C15 MIQ B 502     -10.762  -5.497 -14.741  1.00142.10     0.195 A 
HETATM   10  N17 MIQ B 502      -9.518  -5.731 -15.124  1.00139.42    -0.288 N 
HETATM   11  O16 MIQ B 502     -11.364  -4.254 -14.541  1.00148.93    -0.171 OA
ENDROOT
BRANCH  10  12
HETATM   12  C18 MIQ B 502      -8.595  -4.646 -15.403  1.00139.82     0.187 C 
HETATM   13  C19 MIQ B 502      -8.004  -4.883 -16.798  1.00140.06     0.247 C 
HETATM   14  O25 MIQ B 502      -8.730  -5.087 -17.705  1.00143.95    -0.271 OA
HETATM   15  N20 MIQ B 502      -6.575  -4.857 -17.037  1.00140.02    -0.296 N 
HETATM   16  H13 MIQ B 502      -6.201  -5.019 -17.951  1.00142.77     0.171 HD
HETATM   17  C21 MIQ B 502      -5.708  -4.616 -15.912  1.00142.22     0.224 C 
HETATM   18  C22 MIQ B 502      -6.165  -5.156 -14.571  1.00139.52     0.106 C 
HETATM   19  O24 MIQ B 502      -4.693  -4.021 -16.031  1.00146.13    -0.273 OA
HETATM   20  C23 MIQ B 502      -7.534  -4.555 -14.308  1.00139.15     0.045 C 
ENDBRANCH  10  12
BRANCH   5  21
HETATM   21  N6  MIQ B 502     -12.299 -11.152 -14.372  1.00140.95    -0.377 N 
HETATM   22  C7  MIQ B 502     -12.020 -11.872 -13.141  1.00142.12     0.149 C 
HETATM   23  C8  MIQ B 502     -11.732 -13.345 -13.397  1.00144.10     0.187 C 
HETATM   24  O9  MIQ B 502     -12.671 -13.945 -14.238  1.00148.65    -0.388 OA
HETATM   25  C10 MIQ B 502     -13.607 -13.166 -14.923  1.00147.44     0.187 C 
HETATM   26  C11 MIQ B 502     -13.220 -11.747 -15.326  1.00144.08     0.149 C 
ENDBRANCH   5  21
TORSDOF 2
ENDMDL
MODEL 2
REMARK VINA RESULT:      -7.2      1.594      2.006
REMARK  2 active torsions:
REMARK  status: ('A' for Active; 'I' for Inactive)
REMARK    1  A    between atoms: C5_5  and  N6_21 
REMARK    2  A    between atoms: C18_14  and  N17_19 
ROOT
HETATM    1  O1  MIQ B 502      -7.711  -7.723 -15.386  1.00142.91    -0.171 OA
HETATM    2  C2  MIQ B 502      -9.002  -7.311 -15.045  1.00141.17     0.195 A 
HETATM    3  C3  MIQ B 502     -10.040  -8.126 -14.211  1.00141.71     0.035 A 
HETATM    4  C4  MIQ B 502     -10.008  -9.461 -13.568  1.00142.86     0.046 A 
HETATM    5  C5  MIQ B 502     -11.137  -9.942 -12.858  1.00139.53     0.031 A 
HETATM    6  C12 MIQ B 502     -12.334  -9.119 -12.760  1.00139.38     0.030 A 
HETATM    7  C13 MIQ B 502     -12.364  -7.838 -13.375  1.00141.18     0.019 A 
HETATM    8  C14 MIQ B 502     -11.175  -7.338 -14.117  1.00138.77     0.033 A 
HETATM    9  C15 MIQ B 502     -10.839  -6.025 -14.898  1.00142.10     0.195 A 
HETATM   10  N17 MIQ B 502      -9.602  -6.172 -15.344  1.00139.42    -0.288 N 
HETATM   11  O16 MIQ B 502     -11.679  -4.926 -15.086  1.00148.93    -0.171 OA
ENDROOT
BRANCH  10  12
HETATM   12  C18 MIQ B 502      -8.956  -5.142 -16.136  1.00139.82     0.187 C 
HETATM   13  C19 MIQ B 502      -8.435  -5.798 -17.420  1.00140.06     0.247 C 
HETATM   14  O25 MIQ B 502      -9.168  -6.456 -18.069  1.00143.95    -0.271 OA
HETATM   15  N20 MIQ B 502      -7.067  -5.627 -17.865  1.00140.02    -0.296 N 
HETATM   16  H13 MIQ B 502      -6.737  -6.066 -18.702  1.00142.77     0.171 HD
HETATM   17  C21 MIQ B 502      -6.188  -4.827 -17.051  1.00142.22     0.224 C 
HETATM   18  C22 MIQ B 502      -6.417  -4.875 -15.552  1.00139.52     0.106 C 
HETATM   19  O24 MIQ B 502      -5.335  -4.164 -17.530  1.00146.13    -0.273 OA
HETATM   20  C23 MIQ B 502      -7.858  -4.457 -15.323  1.00139.15     0.045 C 
ENDBRANCH  10  12
BRANCH   5  21
HETATM   21  N6  MIQ B 502     -11.097 -11.258 -12.245  1.00140.95    -0.377 N 
HETATM   22  C7  MIQ B 502     -10.972 -12.421 -13.107  1.00142.12     0.149 C 
HETATM   23  C8  MIQ B 502     -11.571 -13.668 -12.469  1.00144.10     0.187 C 
HETATM   24  O9  MIQ B 502     -11.157 -13.855 -11.149  1.00148.65    -0.388 OA
HETATM   25  C10 MIQ B 502     -10.462 -12.848 -10.475  1.00147.44     0.187 C 
HETATM   26  C11 MIQ B 502     -10.744 -11.395 -10.843  1.00144.08     0.149 C 
ENDBRANCH   5  21
TORSDOF 2
ENDMDL
MODEL 3
REMARK VINA RESULT:      -7.1      2.983      4.724
REMARK  2 active torsions:
REMARK  status: ('A' for Active; 'I' for Inactive)
REMARK    1  A    between atoms: C5_5  and  N6_21 
REMARK    2  A    between atoms: C18_14  and  N17_19 
ROOT
HETATM    1  O1  MIQ B 502      -5.469  -6.393 -13.752  1.00142.91    -0.171 OA
HETATM    2  C2  MIQ B 502      -5.913  -6.621 -15.056  1.00141.17     0.195 A 
HETATM    3  C3  MIQ B 502      -7.358  -7.038 -15.478  1.00141.71     0.035 A 
HETATM    4  C4  MIQ B 502      -8.606  -7.300 -14.722  1.00142.86     0.046 A 
HETATM    5  C5  MIQ B 502      -9.793  -7.670 -15.403  1.00139.53     0.031 A 
HETATM    6  C12 MIQ B 502      -9.785  -7.793 -16.853  1.00139.38     0.030 A 
HETATM    7  C13 MIQ B 502      -8.589  -7.542 -17.579  1.00141.18     0.019 A 
HETATM    8  C14 MIQ B 502      -7.347  -7.151 -16.859  1.00138.77     0.033 A 
HETATM    9  C15 MIQ B 502      -5.887  -6.801 -17.296  1.00142.10     0.195 A 
HETATM   10  N17 MIQ B 502      -5.227  -6.530 -16.182  1.00139.42    -0.288 N 
HETATM   11  O16 MIQ B 502      -5.387  -6.782 -18.599  1.00148.93    -0.171 OA
ENDROOT
BRANCH  10  12
HETATM   12  C18 MIQ B 502      -3.820  -6.175 -16.202  1.00139.82     0.187 C 
HETATM   13  C19 MIQ B 502      -3.636  -5.054 -17.233  1.00140.06     0.247 C 
HETATM   14  O25 MIQ B 502      -4.329  -4.102 -17.178  1.00143.95    -0.271 OA
HETATM   15  N20 MIQ B 502      -2.627  -5.129 -18.270  1.00140.02    -0.296 N 
HETATM   16  H13 MIQ B 502      -2.521  -4.393 -18.941  1.00142.77     0.171 HD
HETATM   17  C21 MIQ B 502      -1.800  -6.306 -18.323  1.00142.22     0.224 C 
HETATM   18  C22 MIQ B 502      -2.447  -7.613 -17.906  1.00139.52     0.106 C 
HETATM   19  O24 MIQ B 502      -0.671  -6.253 -18.668  1.00146.13    -0.273 OA
HETATM   20  C23 MIQ B 502      -2.965  -7.407 -16.495  1.00139.15     0.045 C 
ENDBRANCH  10  12
BRANCH   5  21
HETATM   21  N6  MIQ B 502     -11.003  -7.938 -14.648  1.00140.95    -0.377 N 
HETATM   22  C7  MIQ B 502     -10.901  -8.109 -13.209  1.00142.12     0.149 C 
HETATM   23  C8  MIQ B 502     -12.023  -8.980 -12.658  1.00144.10     0.187 C 
HETATM   24  O9  MIQ B 502     -13.283  -8.603 -13.126  1.00148.65    -0.388 OA
HETATM   25  C10 MIQ B 502     -13.404  -7.676 -14.165  1.00147.44     0.187 C 
HETATM   26  C11 MIQ B 502     -12.299  -7.607 -15.214  1.00144.08     0.149 C 
ENDBRANCH   5  21
TORSDOF 2
ENDMDL
MODEL 4
REMARK VINA RESULT:      -7.1      2.337      7.734
REMARK  2 active torsions:
REMARK  status: ('A' for Active; 'I' for Inactive)
REMARK    1  A    between atoms: C5_5  and  N6_21 
REMARK    2  A    between atoms: C18_14  and  N17_19 
ROOT
HETATM    1  O1  MIQ B 502      -9.497  -9.285 -15.073  1.00142.91    -0.171 OA
HETATM    2  C2  MIQ B 502      -9.618  -7.895 -15.114  1.00141.17     0.195 A 
HETATM    3  C3  MIQ B 502      -8.588  -6.897 -15.734  1.00141.71     0.035 A 
HETATM    4  C4  MIQ B 502      -7.283  -7.072 -16.415  1.00142.86     0.046 A 
HETATM    5  C5  MIQ B 502      -6.562  -5.945 -16.883  1.00139.53     0.031 A 
HETATM    6  C12 MIQ B 502      -7.108  -4.608 -16.693  1.00139.38     0.030 A 
HETATM    7  C13 MIQ B 502      -8.359  -4.440 -16.041  1.00141.18     0.019 A 
HETATM    8  C14 MIQ B 502      -9.113  -5.628 -15.554  1.00138.77     0.033 A 
HETATM    9  C15 MIQ B 502     -10.476  -5.839 -14.819  1.00142.10     0.195 A 
HETATM   10  N17 MIQ B 502     -10.604  -7.145 -14.654  1.00139.42    -0.288 N 
HETATM   11  O16 MIQ B 502     -11.371  -4.846 -14.417  1.00148.93    -0.171 OA
ENDROOT
BRANCH  10  12
HETATM   12  C18 MIQ B 502     -11.759  -7.714 -13.984  1.00139.82     0.187 C 
HETATM   13  C19 MIQ B 502     -11.246  -8.637 -12.872  1.00140.06     0.247 C 
HETATM   14  O25 MIQ B 502     -10.450  -8.227 -12.104  1.00143.95    -0.271 OA
HETATM   15  N20 MIQ B 502     -11.718 -10.000 -12.733  1.00140.02    -0.296 N 
HETATM   16  H13 MIQ B 502     -11.370 -10.595 -12.006  1.00142.77     0.171 HD
HETATM   17  C21 MIQ B 502     -12.682 -10.481 -13.688  1.00142.22     0.224 C 
HETATM   18  C22 MIQ B 502     -12.571  -9.939 -15.100  1.00139.52     0.106 C 
HETATM   19  O24 MIQ B 502     -13.521 -11.255 -13.383  1.00146.13    -0.273 OA
HETATM   20  C23 MIQ B 502     -12.659  -8.428 -14.991  1.00139.15     0.045 C 
ENDBRANCH  10  12
BRANCH   5  21
HETATM   21  N6  MIQ B 502      -5.278  -6.130 -17.535  1.00140.95    -0.377 N 
HETATM   22  C7  MIQ B 502      -5.256  -6.384 -18.965  1.00142.12     0.149 C 
HETATM   23  C8  MIQ B 502      -4.018  -7.167 -19.384  1.00144.10     0.187 C 
HETATM   24  O9  MIQ B 502      -2.838  -6.644 -18.852  1.00148.65    -0.388 OA
HETATM   25  C10 MIQ B 502      -2.884  -5.656 -17.865  1.00147.44     0.187 C 
HETATM   26  C11 MIQ B 502      -4.066  -5.643 -16.901  1.00144.08     0.149 C 
ENDBRANCH   5  21
TORSDOF 2
ENDMDL
MODEL 5
REMARK VINA RESULT:      -6.9      2.067      7.848
REMARK  2 active torsions:
REMARK  status: ('A' for Active; 'I' for Inactive)
REMARK    1  A    between atoms: C5_5  and  N6_21 
REMARK    2  A    between atoms: C18_14  and  N17_19 
ROOT
HETATM    1  O1  MIQ B 502      -9.368  -9.982 -13.863  1.00142.91    -0.171 OA
HETATM    2  C2  MIQ B 502     -10.242  -8.904 -14.023  1.00141.17     0.195 A 
HETATM    3  C3  MIQ B 502      -9.894  -7.523 -14.664  1.00141.71     0.035 A 
HETATM    4  C4  MIQ B 502      -8.658  -6.956 -15.256  1.00142.86     0.046 A 
HETATM    5  C5  MIQ B 502      -8.652  -5.636 -15.773  1.00139.53     0.031 A 
HETATM    6  C12 MIQ B 502      -9.866  -4.834 -15.723  1.00139.38     0.030 A 
HETATM    7  C13 MIQ B 502     -11.051  -5.378 -15.157  1.00141.18     0.019 A 
HETATM    8  C14 MIQ B 502     -11.052  -6.765 -14.618  1.00138.77     0.033 A 
HETATM    9  C15 MIQ B 502     -12.126  -7.681 -13.944  1.00142.10     0.195 A 
HETATM   10  N17 MIQ B 502     -11.516  -8.825 -13.681  1.00139.42    -0.288 N 
HETATM   11  O16 MIQ B 502     -13.455  -7.352 -13.675  1.00148.93    -0.171 OA
ENDROOT
BRANCH  10  12
HETATM   12  C18 MIQ B 502     -12.211  -9.922 -13.032  1.00139.82     0.187 C 
HETATM   13  C19 MIQ B 502     -11.362 -10.370 -11.836  1.00140.06     0.247 C 
HETATM   14  O25 MIQ B 502     -10.989  -9.564 -11.060  1.00143.95    -0.271 OA
HETATM   15  N20 MIQ B 502     -11.009 -11.760 -11.628  1.00140.02    -0.296 N 
HETATM   16  H13 MIQ B 502     -10.449 -12.039 -10.847  1.00142.77     0.171 HD
HETATM   17  C21 MIQ B 502     -11.467 -12.724 -12.595  1.00142.22     0.224 C 
HETATM   18  C22 MIQ B 502     -11.563 -12.253 -14.034  1.00139.52     0.106 C 
HETATM   19  O24 MIQ B 502     -11.758 -13.825 -12.280  1.00146.13    -0.273 OA
HETATM   20  C23 MIQ B 502     -12.482 -11.045 -14.032  1.00139.15     0.045 C 
ENDBRANCH  10  12
BRANCH   5  21
HETATM   21  N6  MIQ B 502      -7.431  -5.089 -16.336  1.00140.95    -0.377 N 
HETATM   22  C7  MIQ B 502      -7.537  -4.064 -17.360  1.00142.12     0.149 C 
HETATM   23  C8  MIQ B 502      -6.322  -4.052 -18.280  1.00144.10     0.187 C 
HETATM   24  O9  MIQ B 502      -5.113  -4.076 -17.583  1.00148.65    -0.388 OA
HETATM   25  C10 MIQ B 502      -5.093  -4.324 -16.208  1.00147.44     0.187 C 
HETATM   26  C11 MIQ B 502      -6.178  -5.214 -15.611  1.00144.08     0.149 C 
ENDBRANCH   5  21
TORSDOF 2
ENDMDL
MODEL 6
REMARK VINA RESULT:      -6.6      3.017      4.656
REMARK  2 active torsions:
REMARK  status: ('A' for Active; 'I' for Inactive)
REMARK    1  A    between atoms: C5_5  and  N6_21 
REMARK    2  A    between atoms: C18_14  and  N17_19 
ROOT
HETATM    1  O1  MIQ B 502      -5.333  -7.485 -14.072  1.00142.91    -0.171 OA
HETATM    2  C2  MIQ B 502      -5.933  -7.041 -15.252  1.00141.17     0.195 A 
HETATM    3  C3  MIQ B 502      -7.463  -7.045 -15.567  1.00141.71     0.035 A 
HETATM    4  C4  MIQ B 502      -8.659  -7.472 -14.803  1.00142.86     0.046 A 
HETATM    5  C5  MIQ B 502      -9.953  -7.348 -15.370  1.00139.53     0.031 A 
HETATM    6  C12 MIQ B 502     -10.105  -6.799 -16.710  1.00139.38     0.030 A 
HETATM    7  C13 MIQ B 502      -8.959  -6.389 -17.442  1.00141.18     0.019 A 
HETATM    8  C14 MIQ B 502      -7.603  -6.519 -16.841  1.00138.77     0.033 A 
HETATM    9  C15 MIQ B 502      -6.152  -6.185 -17.319  1.00142.10     0.195 A 
HETATM   10  N17 MIQ B 502      -5.352  -6.531 -16.325  1.00139.42    -0.288 N 
HETATM   11  O16 MIQ B 502      -5.783  -5.636 -18.548  1.00148.93    -0.171 OA
ENDROOT
BRANCH  10  12
HETATM   12  C18 MIQ B 502      -3.912  -6.376 -16.422  1.00139.82     0.187 C 
HETATM   13  C19 MIQ B 502      -3.272  -7.732 -16.101  1.00140.06     0.247 C 
HETATM   14  O25 MIQ B 502      -3.651  -8.696 -16.666  1.00143.95    -0.271 OA
HETATM   15  N20 MIQ B 502      -2.210  -7.863 -15.125  1.00140.02    -0.296 N 
HETATM   16  H13 MIQ B 502      -1.806  -8.755 -14.919  1.00142.77     0.171 HD
HETATM   17  C21 MIQ B 502      -1.773  -6.674 -14.440  1.00142.22     0.224 C 
HETATM   18  C22 MIQ B 502      -2.828  -5.621 -14.161  1.00139.52     0.106 C 
HETATM   19  O24 MIQ B 502      -0.646  -6.526 -14.117  1.00146.13    -0.273 OA
HETATM   20  C23 MIQ B 502      -3.435  -5.253 -15.502  1.00139.15     0.045 C 
ENDBRANCH  10  12
BRANCH   5  21
HETATM   21  N6  MIQ B 502     -11.115  -7.783 -14.616  1.00140.95    -0.377 N 
HETATM   22  C7  MIQ B 502     -10.956  -8.073 -13.202  1.00142.12     0.149 C 
HETATM   23  C8  MIQ B 502     -11.986  -9.082 -12.709  1.00144.10     0.187 C 
HETATM   24  O9  MIQ B 502     -13.286  -8.772 -13.113  1.00148.65    -0.388 OA
HETATM   25  C10 MIQ B 502     -13.514  -7.768 -14.058  1.00147.44     0.187 C 
HETATM   26  C11 MIQ B 502     -12.450  -7.513 -15.121  1.00144.08     0.149 C 
ENDBRANCH   5  21
TORSDOF 2
ENDMDL
MODEL 7
REMARK VINA RESULT:      -6.6      3.387      8.193
REMARK  2 active torsions:
REMARK  status: ('A' for Active; 'I' for Inactive)
REMARK    1  A    between atoms: C5_5  and  N6_21 
REMARK    2  A    between atoms: C18_14  and  N17_19 
ROOT
HETATM    1  O1  MIQ B 502      -7.788  -7.384 -14.690  1.00142.91    -0.171 OA
HETATM    2  C2  MIQ B 502      -7.314  -6.565 -15.717  1.00141.17     0.195 A 
HETATM    3  C3  MIQ B 502      -5.819  -6.376 -16.130  1.00141.71     0.035 A 
HETATM    4  C4  MIQ B 502      -4.544  -6.942 -15.629  1.00142.86     0.046 A 
HETATM    5  C5  MIQ B 502      -3.312  -6.570 -16.225  1.00139.53     0.031 A 
HETATM    6  C12 MIQ B 502      -3.301  -5.629 -17.335  1.00139.38     0.030 A 
HETATM    7  C13 MIQ B 502      -4.524  -5.088 -17.817  1.00141.18     0.019 A 
HETATM    8  C14 MIQ B 502      -5.814  -5.483 -17.189  1.00138.77     0.033 A 
HETATM    9  C15 MIQ B 502      -7.314  -5.116 -17.435  1.00142.10     0.195 A 
HETATM   10  N17 MIQ B 502      -8.009  -5.800 -16.541  1.00139.42    -0.288 N 
HETATM   11  O16 MIQ B 502      -7.813  -4.241 -18.401  1.00148.93    -0.171 OA
ENDROOT
BRANCH  10  12
HETATM   12  C18 MIQ B 502      -9.454  -5.693 -16.462  1.00139.82     0.187 C 
HETATM   13  C19 MIQ B 502      -9.812  -5.231 -15.044  1.00140.06     0.247 C 
HETATM   14  O25 MIQ B 502      -9.275  -4.282 -14.595  1.00143.95    -0.271 OA
HETATM   15  N20 MIQ B 502     -10.797  -5.926 -14.240  1.00140.02    -0.296 N 
HETATM   16  H13 MIQ B 502     -11.017  -5.618 -13.313  1.00142.77     0.171 HD
HETATM   17  C21 MIQ B 502     -11.431  -7.089 -14.806  1.00142.22     0.224 C 
HETATM   18  C22 MIQ B 502     -10.587  -7.940 -15.736  1.00139.52     0.106 C 
HETATM   19  O24 MIQ B 502     -12.554  -7.361 -14.560  1.00146.13    -0.273 OA
HETATM   20  C23 MIQ B 502     -10.106  -7.021 -16.844  1.00139.15     0.045 C 
ENDBRANCH  10  12
BRANCH   5  21
HETATM   21  N6  MIQ B 502      -2.070  -7.121 -15.714  1.00140.95    -0.377 N 
HETATM   22  C7  MIQ B 502      -1.081  -7.600 -16.664  1.00142.12     0.149 C 
HETATM   23  C8  MIQ B 502      -0.191  -8.681 -16.061  1.00144.10     0.187 C 
HETATM   24  O9  MIQ B 502       0.307  -8.336 -14.803  1.00148.65    -0.388 OA
HETATM   25  C10 MIQ B 502      -0.186  -7.215 -14.130  1.00147.44     0.187 C 
HETATM   26  C11 MIQ B 502      -1.635  -6.801 -14.366  1.00144.08     0.149 C 
ENDBRANCH   5  21
TORSDOF 2
ENDMDL
MODEL 8
REMARK VINA RESULT:      -6.6      2.694      3.979
REMARK  2 active torsions:
REMARK  status: ('A' for Active; 'I' for Inactive)
REMARK    1  A    between atoms: C5_5  and  N6_21 
REMARK    2  A    between atoms: C18_14  and  N17_19 
ROOT
HETATM    1  O1  MIQ B 502      -5.591  -7.978 -16.166  1.00142.91    -0.171 OA
HETATM    2  C2  MIQ B 502      -6.450  -6.896 -16.367  1.00141.17     0.195 A 
HETATM    3  C3  MIQ B 502      -7.906  -6.760 -15.819  1.00141.71     0.035 A 
HETATM    4  C4  MIQ B 502      -8.769  -7.635 -14.991  1.00142.86     0.046 A 
HETATM    5  C5  MIQ B 502     -10.082  -7.227 -14.646  1.00139.53     0.031 A 
HETATM    6  C12 MIQ B 502     -10.584  -5.941 -15.107  1.00139.38     0.030 A 
HETATM    7  C13 MIQ B 502      -9.757  -5.101 -15.900  1.00141.18     0.019 A 
HETATM    8  C14 MIQ B 502      -8.378  -5.533 -16.258  1.00138.77     0.033 A 
HETATM    9  C15 MIQ B 502      -7.208  -4.904 -17.081  1.00142.10     0.195 A 
HETATM   10  N17 MIQ B 502      -6.219  -5.782 -17.041  1.00139.42    -0.288 N 
HETATM   11  O16 MIQ B 502      -7.212  -3.667 -17.729  1.00148.93    -0.171 OA
ENDROOT
BRANCH  10  12
HETATM   12  C18 MIQ B 502      -4.961  -5.537 -17.720  1.00139.82     0.187 C 
HETATM   13  C19 MIQ B 502      -4.639  -6.773 -18.569  1.00140.06     0.247 C 
HETATM   14  O25 MIQ B 502      -5.460  -7.198 -19.302  1.00143.95    -0.271 OA
HETATM   15  N20 MIQ B 502      -3.351  -7.433 -18.501  1.00140.02    -0.296 N 
HETATM   16  H13 MIQ B 502      -3.156  -8.243 -19.055  1.00142.77     0.171 HD
HETATM   17  C21 MIQ B 502      -2.369  -6.902 -17.590  1.00142.22     0.224 C 
HETATM   18  C22 MIQ B 502      -2.892  -6.293 -16.304  1.00139.52     0.106 C 
HETATM   19  O24 MIQ B 502      -1.214  -6.937 -17.839  1.00146.13    -0.273 OA
HETATM   20  C23 MIQ B 502      -3.866  -5.202 -16.708  1.00139.15     0.045 C 
ENDBRANCH  10  12
BRANCH   5  21
HETATM   21  N6  MIQ B 502     -10.922  -8.101 -13.847  1.00140.95    -0.377 N 
HETATM   22  C7  MIQ B 502     -10.573  -8.316 -12.453  1.00142.12     0.149 C 
HETATM   23  C8  MIQ B 502     -11.078  -9.658 -11.940  1.00144.10     0.187 C 
HETATM   24  O9  MIQ B 502     -12.415  -9.896 -12.264  1.00148.65    -0.388 OA
HETATM   25  C10 MIQ B 502     -13.085  -9.061 -13.163  1.00147.44     0.187 C 
HETATM   26  C11 MIQ B 502     -12.281  -8.388 -14.270  1.00144.08     0.149 C 
ENDBRANCH   5  21
TORSDOF 2
ENDMDL
MODEL 9
REMARK VINA RESULT:      -6.5      2.336      3.020
REMARK  2 active torsions:
REMARK  status: ('A' for Active; 'I' for Inactive)
REMARK    1  A    between atoms: C5_5  and  N6_21 
REMARK    2  A    between atoms: C18_14  and  N17_19 
ROOT
HETATM    1  O1  MIQ B 502      -6.346  -7.567 -13.101  1.00142.91    -0.171 OA
HETATM    2  C2  MIQ B 502      -7.462  -7.673 -13.933  1.00141.17     0.195 A 
HETATM    3  C3  MIQ B 502      -8.617  -8.716 -13.799  1.00141.71     0.035 A 
HETATM    4  C4  MIQ B 502      -8.888  -9.819 -12.847  1.00142.86     0.046 A 
HETATM    5  C5  MIQ B 502     -10.054 -10.614 -12.985  1.00139.53     0.031 A 
HETATM    6  C12 MIQ B 502     -10.989 -10.344 -14.068  1.00139.38     0.030 A 
HETATM    7  C13 MIQ B 502     -10.729  -9.286 -14.980  1.00141.18     0.019 A 
HETATM    8  C14 MIQ B 502      -9.505  -8.453 -14.829  1.00138.77     0.033 A 
HETATM    9  C15 MIQ B 502      -8.899  -7.239 -15.607  1.00142.10     0.195 A 
HETATM   10  N17 MIQ B 502      -7.775  -6.930 -14.982  1.00139.42    -0.288 N 
HETATM   11  O16 MIQ B 502      -9.437  -6.615 -16.733  1.00148.93    -0.171 OA
ENDROOT
BRANCH  10  12
HETATM   12  C18 MIQ B 502      -6.926  -5.847 -15.441  1.00139.82     0.187 C 
HETATM   13  C19 MIQ B 502      -7.808  -4.606 -15.623  1.00140.06     0.247 C 
HETATM   14  O25 MIQ B 502      -8.514  -4.268 -14.741  1.00143.95    -0.271 OA
HETATM   15  N20 MIQ B 502      -7.795  -3.832 -16.847  1.00140.02    -0.296 N 
HETATM   16  H13 MIQ B 502      -8.380  -3.027 -16.956  1.00142.77     0.171 HD
HETATM   17  C21 MIQ B 502      -6.931  -4.271 -17.913  1.00142.22     0.224 C 
HETATM   18  C22 MIQ B 502      -6.726  -5.767 -18.051  1.00139.52     0.106 C 
HETATM   19  O24 MIQ B 502      -6.406  -3.501 -18.640  1.00146.13    -0.273 OA
HETATM   20  C23 MIQ B 502      -6.190  -6.253 -16.717  1.00139.15     0.045 C 
ENDBRANCH  10  12
BRANCH   5  21
HETATM   21  N6  MIQ B 502     -10.299 -11.701 -12.054  1.00140.95    -0.377 N 
HETATM   22  C7  MIQ B 502     -10.702 -11.375 -10.697  1.00142.12     0.149 C 
HETATM   23  C8  MIQ B 502     -10.307 -12.465  -9.709  1.00144.10     0.187 C 
HETATM   24  O9  MIQ B 502     -10.656 -13.745 -10.145  1.00148.65    -0.388 OA
HETATM   25  C10 MIQ B 502     -11.100 -13.951 -11.453  1.00147.44     0.187 C 
HETATM   26  C11 MIQ B 502     -10.574 -13.036 -12.555  1.00144.08     0.149 C 
ENDBRANCH   5  21
TORSDOF 2
ENDMDL
