MODEL 1
REMARK VINA RESULT:      -7.4      0.000      0.000
REMARK  2 active torsions:
REMARK  status: ('A' for Active; 'I' for Inactive)
REMARK    1  A    between atoms: C5_5  and  N6_21 
REMARK    2  A    between atoms: C18_14  and  N17_19 
ROOT
HETATM    1  O1  MIQ B 502      -9.299   0.394 -16.320  1.00142.91    -0.171 OA
HETATM    2  C2  MIQ B 502      -8.923   1.329 -17.286  1.00141.17     0.195 A 
HETATM    3  C3  MIQ B 502      -7.510   1.464 -17.938  1.00141.71     0.035 A 
HETATM    4  C4  MIQ B 502      -6.236   0.725 -17.771  1.00142.86     0.046 A 
HETATM    5  C5  MIQ B 502      -5.091   1.090 -18.524  1.00139.53     0.031 A 
HETATM    6  C12 MIQ B 502      -5.170   2.195 -19.468  1.00139.38     0.030 A 
HETATM    7  C13 MIQ B 502      -6.391   2.903 -19.630  1.00141.18     0.019 A 
HETATM    8  C14 MIQ B 502      -7.590   2.515 -18.837  1.00138.77     0.033 A 
HETATM    9  C15 MIQ B 502      -9.062   3.035 -18.744  1.00142.10     0.195 A 
HETATM   10  N17 MIQ B 502      -9.662   2.272 -17.846  1.00139.42    -0.288 N 
HETATM   11  O16 MIQ B 502      -9.622   4.092 -19.463  1.00148.93    -0.171 OA
ENDROOT
BRANCH  10  12
HETATM   12  C18 MIQ B 502     -11.052   2.478 -17.485  1.00139.82     0.187 C 
HETATM   13  C19 MIQ B 502     -11.134   2.537 -15.954  1.00140.06     0.247 C 
HETATM   14  O25 MIQ B 502     -10.414   3.263 -15.366  1.00143.95    -0.271 OA
HETATM   15  N20 MIQ B 502     -12.077   1.728 -15.208  1.00140.02    -0.296 N 
HETATM   16  H13 MIQ B 502     -12.116   1.771 -14.209  1.00142.77     0.171 HD
HETATM   17  C21 MIQ B 502     -12.938   0.842 -15.948  1.00142.22     0.224 C 
HETATM   18  C22 MIQ B 502     -12.363   0.228 -17.209  1.00139.52     0.106 C 
HETATM   19  O24 MIQ B 502     -14.041   0.611 -15.590  1.00146.13    -0.273 OA
HETATM   20  C23 MIQ B 502     -11.928   1.383 -18.092  1.00139.15     0.045 C 
ENDBRANCH  10  12
BRANCH   5  21
HETATM   21  N6  MIQ B 502      -3.846   0.367 -18.340  1.00140.95    -0.377 N 
HETATM   22  C7  MIQ B 502      -3.415  -0.551 -19.380  1.00142.12     0.149 C 
HETATM   23  C8  MIQ B 502      -2.530  -1.661 -18.827  1.00144.10     0.187 C 
HETATM   24  O9  MIQ B 502      -1.516  -1.183 -17.995  1.00148.65    -0.388 OA
HETATM   25  C10 MIQ B 502      -1.517   0.148 -17.570  1.00147.44     0.187 C 
HETATM   26  C11 MIQ B 502      -2.856   0.857 -17.397  1.00144.08     0.149 C 
ENDBRANCH   5  21
TORSDOF 2
ENDMDL
MODEL 2
REMARK VINA RESULT:      -7.2     17.007     19.447
REMARK  2 active torsions:
REMARK  status: ('A' for Active; 'I' for Inactive)
REMARK    1  A    between atoms: C5_5  and  N6_21 
REMARK    2  A    between atoms: C18_14  and  N17_19 
ROOT
HETATM    1  O1  MIQ B 502      -4.669  15.666  -6.304  1.00142.91    -0.171 OA
HETATM    2  C2  MIQ B 502      -5.902  16.259  -6.584  1.00141.17     0.195 A 
HETATM    3  C3  MIQ B 502      -7.288  15.539  -6.607  1.00141.71     0.035 A 
HETATM    4  C4  MIQ B 502      -7.714  14.140  -6.363  1.00142.86     0.046 A 
HETATM    5  C5  MIQ B 502      -9.082  13.780  -6.459  1.00139.53     0.031 A 
HETATM    6  C12 MIQ B 502     -10.073  14.791  -6.798  1.00139.38     0.030 A 
HETATM    7  C13 MIQ B 502      -9.665  16.132  -7.031  1.00141.18     0.019 A 
HETATM    8  C14 MIQ B 502      -8.228  16.505  -6.926  1.00138.77     0.033 A 
HETATM    9  C15 MIQ B 502      -7.421  17.833  -7.102  1.00142.10     0.195 A 
HETATM   10  N17 MIQ B 502      -6.155  17.523  -6.876  1.00139.42    -0.288 N 
HETATM   11  O16 MIQ B 502      -7.937  19.087  -7.433  1.00148.93    -0.171 OA
ENDROOT
BRANCH  10  12
HETATM   12  C18 MIQ B 502      -5.104  18.519  -6.967  1.00139.82     0.187 C 
HETATM   13  C19 MIQ B 502      -4.000  17.953  -7.869  1.00140.06     0.247 C 
HETATM   14  O25 MIQ B 502      -4.288  17.518  -8.927  1.00143.95    -0.271 OA
HETATM   15  N20 MIQ B 502      -2.611  17.943  -7.460  1.00140.02    -0.296 N 
HETATM   16  H13 MIQ B 502      -1.900  17.565  -8.055  1.00142.77     0.171 HD
HETATM   17  C21 MIQ B 502      -2.286  18.470  -6.160  1.00142.22     0.224 C 
HETATM   18  C22 MIQ B 502      -3.319  18.272  -5.067  1.00139.52     0.106 C 
HETATM   19  O24 MIQ B 502      -1.267  19.033  -5.958  1.00146.13    -0.273 OA
HETATM   20  C23 MIQ B 502      -4.607  18.897  -5.573  1.00139.15     0.045 C 
ENDBRANCH  10  12
BRANCH   5  21
HETATM   21  N6  MIQ B 502      -9.482  12.403  -6.233  1.00140.95    -0.377 N 
HETATM   22  C7  MIQ B 502     -10.680  12.148  -5.451  1.00142.12     0.149 C 
HETATM   23  C8  MIQ B 502     -10.632  10.789  -4.764  1.00144.10     0.187 C 
HETATM   24  O9  MIQ B 502     -10.250   9.758  -5.624  1.00148.65    -0.388 OA
HETATM   25  C10 MIQ B 502      -9.753  10.047  -6.898  1.00147.44     0.187 C 
HETATM   26  C11 MIQ B 502      -8.990  11.351  -7.105  1.00144.08     0.149 C 
ENDBRANCH   5  21
TORSDOF 2
ENDMDL
MODEL 3
REMARK VINA RESULT:      -7.0      1.854      2.356
REMARK  2 active torsions:
REMARK  status: ('A' for Active; 'I' for Inactive)
REMARK    1  A    between atoms: C5_5  and  N6_21 
REMARK    2  A    between atoms: C18_14  and  N17_19 
ROOT
HETATM    1  O1  MIQ B 502      -9.891   0.985 -14.900  1.00142.91    -0.171 OA
HETATM    2  C2  MIQ B 502      -9.920   1.363 -16.244  1.00141.17     0.195 A 
HETATM    3  C3  MIQ B 502      -8.700   1.398 -17.219  1.00141.71     0.035 A 
HETATM    4  C4  MIQ B 502      -7.261   1.076 -17.063  1.00142.86     0.046 A 
HETATM    5  C5  MIQ B 502      -6.374   1.209 -18.161  1.00139.53     0.031 A 
HETATM    6  C12 MIQ B 502      -6.880   1.664 -19.448  1.00139.38     0.030 A 
HETATM    7  C13 MIQ B 502      -8.259   1.972 -19.598  1.00141.18     0.019 A 
HETATM    8  C14 MIQ B 502      -9.186   1.828 -18.442  1.00138.77     0.033 A 
HETATM    9  C15 MIQ B 502     -10.718   2.060 -18.227  1.00142.10     0.195 A 
HETATM   10  N17 MIQ B 502     -10.958   1.755 -16.962  1.00139.42    -0.288 N 
HETATM   11  O16 MIQ B 502     -11.638   2.502 -19.178  1.00148.93    -0.171 OA
ENDROOT
BRANCH  10  12
HETATM   12  C18 MIQ B 502     -12.290   1.868 -16.396  1.00139.82     0.187 C 
HETATM   13  C19 MIQ B 502     -13.224   0.967 -17.213  1.00140.06     0.247 C 
HETATM   14  O25 MIQ B 502     -12.920  -0.157 -17.403  1.00143.95    -0.271 OA
HETATM   15  N20 MIQ B 502     -14.474   1.456 -17.756  1.00140.02    -0.296 N 
HETATM   16  H13 MIQ B 502     -15.072   0.860 -18.294  1.00142.77     0.171 HD
HETATM   17  C21 MIQ B 502     -14.818   2.835 -17.521  1.00142.22     0.224 C 
HETATM   18  C22 MIQ B 502     -13.669   3.823 -17.459  1.00139.52     0.106 C 
HETATM   19  O24 MIQ B 502     -15.941   3.176 -17.378  1.00146.13    -0.273 OA
HETATM   20  C23 MIQ B 502     -12.734   3.329 -16.371  1.00139.15     0.045 C 
ENDBRANCH  10  12
BRANCH   5  21
HETATM   21  N6  MIQ B 502      -4.965   0.905 -17.990  1.00140.95    -0.377 N 
HETATM   22  C7  MIQ B 502      -4.215   0.421 -19.136  1.00142.12     0.149 C 
HETATM   23  C8  MIQ B 502      -3.026  -0.435 -18.718  1.00144.10     0.187 C 
HETATM   24  O9  MIQ B 502      -2.261   0.153 -17.709  1.00148.65    -0.388 OA
HETATM   25  C10 MIQ B 502      -2.725   1.288 -17.040  1.00147.44     0.187 C 
HETATM   26  C11 MIQ B 502      -4.230   1.473 -16.873  1.00144.08     0.149 C 
ENDBRANCH   5  21
TORSDOF 2
ENDMDL
MODEL 4
REMARK VINA RESULT:      -6.9      1.687      2.707
REMARK  2 active torsions:
REMARK  status: ('A' for Active; 'I' for Inactive)
REMARK    1  A    between atoms: C5_5  and  N6_21 
REMARK    2  A    between atoms: C18_14  and  N17_19 
ROOT
HETATM    1  O1  MIQ B 502      -8.973   3.681 -19.842  1.00142.91    -0.171 OA
HETATM    2  C2  MIQ B 502      -8.573   2.717 -18.915  1.00141.17     0.195 A 
HETATM    3  C3  MIQ B 502      -7.122   2.175 -18.716  1.00141.71     0.035 A 
HETATM    4  C4  MIQ B 502      -5.825   2.471 -19.369  1.00142.86     0.046 A 
HETATM    5  C5  MIQ B 502      -4.646   1.799 -18.959  1.00139.53     0.031 A 
HETATM    6  C12 MIQ B 502      -4.711   0.814 -17.889  1.00139.38     0.030 A 
HETATM    7  C13 MIQ B 502      -5.954   0.531 -17.261  1.00141.18     0.019 A 
HETATM    8  C14 MIQ B 502      -7.188   1.241 -17.695  1.00138.77     0.033 A 
HETATM    9  C15 MIQ B 502      -8.688   1.203 -17.257  1.00142.10     0.195 A 
HETATM   10  N17 MIQ B 502      -9.315   2.078 -18.027  1.00139.42    -0.288 N 
HETATM   11  O16 MIQ B 502      -9.248   0.405 -16.258  1.00148.93    -0.171 OA
ENDROOT
BRANCH  10  12
HETATM   12  C18 MIQ B 502     -10.744   2.301 -17.911  1.00139.82     0.187 C 
HETATM   13  C19 MIQ B 502     -11.054   2.597 -16.438  1.00140.06     0.247 C 
HETATM   14  O25 MIQ B 502     -10.431   3.426 -15.874  1.00143.95    -0.271 OA
HETATM   15  N20 MIQ B 502     -12.094   1.891 -15.719  1.00140.02    -0.296 N 
HETATM   16  H13 MIQ B 502     -12.282   2.089 -14.756  1.00142.77     0.171 HD
HETATM   17  C21 MIQ B 502     -12.833   0.877 -16.426  1.00142.22     0.224 C 
HETATM   18  C22 MIQ B 502     -12.074   0.087 -17.475  1.00139.52     0.106 C 
HETATM   19  O24 MIQ B 502     -13.976   0.675 -16.202  1.00146.13    -0.273 OA
HETATM   20  C23 MIQ B 502     -11.516   1.101 -18.458  1.00139.15     0.045 C 
ENDBRANCH  10  12
BRANCH   5  21
HETATM   21  N6  MIQ B 502      -3.385   2.088 -19.618  1.00140.95    -0.377 N 
HETATM   22  C7  MIQ B 502      -2.186   2.200 -18.805  1.00142.12     0.149 C 
HETATM   23  C8  MIQ B 502      -1.140   3.095 -19.455  1.00144.10     0.187 C 
HETATM   24  O9  MIQ B 502      -0.923   2.790 -20.800  1.00148.65    -0.388 OA
HETATM   25  C10 MIQ B 502      -1.774   1.909 -21.472  1.00147.44     0.187 C 
HETATM   26  C11 MIQ B 502      -3.235   1.833 -21.040  1.00144.08     0.149 C 
ENDBRANCH   5  21
TORSDOF 2
ENDMDL
MODEL 5
REMARK VINA RESULT:      -6.9     15.112     18.186
REMARK  2 active torsions:
REMARK  status: ('A' for Active; 'I' for Inactive)
REMARK    1  A    between atoms: C5_5  and  N6_21 
REMARK    2  A    between atoms: C18_14  and  N17_19 
ROOT
HETATM    1  O1  MIQ B 502     -12.911  12.939  -8.226  1.00142.91    -0.171 OA
HETATM    2  C2  MIQ B 502     -11.673  13.253  -7.662  1.00141.17     0.195 A 
HETATM    3  C3  MIQ B 502     -11.090  14.688  -7.459  1.00141.71     0.035 A 
HETATM    4  C4  MIQ B 502     -11.600  16.047  -7.759  1.00142.86     0.046 A 
HETATM    5  C5  MIQ B 502     -10.820  17.190  -7.449  1.00139.53     0.031 A 
HETATM    6  C12 MIQ B 502      -9.512  17.026  -6.831  1.00139.38     0.030 A 
HETATM    7  C13 MIQ B 502      -9.023  15.723  -6.542  1.00141.18     0.019 A 
HETATM    8  C14 MIQ B 502      -9.847  14.527  -6.868  1.00138.77     0.033 A 
HETATM    9  C15 MIQ B 502      -9.658  12.984  -6.703  1.00142.10     0.195 A 
HETATM   10  N17 MIQ B 502     -10.756  12.428  -7.188  1.00139.42    -0.288 N 
HETATM   11  O16 MIQ B 502      -8.552  12.331  -6.157  1.00148.93    -0.171 OA
ENDROOT
BRANCH  10  12
HETATM   12  C18 MIQ B 502     -10.927  10.987  -7.214  1.00139.82     0.187 C 
HETATM   13  C19 MIQ B 502     -10.653  10.458  -5.801  1.00140.06     0.247 C 
HETATM   14  O25 MIQ B 502     -11.208  10.951  -4.884  1.00143.95    -0.271 OA
HETATM   15  N20 MIQ B 502      -9.735   9.364  -5.560  1.00140.02    -0.296 N 
HETATM   16  H13 MIQ B 502      -9.560   9.032  -4.632  1.00142.77     0.171 HD
HETATM   17  C21 MIQ B 502      -9.061   8.786  -6.694  1.00142.22     0.224 C 
HETATM   18  C22 MIQ B 502      -8.717   9.725  -7.834  1.00139.52     0.106 C 
HETATM   19  O24 MIQ B 502      -8.796   7.635  -6.734  1.00146.13    -0.273 OA
HETATM   20  C23 MIQ B 502     -10.022  10.363  -8.275  1.00139.15     0.045 C 
ENDBRANCH  10  12
BRANCH   5  21
HETATM   21  N6  MIQ B 502     -11.325  18.514  -7.762  1.00140.95    -0.377 N 
HETATM   22  C7  MIQ B 502     -12.688  18.845  -7.383  1.00142.12     0.149 C 
HETATM   23  C8  MIQ B 502     -13.283  19.921  -8.282  1.00144.10     0.187 C 
HETATM   24  O9  MIQ B 502     -12.432  21.012  -8.461  1.00148.65    -0.388 OA
HETATM   25  C10 MIQ B 502     -11.104  20.953  -8.029  1.00147.44     0.187 C 
HETATM   26  C11 MIQ B 502     -10.398  19.601  -8.026  1.00144.08     0.149 C 
ENDBRANCH   5  21
TORSDOF 2
ENDMDL
MODEL 6
REMARK VINA RESULT:      -6.7      5.197     10.690
REMARK  2 active torsions:
REMARK  status: ('A' for Active; 'I' for Inactive)
REMARK    1  A    between atoms: C5_5  and  N6_21 
REMARK    2  A    between atoms: C18_14  and  N17_19 
ROOT
HETATM    1  O1  MIQ B 502     -13.906   0.572 -15.949  1.00142.91    -0.171 OA
HETATM    2  C2  MIQ B 502     -14.227   1.152 -17.178  1.00141.17     0.195 A 
HETATM    3  C3  MIQ B 502     -15.635   1.161 -17.854  1.00141.71     0.035 A 
HETATM    4  C4  MIQ B 502     -16.957   0.619 -17.461  1.00142.86     0.046 A 
HETATM    5  C5  MIQ B 502     -18.082   0.791 -18.307  1.00139.53     0.031 A 
HETATM    6  C12 MIQ B 502     -17.936   1.504 -19.567  1.00139.38     0.030 A 
HETATM    7  C13 MIQ B 502     -16.669   2.025 -19.944  1.00141.18     0.019 A 
HETATM    8  C14 MIQ B 502     -15.492   1.844 -19.051  1.00138.77     0.033 A 
HETATM    9  C15 MIQ B 502     -13.987   2.262 -19.118  1.00142.10     0.195 A 
HETATM   10  N17 MIQ B 502     -13.431   1.806 -18.007  1.00139.42    -0.288 N 
HETATM   11  O16 MIQ B 502     -13.361   2.971 -20.145  1.00148.93    -0.171 OA
ENDROOT
BRANCH  10  12
HETATM   12  C18 MIQ B 502     -12.020   1.998 -17.732  1.00139.82     0.187 C 
HETATM   13  C19 MIQ B 502     -11.424   0.633 -17.370  1.00140.06     0.247 C 
HETATM   14  O25 MIQ B 502     -11.611  -0.286 -18.085  1.00143.95    -0.271 OA
HETATM   15  N20 MIQ B 502     -10.629   0.439 -16.174  1.00140.02    -0.296 N 
HETATM   16  H13 MIQ B 502     -10.251  -0.459 -15.945  1.00142.77     0.171 HD
HETATM   17  C21 MIQ B 502     -10.423   1.574 -15.311  1.00142.22     0.224 C 
HETATM   18  C22 MIQ B 502     -11.556   2.577 -15.221  1.00139.52     0.106 C 
HETATM   19  O24 MIQ B 502      -9.416   1.716 -14.708  1.00146.13    -0.273 OA
HETATM   20  C23 MIQ B 502     -11.829   3.047 -16.638  1.00139.15     0.045 C 
ENDBRANCH  10  12
BRANCH   5  21
HETATM   21  N6  MIQ B 502     -19.368   0.242 -17.916  1.00140.95    -0.377 N 
HETATM   22  C7  MIQ B 502     -19.793   0.383 -16.534  1.00142.12     0.149 C 
HETATM   23  C8  MIQ B 502     -20.756  -0.722 -16.120  1.00144.10     0.187 C 
HETATM   24  O9  MIQ B 502     -21.784  -0.921 -17.043  1.00148.65    -0.388 OA
HETATM   25  C10 MIQ B 502     -21.739  -0.306 -18.296  1.00147.44     0.187 C 
HETATM   26  C11 MIQ B 502     -20.377  -0.030 -18.925  1.00144.08     0.149 C 
ENDBRANCH   5  21
TORSDOF 2
ENDMDL
MODEL 7
REMARK VINA RESULT:      -6.6     17.303     19.622
REMARK  2 active torsions:
REMARK  status: ('A' for Active; 'I' for Inactive)
REMARK    1  A    between atoms: C5_5  and  N6_21 
REMARK    2  A    between atoms: C18_14  and  N17_19 
ROOT
HETATM    1  O1  MIQ B 502      -3.951  15.081  -6.308  1.00142.91    -0.171 OA
HETATM    2  C2  MIQ B 502      -5.088  15.845  -6.580  1.00141.17     0.195 A 
HETATM    3  C3  MIQ B 502      -6.562  15.330  -6.598  1.00141.71     0.035 A 
HETATM    4  C4  MIQ B 502      -7.182  14.005  -6.357  1.00142.86     0.046 A 
HETATM    5  C5  MIQ B 502      -8.588  13.845  -6.447  1.00139.53     0.031 A 
HETATM    6  C12 MIQ B 502      -9.426  14.988  -6.778  1.00139.38     0.030 A 
HETATM    7  C13 MIQ B 502      -8.832  16.258  -7.008  1.00141.18     0.019 A 
HETATM    8  C14 MIQ B 502      -7.356  16.422  -6.910  1.00138.77     0.033 A 
HETATM    9  C15 MIQ B 502      -6.369  17.621  -7.086  1.00142.10     0.195 A 
HETATM   10  N17 MIQ B 502      -5.159  17.133  -6.867  1.00139.42    -0.288 N 
HETATM   11  O16 MIQ B 502      -6.702  18.937  -7.411  1.00148.93    -0.171 OA
ENDROOT
BRANCH  10  12
HETATM   12  C18 MIQ B 502      -3.977  17.970  -6.961  1.00139.82     0.187 C 
HETATM   13  C19 MIQ B 502      -4.240  19.244  -6.150  1.00140.06     0.247 C 
HETATM   14  O25 MIQ B 502      -4.626  19.151  -5.039  1.00143.95    -0.271 OA
HETATM   15  N20 MIQ B 502      -4.022  20.563  -6.708  1.00140.02    -0.296 N 
HETATM   16  H13 MIQ B 502      -4.204  21.388  -6.170  1.00142.77     0.171 HD
HETATM   17  C21 MIQ B 502      -3.561  20.652  -8.069  1.00142.22     0.224 C 
HETATM   18  C22 MIQ B 502      -4.048  19.580  -9.025  1.00139.52     0.106 C 
HETATM   19  O24 MIQ B 502      -2.834  21.515  -8.420  1.00146.13    -0.273 OA
HETATM   20  C23 MIQ B 502      -3.637  18.248  -8.425  1.00139.15     0.045 C 
ENDBRANCH  10  12
BRANCH   5  21
HETATM   21  N6  MIQ B 502      -9.180  12.539  -6.222  1.00140.95    -0.377 N 
HETATM   22  C7  MIQ B 502     -10.389  12.453  -5.421  1.00142.12     0.149 C 
HETATM   23  C8  MIQ B 502     -10.527  11.095  -4.744  1.00144.10     0.187 C 
HETATM   24  O9  MIQ B 502     -10.313  10.028  -5.617  1.00148.65    -0.388 OA
HETATM   25  C10 MIQ B 502      -9.800  10.253  -6.897  1.00147.44     0.187 C 
HETATM   26  C11 MIQ B 502      -8.859  11.434  -7.109  1.00144.08     0.149 C 
ENDBRANCH   5  21
TORSDOF 2
ENDMDL
MODEL 8
REMARK VINA RESULT:      -6.5     16.139     18.619
REMARK  2 active torsions:
REMARK  status: ('A' for Active; 'I' for Inactive)
REMARK    1  A    between atoms: C5_5  and  N6_21 
REMARK    2  A    between atoms: C18_14  and  N17_19 
ROOT
HETATM    1  O1  MIQ B 502      -6.763  14.488  -6.007  1.00142.91    -0.171 OA
HETATM    2  C2  MIQ B 502      -8.097  14.578  -6.412  1.00141.17     0.195 A 
HETATM    3  C3  MIQ B 502      -8.770  15.807  -7.101  1.00141.71     0.035 A 
HETATM    4  C4  MIQ B 502      -8.275  17.142  -7.514  1.00142.86     0.046 A 
HETATM    5  C5  MIQ B 502      -9.148  18.070  -8.135  1.00139.53     0.031 A 
HETATM    6  C12 MIQ B 502     -10.539  17.708  -8.370  1.00139.38     0.030 A 
HETATM    7  C13 MIQ B 502     -11.014  16.428  -7.975  1.00141.18     0.019 A 
HETATM    8  C14 MIQ B 502     -10.092  15.457  -7.325  1.00138.77     0.033 A 
HETATM    9  C15 MIQ B 502     -10.239  14.002  -6.772  1.00142.10     0.195 A 
HETATM   10  N17 MIQ B 502      -9.048  13.665  -6.307  1.00139.42    -0.288 N 
HETATM   11  O16 MIQ B 502     -11.397  13.222  -6.771  1.00148.93    -0.171 OA
ENDROOT
BRANCH  10  12
HETATM   12  C18 MIQ B 502      -8.811  12.371  -5.696  1.00139.82     0.187 C 
HETATM   13  C19 MIQ B 502      -9.272  11.295  -6.687  1.00140.06     0.247 C 
HETATM   14  O25 MIQ B 502      -8.885  11.334  -7.801  1.00143.95    -0.271 OA
HETATM   15  N20 MIQ B 502     -10.167  10.226  -6.293  1.00140.02    -0.296 N 
HETATM   16  H13 MIQ B 502     -10.466   9.534  -6.951  1.00142.77     0.171 HD
HETATM   17  C21 MIQ B 502     -10.634  10.206  -4.931  1.00142.22     0.224 C 
HETATM   18  C22 MIQ B 502     -10.843  11.551  -4.262  1.00139.52     0.106 C 
HETATM   19  O24 MIQ B 502     -10.839   9.190  -4.363  1.00146.13    -0.273 OA
HETATM   20  C23 MIQ B 502      -9.517  12.284  -4.344  1.00139.15     0.045 C 
ENDBRANCH  10  12
BRANCH   5  21
HETATM   21  N6  MIQ B 502      -8.653  19.379  -8.521  1.00140.95    -0.377 N 
HETATM   22  C7  MIQ B 502      -9.101  20.539  -7.771  1.00142.12     0.149 C 
HETATM   23  C8  MIQ B 502      -9.061  21.810  -8.610  1.00144.10     0.187 C 
HETATM   24  O9  MIQ B 502      -7.854  21.970  -9.294  1.00148.65    -0.388 OA
HETATM   25  C10 MIQ B 502      -6.925  20.928  -9.346  1.00147.44     0.187 C 
HETATM   26  C11 MIQ B 502      -7.438  19.492  -9.308  1.00144.08     0.149 C 
ENDBRANCH   5  21
TORSDOF 2
ENDMDL
MODEL 9
REMARK VINA RESULT:      -6.5     17.186     19.618
REMARK  2 active torsions:
REMARK  status: ('A' for Active; 'I' for Inactive)
REMARK    1  A    between atoms: C5_5  and  N6_21 
REMARK    2  A    between atoms: C18_14  and  N17_19 
ROOT
HETATM    1  O1  MIQ B 502      -8.869  18.047  -7.429  1.00142.91    -0.171 OA
HETATM    2  C2  MIQ B 502      -7.728  17.303  -7.124  1.00141.17     0.195 A 
HETATM    3  C3  MIQ B 502      -7.689  15.789  -6.742  1.00141.71     0.035 A 
HETATM    4  C4  MIQ B 502      -8.733  14.747  -6.596  1.00142.86     0.046 A 
HETATM    5  C5  MIQ B 502      -8.380  13.424  -6.230  1.00139.53     0.031 A 
HETATM    6  C12 MIQ B 502      -6.983  13.087  -5.998  1.00139.38     0.030 A 
HETATM    7  C13 MIQ B 502      -5.981  14.085  -6.139  1.00141.18     0.019 A 
HETATM    8  C14 MIQ B 502      -6.358  15.472  -6.526  1.00138.77     0.033 A 
HETATM    9  C15 MIQ B 502      -5.566  16.797  -6.774  1.00142.10     0.195 A 
HETATM   10  N17 MIQ B 502      -6.469  17.707  -7.098  1.00139.42    -0.288 N 
HETATM   11  O16 MIQ B 502      -4.185  16.977  -6.672  1.00148.93    -0.171 OA
ENDROOT
BRANCH  10  12
HETATM   12  C18 MIQ B 502      -6.093  19.079  -7.385  1.00139.82     0.187 C 
HETATM   13  C19 MIQ B 502      -5.023  19.050  -8.483  1.00140.06     0.247 C 
HETATM   14  O25 MIQ B 502      -5.224  18.433  -9.468  1.00143.95    -0.271 OA
HETATM   15  N20 MIQ B 502      -3.770  19.765  -8.348  1.00140.02    -0.296 N 
HETATM   16  H13 MIQ B 502      -3.077  19.733  -9.069  1.00142.77     0.171 HD
HETATM   17  C21 MIQ B 502      -3.543  20.503  -7.132  1.00142.22     0.224 C 
HETATM   18  C22 MIQ B 502      -4.138  19.924  -5.862  1.00139.52     0.106 C 
HETATM   19  O24 MIQ B 502      -2.928  21.512  -7.127  1.00146.13    -0.273 OA
HETATM   20  C23 MIQ B 502      -5.628  19.781  -6.110  1.00139.15     0.045 C 
ENDBRANCH  10  12
BRANCH   5  21
HETATM   21  N6  MIQ B 502      -9.415  12.418  -6.076  1.00140.95    -0.377 N 
HETATM   22  C7  MIQ B 502      -9.653  11.493  -7.170  1.00142.12     0.149 C 
HETATM   23  C8  MIQ B 502     -11.084  10.970  -7.172  1.00144.10     0.187 C 
HETATM   24  O9  MIQ B 502     -11.502  10.528  -5.916  1.00148.65    -0.388 OA
HETATM   25  C10 MIQ B 502     -10.729  10.786  -4.781  1.00147.44     0.187 C 
HETATM   26  C11 MIQ B 502      -9.880  12.053  -4.749  1.00144.08     0.149 C 
ENDBRANCH   5  21
TORSDOF 2
ENDMDL
