MODEL 1
REMARK VINA RESULT:      -7.1      0.000      0.000
REMARK  2 active torsions:
REMARK  status: ('A' for Active; 'I' for Inactive)
REMARK    1  A    between atoms: C5_5  and  N6_21 
REMARK    2  A    between atoms: C18_14  and  N17_19 
ROOT
HETATM    1  O1  MIQ B 502      -4.030  13.568 -14.492  1.00142.91    -0.171 OA
HETATM    2  C2  MIQ B 502      -3.883  13.413 -15.872  1.00141.17     0.195 A 
HETATM    3  C3  MIQ B 502      -3.819  12.058 -16.646  1.00141.71     0.035 A 
HETATM    4  C4  MIQ B 502      -3.889  10.639 -16.223  1.00142.86     0.046 A 
HETATM    5  C5  MIQ B 502      -3.801   9.599 -17.183  1.00139.53     0.031 A 
HETATM    6  C12 MIQ B 502      -3.643   9.929 -18.593  1.00139.38     0.030 A 
HETATM    7  C13 MIQ B 502      -3.577  11.290 -18.998  1.00141.18     0.019 A 
HETATM    8  C14 MIQ B 502      -3.672  12.376 -17.986  1.00138.77     0.033 A 
HETATM    9  C15 MIQ B 502      -3.645  13.939 -18.044  1.00142.10     0.195 A 
HETATM   10  N17 MIQ B 502      -3.775  14.353 -16.795  1.00139.42    -0.288 N 
HETATM   11  O16 MIQ B 502      -3.508  14.730 -19.186  1.00148.93    -0.171 OA
ENDROOT
BRANCH  10  12
HETATM   12  C18 MIQ B 502      -3.776  15.766 -16.462  1.00139.82     0.187 C 
HETATM   13  C19 MIQ B 502      -4.805  16.458 -17.364  1.00140.06     0.247 C 
HETATM   14  O25 MIQ B 502      -5.899  16.021 -17.431  1.00143.95    -0.271 OA
HETATM   15  N20 MIQ B 502      -4.474  17.640 -18.133  1.00140.02    -0.296 N 
HETATM   16  H13 MIQ B 502      -5.154  18.079 -18.723  1.00142.77     0.171 HD
HETATM   17  C21 MIQ B 502      -3.130  18.149 -18.042  1.00142.22     0.224 C 
HETATM   18  C22 MIQ B 502      -2.026  17.127 -17.855  1.00139.52     0.106 C 
HETATM   19  O24 MIQ B 502      -2.902  19.307 -18.106  1.00146.13    -0.273 OA
HETATM   20  C23 MIQ B 502      -2.369  16.346 -16.600  1.00139.15     0.045 C 
ENDBRANCH  10  12
BRANCH   5  21
HETATM   21  N6  MIQ B 502      -3.856   8.214 -16.754  1.00140.95    -0.377 N 
HETATM   22  C7  MIQ B 502      -5.122   7.684 -16.278  1.00142.12     0.149 C 
HETATM   23  C8  MIQ B 502      -4.925   6.530 -15.303  1.00144.10     0.187 C 
HETATM   24  O9  MIQ B 502      -4.015   5.577 -15.765  1.00148.65    -0.388 OA
HETATM   25  C10 MIQ B 502      -3.232   5.835 -16.893  1.00147.44     0.187 C 
HETATM   26  C11 MIQ B 502      -2.836   7.278 -17.192  1.00144.08     0.149 C 
ENDBRANCH   5  21
TORSDOF 2
ENDMDL
MODEL 2
REMARK VINA RESULT:      -6.9      2.190      8.105
REMARK  2 active torsions:
REMARK  status: ('A' for Active; 'I' for Inactive)
REMARK    1  A    between atoms: C5_5  and  N6_21 
REMARK    2  A    between atoms: C18_14  and  N17_19 
ROOT
HETATM    1  O1  MIQ B 502      -5.462  10.550 -14.530  1.00142.91    -0.171 OA
HETATM    2  C2  MIQ B 502      -4.700  10.265 -15.664  1.00141.17     0.195 A 
HETATM    3  C3  MIQ B 502      -3.927  11.302 -16.541  1.00141.71     0.035 A 
HETATM    4  C4  MIQ B 502      -3.759  12.772 -16.469  1.00142.86     0.046 A 
HETATM    5  C5  MIQ B 502      -2.974  13.452 -17.434  1.00139.53     0.031 A 
HETATM    6  C12 MIQ B 502      -2.330  12.700 -18.501  1.00139.38     0.030 A 
HETATM    7  C13 MIQ B 502      -2.490  11.290 -18.570  1.00141.18     0.019 A 
HETATM    8  C14 MIQ B 502      -3.313  10.581 -17.552  1.00138.77     0.033 A 
HETATM    9  C15 MIQ B 502      -3.706   9.089 -17.302  1.00142.10     0.195 A 
HETATM   10  N17 MIQ B 502      -4.470   9.088 -16.222  1.00139.42    -0.288 N 
HETATM   11  O16 MIQ B 502      -3.327   7.985 -18.068  1.00148.93    -0.171 OA
ENDROOT
BRANCH  10  12
HETATM   12  C18 MIQ B 502      -5.039   7.861 -15.697  1.00139.82     0.187 C 
HETATM   13  C19 MIQ B 502      -6.559   8.048 -15.615  1.00140.06     0.247 C 
HETATM   14  O25 MIQ B 502      -7.144   8.433 -16.564  1.00143.95    -0.271 OA
HETATM   15  N20 MIQ B 502      -7.300   7.758 -14.405  1.00140.02    -0.296 N 
HETATM   16  H13 MIQ B 502      -8.291   7.890 -14.362  1.00142.77     0.171 HD
HETATM   17  C21 MIQ B 502      -6.563   7.298 -13.256  1.00142.22     0.224 C 
HETATM   18  C22 MIQ B 502      -5.161   7.850 -13.081  1.00139.52     0.106 C 
HETATM   19  O24 MIQ B 502      -7.027   6.525 -12.492  1.00146.13    -0.273 OA
HETATM   20  C23 MIQ B 502      -4.403   7.513 -14.352  1.00139.15     0.045 C 
ENDBRANCH  10  12
BRANCH   5  21
HETATM   21  N6  MIQ B 502      -2.830  14.895 -17.360  1.00140.95    -0.377 N 
HETATM   22  C7  MIQ B 502      -3.025  15.675 -18.570  1.00142.12     0.149 C 
HETATM   23  C8  MIQ B 502      -2.252  16.987 -18.531  1.00144.10     0.187 C 
HETATM   24  O9  MIQ B 502      -2.428  17.686 -17.336  1.00148.65    -0.388 OA
HETATM   25  C10 MIQ B 502      -3.063  17.080 -16.248  1.00147.44     0.187 C 
HETATM   26  C11 MIQ B 502      -2.936  15.570 -16.079  1.00144.08     0.149 C 
ENDBRANCH   5  21
TORSDOF 2
ENDMDL
MODEL 3
REMARK VINA RESULT:      -6.9      2.278      8.259
REMARK  2 active torsions:
REMARK  status: ('A' for Active; 'I' for Inactive)
REMARK    1  A    between atoms: C5_5  and  N6_21 
REMARK    2  A    between atoms: C18_14  and  N17_19 
ROOT
HETATM    1  O1  MIQ B 502      -4.975  11.339 -18.785  1.00142.91    -0.171 OA
HETATM    2  C2  MIQ B 502      -4.509  11.737 -17.530  1.00141.17     0.195 A 
HETATM    3  C3  MIQ B 502      -3.886  13.125 -17.175  1.00141.71     0.035 A 
HETATM    4  C4  MIQ B 502      -3.613  14.350 -17.962  1.00142.86     0.046 A 
HETATM    5  C5  MIQ B 502      -3.024  15.482 -17.345  1.00139.53     0.031 A 
HETATM    6  C12 MIQ B 502      -2.687  15.440 -15.929  1.00139.38     0.030 A 
HETATM    7  C13 MIQ B 502      -2.949  14.265 -15.174  1.00141.18     0.019 A 
HETATM    8  C14 MIQ B 502      -3.570  13.080 -15.827  1.00138.77     0.033 A 
HETATM    9  C15 MIQ B 502      -4.000  11.657 -15.342  1.00142.10     0.195 A 
HETATM   10  N17 MIQ B 502      -4.501  11.046 -16.403  1.00139.42    -0.288 N 
HETATM   11  O16 MIQ B 502      -3.875  11.141 -14.051  1.00148.93    -0.171 OA
ENDROOT
BRANCH  10  12
HETATM   12  C18 MIQ B 502      -4.992   9.683 -16.330  1.00139.82     0.187 C 
HETATM   13  C19 MIQ B 502      -4.316   8.881 -17.448  1.00140.06     0.247 C 
HETATM   14  O25 MIQ B 502      -3.142   8.920 -17.557  1.00143.95    -0.271 OA
HETATM   15  N20 MIQ B 502      -5.079   8.070 -18.375  1.00140.02    -0.296 N 
HETATM   16  H13 MIQ B 502      -4.626   7.556 -19.105  1.00142.77     0.171 HD
HETATM   17  C21 MIQ B 502      -6.512   8.046 -18.229  1.00142.22     0.224 C 
HETATM   18  C22 MIQ B 502      -7.168   9.323 -17.742  1.00139.52     0.106 C 
HETATM   19  O24 MIQ B 502      -7.141   7.076 -18.473  1.00146.13    -0.273 OA
HETATM   20  C23 MIQ B 502      -6.518   9.662 -16.413  1.00139.15     0.045 C 
ENDBRANCH  10  12
BRANCH   5  21
HETATM   21  N6  MIQ B 502      -2.749  16.671 -18.131  1.00140.95    -0.377 N 
HETATM   22  C7  MIQ B 502      -3.465  16.858 -19.381  1.00142.12     0.149 C 
HETATM   23  C8  MIQ B 502      -2.677  17.712 -20.366  1.00144.10     0.187 C 
HETATM   24  O9  MIQ B 502      -2.169  18.878 -19.789  1.00148.65    -0.388 OA
HETATM   25  C10 MIQ B 502      -2.213  19.060 -18.404  1.00147.44     0.187 C 
HETATM   26  C11 MIQ B 502      -2.139  17.831 -17.504  1.00144.08     0.149 C 
ENDBRANCH   5  21
TORSDOF 2
ENDMDL
MODEL 4
REMARK VINA RESULT:      -6.8      1.879      8.383
REMARK  2 active torsions:
REMARK  status: ('A' for Active; 'I' for Inactive)
REMARK    1  A    between atoms: C5_5  and  N6_21 
REMARK    2  A    between atoms: C18_14  and  N17_19 
ROOT
HETATM    1  O1  MIQ B 502      -4.300  11.684 -19.893  1.00142.91    -0.171 OA
HETATM    2  C2  MIQ B 502      -4.124  11.698 -18.507  1.00141.17     0.195 A 
HETATM    3  C3  MIQ B 502      -3.709  12.932 -17.643  1.00141.71     0.035 A 
HETATM    4  C4  MIQ B 502      -3.403  14.346 -17.966  1.00142.86     0.046 A 
HETATM    5  C5  MIQ B 502      -3.049  15.255 -16.937  1.00139.53     0.031 A 
HETATM    6  C12 MIQ B 502      -2.988  14.797 -15.557  1.00139.38     0.030 A 
HETATM    7  C13 MIQ B 502      -3.283  13.442 -15.247  1.00141.18     0.019 A 
HETATM    8  C14 MIQ B 502      -3.656  12.492 -16.330  1.00138.77     0.033 A 
HETATM    9  C15 MIQ B 502      -4.040  10.977 -16.380  1.00142.10     0.195 A 
HETATM   10  N17 MIQ B 502      -4.270  10.700 -17.653  1.00139.42    -0.288 N 
HETATM   11  O16 MIQ B 502      -4.120  10.099 -15.298  1.00148.93    -0.171 OA
ENDROOT
BRANCH  10  12
HETATM   12  C18 MIQ B 502      -4.640   9.365 -18.083  1.00139.82     0.187 C 
HETATM   13  C19 MIQ B 502      -5.769   8.875 -17.167  1.00140.06     0.247 C 
HETATM   14  O25 MIQ B 502      -6.713   9.562 -17.000  1.00143.95    -0.271 OA
HETATM   15  N20 MIQ B 502      -5.711   7.588 -16.505  1.00140.02    -0.296 N 
HETATM   16  H13 MIQ B 502      -6.452   7.283 -15.905  1.00142.77     0.171 HD
HETATM   17  C21 MIQ B 502      -4.543   6.772 -16.716  1.00142.22     0.224 C 
HETATM   18  C22 MIQ B 502      -3.227   7.502 -16.902  1.00139.52     0.106 C 
HETATM   19  O24 MIQ B 502      -4.611   5.593 -16.748  1.00146.13    -0.273 OA
HETATM   20  C23 MIQ B 502      -3.419   8.446 -18.076  1.00139.15     0.045 C 
ENDBRANCH  10  12
BRANCH   5  21
HETATM   21  N6  MIQ B 502      -2.737  16.633 -17.270  1.00140.95    -0.377 N 
HETATM   22  C7  MIQ B 502      -3.219  17.170 -18.531  1.00142.12     0.149 C 
HETATM   23  C8  MIQ B 502      -2.338  18.304 -19.040  1.00144.10     0.187 C 
HETATM   24  O9  MIQ B 502      -2.052  19.253 -18.057  1.00148.65    -0.388 OA
HETATM   25  C10 MIQ B 502      -2.373  19.006 -16.720  1.00147.44     0.187 C 
HETATM   26  C11 MIQ B 502      -2.360  17.565 -16.221  1.00144.08     0.149 C 
ENDBRANCH   5  21
TORSDOF 2
ENDMDL
MODEL 5
REMARK VINA RESULT:      -6.6      2.372      4.213
REMARK  2 active torsions:
REMARK  status: ('A' for Active; 'I' for Inactive)
REMARK    1  A    between atoms: C5_5  and  N6_21 
REMARK    2  A    between atoms: C18_14  and  N17_19 
ROOT
HETATM    1  O1  MIQ B 502      -4.155  16.943 -19.915  1.00142.91    -0.171 OA
HETATM    2  C2  MIQ B 502      -3.603  16.864 -18.634  1.00141.17     0.195 A 
HETATM    3  C3  MIQ B 502      -3.393  15.561 -17.799  1.00141.71     0.035 A 
HETATM    4  C4  MIQ B 502      -3.673  14.129 -18.057  1.00142.86     0.046 A 
HETATM    5  C5  MIQ B 502      -3.361  13.150 -17.080  1.00139.53     0.031 A 
HETATM    6  C12 MIQ B 502      -2.761  13.555 -15.817  1.00139.38     0.030 A 
HETATM    7  C13 MIQ B 502      -2.492  14.928 -15.569  1.00141.18     0.019 A 
HETATM    8  C14 MIQ B 502      -2.819  15.951 -16.600  1.00138.77     0.033 A 
HETATM    9  C15 MIQ B 502      -2.672  17.505 -16.691  1.00142.10     0.195 A 
HETATM   10  N17 MIQ B 502      -3.149  17.848 -17.876  1.00139.42    -0.288 N 
HETATM   11  O16 MIQ B 502      -2.147  18.354 -15.715  1.00148.93    -0.171 OA
ENDROOT
BRANCH  10  12
HETATM   12  C18 MIQ B 502      -3.187  19.233 -18.305  1.00139.82     0.187 C 
HETATM   13  C19 MIQ B 502      -4.637  19.568 -18.677  1.00140.06     0.247 C 
HETATM   14  O25 MIQ B 502      -5.500  19.320 -17.911  1.00143.95    -0.271 OA
HETATM   15  N20 MIQ B 502      -4.978  20.187 -19.941  1.00140.02    -0.296 N 
HETATM   16  H13 MIQ B 502      -5.930  20.394 -20.174  1.00142.77     0.171 HD
HETATM   17  C21 MIQ B 502      -3.909  20.470 -20.864  1.00142.22     0.224 C 
HETATM   18  C22 MIQ B 502      -2.742  19.502 -20.872  1.00139.52     0.106 C 
HETATM   19  O24 MIQ B 502      -3.940  21.414 -21.574  1.00146.13    -0.273 OA
HETATM   20  C23 MIQ B 502      -2.205  19.462 -19.453  1.00139.15     0.045 C 
ENDBRANCH  10  12
BRANCH   5  21
HETATM   21  N6  MIQ B 502      -3.654  11.752 -17.341  1.00140.95    -0.377 N 
HETATM   22  C7  MIQ B 502      -2.856  11.048 -18.330  1.00142.12     0.149 C 
HETATM   23  C8  MIQ B 502      -3.621   9.889 -18.958  1.00144.10     0.187 C 
HETATM   24  O9  MIQ B 502      -4.251   9.079 -18.011  1.00148.65    -0.388 OA
HETATM   25  C10 MIQ B 502      -4.327   9.479 -16.675  1.00147.44     0.187 C 
HETATM   26  C11 MIQ B 502      -4.388  10.970 -16.362  1.00144.08     0.149 C 
ENDBRANCH   5  21
TORSDOF 2
ENDMDL
MODEL 6
REMARK VINA RESULT:      -6.5      1.708      2.036
REMARK  2 active torsions:
REMARK  status: ('A' for Active; 'I' for Inactive)
REMARK    1  A    between atoms: C5_5  and  N6_21 
REMARK    2  A    between atoms: C18_14  and  N17_19 
ROOT
HETATM    1  O1  MIQ B 502      -2.379  15.233 -16.089  1.00142.91    -0.171 OA
HETATM    2  C2  MIQ B 502      -3.112  14.932 -17.238  1.00141.17     0.195 A 
HETATM    3  C3  MIQ B 502      -3.621  13.517 -17.664  1.00141.71     0.035 A 
HETATM    4  C4  MIQ B 502      -3.511  12.170 -17.057  1.00142.86     0.046 A 
HETATM    5  C5  MIQ B 502      -4.093  11.046 -17.697  1.00139.53     0.031 A 
HETATM    6  C12 MIQ B 502      -4.803  11.219 -18.956  1.00139.38     0.030 A 
HETATM    7  C13 MIQ B 502      -4.910  12.511 -19.537  1.00141.18     0.019 A 
HETATM    8  C14 MIQ B 502      -4.299  13.687 -18.860  1.00138.77     0.033 A 
HETATM    9  C15 MIQ B 502      -4.211  15.216 -19.179  1.00142.10     0.195 A 
HETATM   10  N17 MIQ B 502      -3.527  15.757 -18.184  1.00139.42    -0.288 N 
HETATM   11  O16 MIQ B 502      -4.746  15.870 -20.290  1.00148.93    -0.171 OA
ENDROOT
BRANCH  10  12
HETATM   12  C18 MIQ B 502      -3.234  17.178 -18.152  1.00139.82     0.187 C 
HETATM   13  C19 MIQ B 502      -4.562  17.933 -18.285  1.00140.06     0.247 C 
HETATM   14  O25 MIQ B 502      -5.458  17.652 -17.571  1.00143.95    -0.271 OA
HETATM   15  N20 MIQ B 502      -4.747  18.987 -19.261  1.00140.02    -0.296 N 
HETATM   16  H13 MIQ B 502      -5.621  19.468 -19.342  1.00142.77     0.171 HD
HETATM   17  C21 MIQ B 502      -3.642  19.305 -20.128  1.00142.22     0.224 C 
HETATM   18  C22 MIQ B 502      -2.740  18.154 -20.531  1.00139.52     0.106 C 
HETATM   19  O24 MIQ B 502      -3.447  20.409 -20.501  1.00146.13    -0.273 OA
HETATM   20  C23 MIQ B 502      -2.226  17.537 -19.243  1.00139.15     0.045 C 
ENDBRANCH  10  12
BRANCH   5  21
HETATM   21  N6  MIQ B 502      -3.965   9.730 -17.098  1.00140.95    -0.377 N 
HETATM   22  C7  MIQ B 502      -4.911   9.341 -16.066  1.00142.12     0.149 C 
HETATM   23  C8  MIQ B 502      -4.322   8.305 -15.117  1.00144.10     0.187 C 
HETATM   24  O9  MIQ B 502      -3.699   7.249 -15.784  1.00148.65    -0.388 OA
HETATM   25  C10 MIQ B 502      -3.469   7.318 -17.161  1.00147.44     0.187 C 
HETATM   26  C11 MIQ B 502      -3.232   8.686 -17.793  1.00144.08     0.149 C 
ENDBRANCH   5  21
TORSDOF 2
ENDMDL
MODEL 7
REMARK VINA RESULT:      -6.4      2.118      8.255
REMARK  2 active torsions:
REMARK  status: ('A' for Active; 'I' for Inactive)
REMARK    1  A    between atoms: C5_5  and  N6_21 
REMARK    2  A    between atoms: C18_14  and  N17_19 
ROOT
HETATM    1  O1  MIQ B 502      -3.548  11.770 -14.604  1.00142.91    -0.171 OA
HETATM    2  C2  MIQ B 502      -3.852  11.765 -15.967  1.00141.17     0.195 A 
HETATM    3  C3  MIQ B 502      -3.722  12.975 -16.946  1.00141.71     0.035 A 
HETATM    4  C4  MIQ B 502      -3.278  14.379 -16.776  1.00142.86     0.046 A 
HETATM    5  C5  MIQ B 502      -3.268  15.266 -17.882  1.00139.53     0.031 A 
HETATM    6  C12 MIQ B 502      -3.696  14.794 -19.191  1.00139.38     0.030 A 
HETATM    7  C13 MIQ B 502      -4.121  13.448 -19.354  1.00141.18     0.019 A 
HETATM    8  C14 MIQ B 502      -4.127  12.521 -18.190  1.00138.77     0.033 A 
HETATM    9  C15 MIQ B 502      -4.510  11.019 -17.983  1.00142.10     0.195 A 
HETATM   10  N17 MIQ B 502      -4.298  10.761 -16.703  1.00139.42    -0.288 N 
HETATM   11  O16 MIQ B 502      -4.983  10.135 -18.955  1.00148.93    -0.171 OA
ENDROOT
BRANCH  10  12
HETATM   12  C18 MIQ B 502      -4.564   9.450 -16.140  1.00139.82     0.187 C 
HETATM   13  C19 MIQ B 502      -3.841   8.413 -17.008  1.00140.06     0.247 C 
HETATM   14  O25 MIQ B 502      -2.696   8.564 -17.251  1.00143.95    -0.271 OA
HETATM   15  N20 MIQ B 502      -4.522   7.248 -17.533  1.00140.02    -0.296 N 
HETATM   16  H13 MIQ B 502      -4.039   6.582 -18.104  1.00142.77     0.171 HD
HETATM   17  C21 MIQ B 502      -5.921   7.091 -17.231  1.00142.22     0.224 C 
HETATM   18  C22 MIQ B 502      -6.739   8.363 -17.113  1.00139.52     0.106 C 
HETATM   19  O24 MIQ B 502      -6.405   6.024 -17.079  1.00146.13    -0.273 OA
HETATM   20  C23 MIQ B 502      -6.070   9.208 -16.045  1.00139.15     0.045 C 
ENDBRANCH  10  12
BRANCH   5  21
HETATM   21  N6  MIQ B 502      -2.845  16.643 -17.699  1.00140.95    -0.377 N 
HETATM   22  C7  MIQ B 502      -3.289  17.640 -18.657  1.00142.12     0.149 C 
HETATM   23  C8  MIQ B 502      -2.321  18.812 -18.749  1.00144.10     0.187 C 
HETATM   24  O9  MIQ B 502      -1.951  19.310 -17.498  1.00148.65    -0.388 OA
HETATM   25  C10 MIQ B 502      -2.281  18.613 -16.333  1.00147.44     0.187 C 
HETATM   26  C11 MIQ B 502      -2.385  17.093 -16.396  1.00144.08     0.149 C 
ENDBRANCH   5  21
TORSDOF 2
ENDMDL
MODEL 8
REMARK VINA RESULT:      -6.4      2.815      8.728
REMARK  2 active torsions:
REMARK  status: ('A' for Active; 'I' for Inactive)
REMARK    1  A    between atoms: C5_5  and  N6_21 
REMARK    2  A    between atoms: C18_14  and  N17_19 
ROOT
HETATM    1  O1  MIQ B 502      -3.304  14.447 -15.909  1.00142.91    -0.171 OA
HETATM    2  C2  MIQ B 502      -3.577  15.194 -17.057  1.00141.17     0.195 A 
HETATM    3  C3  MIQ B 502      -3.362  16.732 -17.229  1.00141.71     0.035 A 
HETATM    4  C4  MIQ B 502      -2.850  17.796 -16.333  1.00142.86     0.046 A 
HETATM    5  C5  MIQ B 502      -2.769  19.137 -16.786  1.00139.53     0.031 A 
HETATM    6  C12 MIQ B 502      -3.190  19.469 -18.140  1.00139.38     0.030 A 
HETATM    7  C13 MIQ B 502      -3.680  18.449 -19.000  1.00141.18     0.019 A 
HETATM    8  C14 MIQ B 502      -3.760  17.042 -18.519  1.00138.77     0.033 A 
HETATM    9  C15 MIQ B 502      -4.225  15.690 -19.152  1.00142.10     0.195 A 
HETATM   10  N17 MIQ B 502      -4.057  14.772 -18.214  1.00139.42    -0.288 N 
HETATM   11  O16 MIQ B 502      -4.719  15.497 -20.443  1.00148.93    -0.171 OA
ENDROOT
BRANCH  10  12
HETATM   12  C18 MIQ B 502      -4.403  13.382 -18.445  1.00139.82     0.187 C 
HETATM   13  C19 MIQ B 502      -5.326  12.934 -17.305  1.00140.06     0.247 C 
HETATM   14  O25 MIQ B 502      -6.273  13.586 -17.042  1.00143.95    -0.271 OA
HETATM   15  N20 MIQ B 502      -5.071  11.728 -16.545  1.00140.02    -0.296 N 
HETATM   16  H13 MIQ B 502      -5.678  11.450 -15.798  1.00142.77     0.171 HD
HETATM   17  C21 MIQ B 502      -3.903  10.954 -16.878  1.00142.22     0.224 C 
HETATM   18  C22 MIQ B 502      -2.689  11.726 -17.358  1.00139.52     0.106 C 
HETATM   19  O24 MIQ B 502      -3.895   9.776 -16.787  1.00146.13    -0.273 OA
HETATM   20  C23 MIQ B 502      -3.139  12.531 -18.564  1.00139.15     0.045 C 
ENDBRANCH  10  12
BRANCH   5  21
HETATM   21  N6  MIQ B 502      -2.280  20.171 -15.893  1.00140.95    -0.377 N 
HETATM   22  C7  MIQ B 502      -3.244  21.051 -15.256  1.00142.12     0.149 C 
HETATM   23  C8  MIQ B 502      -2.636  22.404 -14.909  1.00144.10     0.187 C 
HETATM   24  O9  MIQ B 502      -1.405  22.296 -14.259  1.00148.65    -0.388 OA
HETATM   25  C10 MIQ B 502      -0.752  21.064 -14.180  1.00147.44     0.187 C 
HETATM   26  C11 MIQ B 502      -0.955  20.057 -15.307  1.00144.08     0.149 C 
ENDBRANCH   5  21
TORSDOF 2
ENDMDL
MODEL 9
REMARK VINA RESULT:      -6.3      1.480      2.198
REMARK  2 active torsions:
REMARK  status: ('A' for Active; 'I' for Inactive)
REMARK    1  A    between atoms: C5_5  and  N6_21 
REMARK    2  A    between atoms: C18_14  and  N17_19 
ROOT
HETATM    1  O1  MIQ B 502      -4.667  13.974 -15.828  1.00142.91    -0.171 OA
HETATM    2  C2  MIQ B 502      -4.470  13.508 -17.130  1.00141.17     0.195 A 
HETATM    3  C3  MIQ B 502      -4.240  12.022 -17.553  1.00141.71     0.035 A 
HETATM    4  C4  MIQ B 502      -4.165  10.748 -16.798  1.00142.86     0.046 A 
HETATM    5  C5  MIQ B 502      -3.941   9.524 -17.479  1.00139.53     0.031 A 
HETATM    6  C12 MIQ B 502      -3.784   9.521 -18.926  1.00139.38     0.030 A 
HETATM    7  C13 MIQ B 502      -3.857  10.742 -19.650  1.00141.18     0.019 A 
HETATM    8  C14 MIQ B 502      -4.095  12.023 -18.930  1.00138.77     0.033 A 
HETATM    9  C15 MIQ B 502      -4.236  13.518 -19.366  1.00142.10     0.195 A 
HETATM   10  N17 MIQ B 502      -4.442  14.204 -18.253  1.00139.42    -0.288 N 
HETATM   11  O16 MIQ B 502      -4.158  14.021 -20.665  1.00148.93    -0.171 OA
ENDROOT
BRANCH  10  12
HETATM   12  C18 MIQ B 502      -4.605  15.646 -18.272  1.00139.82     0.187 C 
HETATM   13  C19 MIQ B 502      -3.573  16.246 -17.310  1.00140.06     0.247 C 
HETATM   14  O25 MIQ B 502      -2.441  15.930 -17.409  1.00143.95    -0.271 OA
HETATM   15  N20 MIQ B 502      -3.948  17.197 -16.284  1.00140.02    -0.296 N 
HETATM   16  H13 MIQ B 502      -3.265  17.577 -15.658  1.00142.77     0.171 HD
HETATM   17  C21 MIQ B 502      -5.337  17.560 -16.176  1.00142.22     0.224 C 
HETATM   18  C22 MIQ B 502      -6.351  16.481 -16.508  1.00139.52     0.106 C 
HETATM   19  O24 MIQ B 502      -5.669  18.646 -15.849  1.00146.13    -0.273 OA
HETATM   20  C23 MIQ B 502      -6.044  16.023 -17.922  1.00139.15     0.045 C 
ENDBRANCH  10  12
BRANCH   5  21
HETATM   21  N6  MIQ B 502      -3.855   8.286 -16.726  1.00140.95    -0.377 N 
HETATM   22  C7  MIQ B 502      -2.822   7.328 -17.080  1.00142.12     0.149 C 
HETATM   23  C8  MIQ B 502      -3.217   5.904 -16.713  1.00144.10     0.187 C 
HETATM   24  O9  MIQ B 502      -3.711   5.795 -15.411  1.00148.65    -0.388 OA
HETATM   25  C10 MIQ B 502      -4.004   6.942 -14.668  1.00147.44     0.187 C 
HETATM   26  C11 MIQ B 502      -4.460   8.195 -15.409  1.00144.08     0.149 C 
ENDBRANCH   5  21
TORSDOF 2
ENDMDL
