MODEL 1
REMARK VINA RESULT:      -7.3      0.000      0.000
REMARK  2 active torsions:
REMARK  status: ('A' for Active; 'I' for Inactive)
REMARK    1  A    between atoms: C5_5  and  N6_21 
REMARK    2  A    between atoms: C18_14  and  N17_19 
ROOT
HETATM    1  O1  MIQ B 502      -1.865  -7.346 -10.182  1.00142.91    -0.171 OA
HETATM    2  C2  MIQ B 502      -2.907  -8.102  -9.641  1.00141.17     0.195 A 
HETATM    3  C3  MIQ B 502      -2.794  -9.551  -9.068  1.00141.71     0.035 A 
HETATM    4  C4  MIQ B 502      -1.668 -10.503  -8.919  1.00142.86     0.046 A 
HETATM    5  C5  MIQ B 502      -1.881 -11.781  -8.344  1.00139.53     0.031 A 
HETATM    6  C12 MIQ B 502      -3.214 -12.159  -7.897  1.00139.38     0.030 A 
HETATM    7  C13 MIQ B 502      -4.294 -11.246  -8.038  1.00141.18     0.019 A 
HETATM    8  C14 MIQ B 502      -4.064  -9.904  -8.640  1.00138.77     0.033 A 
HETATM    9  C15 MIQ B 502      -4.970  -8.668  -8.949  1.00142.10     0.195 A 
HETATM   10  N17 MIQ B 502      -4.176  -7.762  -9.496  1.00139.42    -0.288 N 
HETATM   11  O16 MIQ B 502      -6.338  -8.551  -8.699  1.00148.93    -0.171 OA
ENDROOT
BRANCH  10  12
HETATM   12  C18 MIQ B 502      -4.685  -6.474  -9.931  1.00139.82     0.187 C 
HETATM   13  C19 MIQ B 502      -4.247  -6.265 -11.386  1.00140.06     0.247 C 
HETATM   14  O25 MIQ B 502      -4.459  -7.113 -12.178  1.00143.95    -0.271 OA
HETATM   15  N20 MIQ B 502      -3.584  -5.052 -11.818  1.00140.02    -0.296 N 
HETATM   16  H13 MIQ B 502      -3.297  -4.931 -12.769  1.00142.77     0.171 HD
HETATM   17  C21 MIQ B 502      -3.326  -4.036 -10.830  1.00142.22     0.224 C 
HETATM   18  C22 MIQ B 502      -3.022  -4.515  -9.423  1.00139.52     0.106 C 
HETATM   19  O24 MIQ B 502      -3.356  -2.887 -11.103  1.00146.13    -0.273 OA
HETATM   20  C23 MIQ B 502      -4.202  -5.368  -8.994  1.00139.15     0.045 C 
ENDBRANCH  10  12
BRANCH   5  21
HETATM   21  N6  MIQ B 502      -0.772 -12.709  -8.218  1.00140.95    -0.377 N 
HETATM   22  C7  MIQ B 502       0.411 -12.491  -9.032  1.00142.12     0.149 C 
HETATM   23  C8  MIQ B 502       1.166 -13.788  -9.297  1.00144.10     0.187 C 
HETATM   24  O9  MIQ B 502       1.367 -14.545  -8.141  1.00148.65    -0.388 OA
HETATM   25  C10 MIQ B 502       0.717 -14.208  -6.952  1.00147.44     0.187 C 
HETATM   26  C11 MIQ B 502      -0.652 -13.540  -7.033  1.00144.08     0.149 C 
ENDBRANCH   5  21
TORSDOF 2
ENDMDL
MODEL 2
REMARK VINA RESULT:      -7.2      1.205      2.381
REMARK  2 active torsions:
REMARK  status: ('A' for Active; 'I' for Inactive)
REMARK    1  A    between atoms: C5_5  and  N6_21 
REMARK    2  A    between atoms: C18_14  and  N17_19 
ROOT
HETATM    1  O1  MIQ B 502      -4.669  -9.353  -8.574  1.00142.91    -0.171 OA
HETATM    2  C2  MIQ B 502      -3.382  -9.103  -9.056  1.00141.17     0.195 A 
HETATM    3  C3  MIQ B 502      -2.148 -10.051  -8.925  1.00141.71     0.035 A 
HETATM    4  C4  MIQ B 502      -1.951 -11.388  -8.317  1.00142.86     0.046 A 
HETATM    5  C5  MIQ B 502      -0.679 -12.014  -8.359  1.00139.53     0.031 A 
HETATM    6  C12 MIQ B 502       0.438 -11.339  -9.004  1.00139.38     0.030 A 
HETATM    7  C13 MIQ B 502       0.249 -10.057  -9.588  1.00141.18     0.019 A 
HETATM    8  C14 MIQ B 502      -1.089  -9.406  -9.543  1.00138.77     0.033 A 
HETATM    9  C15 MIQ B 502      -1.669  -8.050 -10.061  1.00142.10     0.195 A 
HETATM   10  N17 MIQ B 502      -2.945  -8.042  -9.712  1.00139.42    -0.288 N 
HETATM   11  O16 MIQ B 502      -0.976  -7.052 -10.749  1.00148.93    -0.171 OA
ENDROOT
BRANCH  10  12
HETATM   12  C18 MIQ B 502      -3.807  -6.915 -10.019  1.00139.82     0.187 C 
HETATM   13  C19 MIQ B 502      -3.583  -6.542 -11.490  1.00140.06     0.247 C 
HETATM   14  O25 MIQ B 502      -3.649  -7.383 -12.314  1.00143.95    -0.271 OA
HETATM   15  N20 MIQ B 502      -3.299  -5.181 -11.897  1.00140.02    -0.296 N 
HETATM   16  H13 MIQ B 502      -3.148  -4.951 -12.860  1.00142.77     0.171 HD
HETATM   17  C21 MIQ B 502      -3.214  -4.173 -10.872  1.00142.22     0.224 C 
HETATM   18  C22 MIQ B 502      -2.660  -4.612  -9.530  1.00139.52     0.106 C 
HETATM   19  O24 MIQ B 502      -3.564  -3.062 -11.067  1.00146.13    -0.273 OA
HETATM   20  C23 MIQ B 502      -3.534  -5.760  -9.057  1.00139.15     0.045 C 
ENDBRANCH  10  12
BRANCH   5  21
HETATM   21  N6  MIQ B 502      -0.496 -13.317  -7.746  1.00140.95    -0.377 N 
HETATM   22  C7  MIQ B 502       0.686 -14.088  -8.092  1.00142.12     0.149 C 
HETATM   23  C8  MIQ B 502       0.455 -15.585  -7.932  1.00144.10     0.187 C 
HETATM   24  O9  MIQ B 502      -0.137 -15.917  -6.712  1.00148.65    -0.388 OA
HETATM   25  C10 MIQ B 502      -0.651 -14.918  -5.881  1.00147.44     0.187 C 
HETATM   26  C11 MIQ B 502      -1.202 -13.648  -6.520  1.00144.08     0.149 C 
ENDBRANCH   5  21
TORSDOF 2
ENDMDL
MODEL 3
REMARK VINA RESULT:      -7.2      2.449      8.383
REMARK  2 active torsions:
REMARK  status: ('A' for Active; 'I' for Inactive)
REMARK    1  A    between atoms: C5_5  and  N6_21 
REMARK    2  A    between atoms: C18_14  and  N17_19 
ROOT
HETATM    1  O1  MIQ B 502      -0.742 -11.429  -8.349  1.00142.91    -0.171 OA
HETATM    2  C2  MIQ B 502      -0.497 -11.070  -9.676  1.00141.17     0.195 A 
HETATM    3  C3  MIQ B 502      -0.995  -9.772 -10.388  1.00141.71     0.035 A 
HETATM    4  C4  MIQ B 502      -1.803  -8.612  -9.942  1.00142.86     0.046 A 
HETATM    5  C5  MIQ B 502      -2.099  -7.557 -10.842  1.00139.53     0.031 A 
HETATM    6  C12 MIQ B 502      -1.604  -7.613 -12.210  1.00139.38     0.030 A 
HETATM    7  C13 MIQ B 502      -0.828  -8.725 -12.637  1.00141.18     0.019 A 
HETATM    8  C14 MIQ B 502      -0.519  -9.829 -11.688  1.00138.77     0.033 A 
HETATM    9  C15 MIQ B 502       0.279 -11.169 -11.784  1.00142.10     0.195 A 
HETATM   10  N17 MIQ B 502       0.195 -11.731 -10.589  1.00139.42    -0.288 N 
HETATM   11  O16 MIQ B 502       0.942 -11.669 -12.906  1.00148.93    -0.171 OA
ENDROOT
BRANCH  10  12
HETATM   12  C18 MIQ B 502       0.815 -13.013 -10.309  1.00139.82     0.187 C 
HETATM   13  C19 MIQ B 502      -0.278 -13.957  -9.792  1.00140.06     0.247 C 
HETATM   14  O25 MIQ B 502      -1.276 -14.075 -10.408  1.00143.95    -0.271 OA
HETATM   15  N20 MIQ B 502      -0.116 -14.714  -8.567  1.00140.02    -0.296 N 
HETATM   16  H13 MIQ B 502      -0.839 -15.321  -8.237  1.00142.77     0.171 HD
HETATM   17  C21 MIQ B 502       1.108 -14.544  -7.826  1.00142.22     0.224 C 
HETATM   18  C22 MIQ B 502       1.743 -13.168  -7.866  1.00139.52     0.106 C 
HETATM   19  O24 MIQ B 502       1.593 -15.437  -7.223  1.00146.13    -0.273 OA
HETATM   20  C23 MIQ B 502       1.974 -12.841  -9.330  1.00139.15     0.045 C 
ENDBRANCH  10  12
BRANCH   5  21
HETATM   21  N6  MIQ B 502      -2.904  -6.434 -10.396  1.00140.95    -0.377 N 
HETATM   22  C7  MIQ B 502      -2.460  -5.677  -9.238  1.00142.12     0.149 C 
HETATM   23  C8  MIQ B 502      -3.624  -5.011  -8.514  1.00144.10     0.187 C 
HETATM   24  O9  MIQ B 502      -4.483  -4.331  -9.378  1.00148.65    -0.388 OA
HETATM   25  C10 MIQ B 502      -4.363  -4.483 -10.762  1.00147.44     0.187 C 
HETATM   26  C11 MIQ B 502      -3.849  -5.812 -11.307  1.00144.08     0.149 C 
ENDBRANCH   5  21
TORSDOF 2
ENDMDL
MODEL 4
REMARK VINA RESULT:      -7.1      2.244      3.758
REMARK  2 active torsions:
REMARK  status: ('A' for Active; 'I' for Inactive)
REMARK    1  A    between atoms: C5_5  and  N6_21 
REMARK    2  A    between atoms: C18_14  and  N17_19 
ROOT
HETATM    1  O1  MIQ B 502      -2.536  -8.877  -9.501  1.00142.91    -0.171 OA
HETATM    2  C2  MIQ B 502      -1.540  -9.417 -10.318  1.00141.17     0.195 A 
HETATM    3  C3  MIQ B 502      -0.705 -10.704 -10.026  1.00141.71     0.035 A 
HETATM    4  C4  MIQ B 502      -0.692 -11.679  -8.910  1.00142.86     0.046 A 
HETATM    5  C5  MIQ B 502       0.204 -12.778  -8.929  1.00139.53     0.031 A 
HETATM    6  C12 MIQ B 502       1.115 -12.949 -10.051  1.00139.38     0.030 A 
HETATM    7  C13 MIQ B 502       1.102 -12.014 -11.122  1.00141.18     0.019 A 
HETATM    8  C14 MIQ B 502       0.158 -10.864 -11.098  1.00138.77     0.033 A 
HETATM    9  C15 MIQ B 502      -0.143  -9.670 -12.061  1.00142.10     0.195 A 
HETATM   10  N17 MIQ B 502      -1.106  -8.969 -11.484  1.00139.42    -0.288 N 
HETATM   11  O16 MIQ B 502       0.481  -9.401 -13.280  1.00148.93    -0.171 OA
ENDROOT
BRANCH  10  12
HETATM   12  C18 MIQ B 502      -1.636  -7.764 -12.094  1.00139.82     0.187 C 
HETATM   13  C19 MIQ B 502      -1.575  -6.645 -11.048  1.00140.06     0.247 C 
HETATM   14  O25 MIQ B 502      -0.561  -6.441 -10.480  1.00143.95    -0.271 OA
HETATM   15  N20 MIQ B 502      -2.728  -5.823 -10.740  1.00140.02    -0.296 N 
HETATM   16  H13 MIQ B 502      -2.677  -5.100 -10.050  1.00142.77     0.171 HD
HETATM   17  C21 MIQ B 502      -3.957  -6.097 -11.439  1.00142.22     0.224 C 
HETATM   18  C22 MIQ B 502      -4.228  -7.546 -11.798  1.00139.52     0.106 C 
HETATM   19  O24 MIQ B 502      -4.713  -5.234 -11.723  1.00146.13    -0.273 OA
HETATM   20  C23 MIQ B 502      -3.046  -8.014 -12.627  1.00139.15     0.045 C 
ENDBRANCH  10  12
BRANCH   5  21
HETATM   21  N6  MIQ B 502       0.215 -13.717  -7.822  1.00140.95    -0.377 N 
HETATM   22  C7  MIQ B 502       1.474 -13.976  -7.144  1.00142.12     0.149 C 
HETATM   23  C8  MIQ B 502       1.502 -15.358  -6.504  1.00144.10     0.187 C 
HETATM   24  O9  MIQ B 502       0.354 -15.634  -5.758  1.00148.65    -0.388 OA
HETATM   25  C10 MIQ B 502      -0.757 -14.789  -5.829  1.00147.44     0.187 C 
HETATM   26  C11 MIQ B 502      -1.021 -14.039  -7.130  1.00144.08     0.149 C 
ENDBRANCH   5  21
TORSDOF 2
ENDMDL
MODEL 5
REMARK VINA RESULT:      -7.1      5.750      7.801
REMARK  2 active torsions:
REMARK  status: ('A' for Active; 'I' for Inactive)
REMARK    1  A    between atoms: C5_5  and  N6_21 
REMARK    2  A    between atoms: C18_14  and  N17_19 
ROOT
HETATM    1  O1  MIQ B 502       0.840  -9.461 -10.680  1.00142.91    -0.171 OA
HETATM    2  C2  MIQ B 502       1.016 -10.470 -11.629  1.00141.17     0.195 A 
HETATM    3  C3  MIQ B 502       2.292 -10.706 -12.499  1.00141.71     0.035 A 
HETATM    4  C4  MIQ B 502       3.601 -10.017 -12.595  1.00142.86     0.046 A 
HETATM    5  C5  MIQ B 502       4.588 -10.478 -13.503  1.00139.53     0.031 A 
HETATM    6  C12 MIQ B 502       4.313 -11.634 -14.344  1.00139.38     0.030 A 
HETATM    7  C13 MIQ B 502       3.059 -12.295 -14.251  1.00141.18     0.019 A 
HETATM    8  C14 MIQ B 502       2.027 -11.809 -13.294  1.00138.77     0.033 A 
HETATM    9  C15 MIQ B 502       0.579 -12.261 -12.916  1.00142.10     0.195 A 
HETATM   10  N17 MIQ B 502       0.166 -11.419 -11.983  1.00139.42    -0.288 N 
HETATM   11  O16 MIQ B 502      -0.130 -13.334 -13.459  1.00148.93    -0.171 OA
ENDROOT
BRANCH  10  12
HETATM   12  C18 MIQ B 502      -1.158 -11.526 -11.399  1.00139.82     0.187 C 
HETATM   13  C19 MIQ B 502      -1.856 -10.171 -11.571  1.00140.06     0.247 C 
HETATM   14  O25 MIQ B 502      -1.884  -9.669 -12.638  1.00143.95    -0.271 OA
HETATM   15  N20 MIQ B 502      -2.487  -9.491 -10.458  1.00140.02    -0.296 N 
HETATM   16  H13 MIQ B 502      -2.934  -8.604 -10.582  1.00142.77     0.171 HD
HETATM   17  C21 MIQ B 502      -2.430 -10.119  -9.163  1.00142.22     0.224 C 
HETATM   18  C22 MIQ B 502      -1.183 -10.923  -8.851  1.00139.52     0.106 C 
HETATM   19  O24 MIQ B 502      -3.315 -10.015  -8.387  1.00146.13    -0.273 OA
HETATM   20  C23 MIQ B 502      -1.062 -11.972  -9.941  1.00139.15     0.045 C 
ENDBRANCH  10  12
BRANCH   5  21
HETATM   21  N6  MIQ B 502       5.859  -9.784 -13.598  1.00140.95    -0.377 N 
HETATM   22  C7  MIQ B 502       7.012 -10.512 -14.101  1.00142.12     0.149 C 
HETATM   23  C8  MIQ B 502       8.320  -9.946 -13.566  1.00144.10     0.187 C 
HETATM   24  O9  MIQ B 502       8.397  -8.556 -13.678  1.00148.65    -0.388 OA
HETATM   25  C10 MIQ B 502       7.269  -7.811 -14.030  1.00147.44     0.187 C 
HETATM   26  C11 MIQ B 502       5.894  -8.333 -13.624  1.00144.08     0.149 C 
ENDBRANCH   5  21
TORSDOF 2
ENDMDL
MODEL 6
REMARK VINA RESULT:      -7.1      4.111      4.862
REMARK  2 active torsions:
REMARK  status: ('A' for Active; 'I' for Inactive)
REMARK    1  A    between atoms: C5_5  and  N6_21 
REMARK    2  A    between atoms: C18_14  and  N17_19 
ROOT
HETATM    1  O1  MIQ B 502      -2.047  -7.355 -12.299  1.00142.91    -0.171 OA
HETATM    2  C2  MIQ B 502      -2.204  -8.738 -12.189  1.00141.17     0.195 A 
HETATM    3  C3  MIQ B 502      -1.096  -9.814 -12.424  1.00141.71     0.035 A 
HETATM    4  C4  MIQ B 502       0.336  -9.736 -12.798  1.00142.86     0.046 A 
HETATM    5  C5  MIQ B 502       1.105 -10.919 -12.938  1.00139.53     0.031 A 
HETATM    6  C12 MIQ B 502       0.484 -12.216 -12.713  1.00139.38     0.030 A 
HETATM    7  C13 MIQ B 502      -0.889 -12.291 -12.353  1.00141.18     0.019 A 
HETATM    8  C14 MIQ B 502      -1.691 -11.045 -12.204  1.00138.77     0.033 A 
HETATM    9  C15 MIQ B 502      -3.177 -10.733 -11.831  1.00142.10     0.195 A 
HETATM   10  N17 MIQ B 502      -3.292  -9.416 -11.865  1.00139.42    -0.288 N 
HETATM   11  O16 MIQ B 502      -4.175 -11.660 -11.526  1.00148.93    -0.171 OA
ENDROOT
BRANCH  10  12
HETATM   12  C18 MIQ B 502      -4.555  -8.759 -11.583  1.00139.82     0.187 C 
HETATM   13  C19 MIQ B 502      -4.876  -7.835 -12.764  1.00140.06     0.247 C 
HETATM   14  O25 MIQ B 502      -4.840  -8.268 -13.861  1.00143.95    -0.271 OA
HETATM   15  N20 MIQ B 502      -5.228  -6.443 -12.571  1.00140.02    -0.296 N 
HETATM   16  H13 MIQ B 502      -5.428  -5.848 -13.351  1.00142.77     0.171 HD
HETATM   17  C21 MIQ B 502      -5.254  -5.934 -11.224  1.00142.22     0.224 C 
HETATM   18  C22 MIQ B 502      -4.249  -6.524 -10.254  1.00139.52     0.106 C 
HETATM   19  O24 MIQ B 502      -6.026  -5.102 -10.893  1.00146.13    -0.273 OA
HETATM   20  C23 MIQ B 502      -4.485  -8.023 -10.246  1.00139.15     0.045 C 
ENDBRANCH  10  12
BRANCH   5  21
HETATM   21  N6  MIQ B 502       2.503 -10.829 -13.320  1.00140.95    -0.377 N 
HETATM   22  C7  MIQ B 502       3.421 -10.132 -12.436  1.00142.12     0.149 C 
HETATM   23  C8  MIQ B 502       4.613  -9.560 -13.191  1.00144.10     0.187 C 
HETATM   24  O9  MIQ B 502       5.203 -10.484 -14.056  1.00148.65    -0.388 OA
HETATM   25  C10 MIQ B 502       4.575 -11.702 -14.325  1.00147.44     0.187 C 
HETATM   26  C11 MIQ B 502       3.051 -11.761 -14.290  1.00144.08     0.149 C 
ENDBRANCH   5  21
TORSDOF 2
ENDMDL
MODEL 7
REMARK VINA RESULT:      -7.1      3.406      4.012
REMARK  2 active torsions:
REMARK  status: ('A' for Active; 'I' for Inactive)
REMARK    1  A    between atoms: C5_5  and  N6_21 
REMARK    2  A    between atoms: C18_14  and  N17_19 
ROOT
HETATM    1  O1  MIQ B 502      -1.769  -6.437  -9.434  1.00142.91    -0.171 OA
HETATM    2  C2  MIQ B 502      -2.580  -6.796 -10.514  1.00141.17     0.195 A 
HETATM    3  C3  MIQ B 502      -2.326  -7.975 -11.506  1.00141.71     0.035 A 
HETATM    4  C4  MIQ B 502      -1.261  -8.999 -11.621  1.00142.86     0.046 A 
HETATM    5  C5  MIQ B 502      -1.305  -9.967 -12.655  1.00139.53     0.031 A 
HETATM    6  C12 MIQ B 502      -2.405  -9.955 -13.609  1.00139.38     0.030 A 
HETATM    7  C13 MIQ B 502      -3.428  -8.974 -13.499  1.00141.18     0.019 A 
HETATM    8  C14 MIQ B 502      -3.377  -7.962 -12.409  1.00138.77     0.033 A 
HETATM    9  C15 MIQ B 502      -4.288  -6.768 -11.975  1.00142.10     0.195 A 
HETATM   10  N17 MIQ B 502      -3.707  -6.233 -10.913  1.00139.42    -0.288 N 
HETATM   11  O16 MIQ B 502      -5.471  -6.353 -12.588  1.00148.93    -0.171 OA
ENDROOT
BRANCH  10  12
HETATM   12  C18 MIQ B 502      -4.273  -5.077 -10.242  1.00139.82     0.187 C 
HETATM   13  C19 MIQ B 502      -3.172  -4.015 -10.131  1.00140.06     0.247 C 
HETATM   14  O25 MIQ B 502      -2.566  -3.711 -11.096  1.00143.95    -0.271 OA
HETATM   15  N20 MIQ B 502      -2.858  -3.369  -8.873  1.00140.02    -0.296 N 
HETATM   16  H13 MIQ B 502      -2.132  -2.682  -8.813  1.00142.77     0.171 HD
HETATM   17  C21 MIQ B 502      -3.605  -3.765  -7.707  1.00142.22     0.224 C 
HETATM   18  C22 MIQ B 502      -4.042  -5.216  -7.638  1.00139.52     0.106 C 
HETATM   19  O24 MIQ B 502      -3.868  -2.994  -6.851  1.00146.13    -0.273 OA
HETATM   20  C23 MIQ B 502      -4.858  -5.481  -8.890  1.00139.15     0.045 C 
ENDBRANCH  10  12
BRANCH   5  21
HETATM   21  N6  MIQ B 502      -0.247 -10.955 -12.765  1.00140.95    -0.377 N 
HETATM   22  C7  MIQ B 502       1.132 -10.503 -12.714  1.00142.12     0.149 C 
HETATM   23  C8  MIQ B 502       2.069 -11.449 -13.454  1.00144.10     0.187 C 
HETATM   24  O9  MIQ B 502       1.867 -12.789 -13.115  1.00148.65    -0.388 OA
HETATM   25  C10 MIQ B 502       0.756 -13.167 -12.357  1.00147.44     0.187 C 
HETATM   26  C11 MIQ B 502      -0.527 -12.352 -12.485  1.00144.08     0.149 C 
ENDBRANCH   5  21
TORSDOF 2
ENDMDL
MODEL 8
REMARK VINA RESULT:      -7.0      3.653      4.604
REMARK  2 active torsions:
REMARK  status: ('A' for Active; 'I' for Inactive)
REMARK    1  A    between atoms: C5_5  and  N6_21 
REMARK    2  A    between atoms: C18_14  and  N17_19 
ROOT
HETATM    1  O1  MIQ B 502      -3.303  -8.136  -9.535  1.00142.91    -0.171 OA
HETATM    2  C2  MIQ B 502      -3.586  -7.990 -10.894  1.00141.17     0.195 A 
HETATM    3  C3  MIQ B 502      -3.679  -9.141 -11.946  1.00141.71     0.035 A 
HETATM    4  C4  MIQ B 502      -3.519 -10.612 -11.864  1.00142.86     0.046 A 
HETATM    5  C5  MIQ B 502      -3.668 -11.415 -13.022  1.00139.53     0.031 A 
HETATM    6  C12 MIQ B 502      -3.982 -10.791 -14.299  1.00139.38     0.030 A 
HETATM    7  C13 MIQ B 502      -4.136  -9.380 -14.379  1.00141.18     0.019 A 
HETATM    8  C14 MIQ B 502      -3.981  -8.542 -13.159  1.00138.77     0.033 A 
HETATM    9  C15 MIQ B 502      -4.076  -7.011 -12.858  1.00142.10     0.195 A 
HETATM   10  N17 MIQ B 502      -3.835  -6.877 -11.564  1.00139.42    -0.288 N 
HETATM   11  O16 MIQ B 502      -4.357  -5.995 -13.773  1.00148.93    -0.171 OA
ENDROOT
BRANCH  10  12
HETATM   12  C18 MIQ B 502      -3.825  -5.574 -10.926  1.00139.82     0.187 C 
HETATM   13  C19 MIQ B 502      -2.510  -5.444 -10.148  1.00140.06     0.247 C 
HETATM   14  O25 MIQ B 502      -1.491  -5.673 -10.697  1.00143.95    -0.271 OA
HETATM   15  N20 MIQ B 502      -2.482  -5.041  -8.757  1.00140.02    -0.296 N 
HETATM   16  H13 MIQ B 502      -1.617  -4.966  -8.259  1.00142.77     0.171 HD
HETATM   17  C21 MIQ B 502      -3.739  -4.776  -8.106  1.00142.22     0.224 C 
HETATM   18  C22 MIQ B 502      -4.925  -5.611  -8.549  1.00139.52     0.106 C 
HETATM   19  O24 MIQ B 502      -3.840  -3.946  -7.271  1.00146.13    -0.273 OA
HETATM   20  C23 MIQ B 502      -5.063  -5.403 -10.047  1.00139.15     0.045 C 
ENDBRANCH  10  12
BRANCH   5  21
HETATM   21  N6  MIQ B 502      -3.494 -12.854 -12.930  1.00140.95    -0.377 N 
HETATM   22  C7  MIQ B 502      -3.937 -13.531 -11.723  1.00142.12     0.149 C 
HETATM   23  C8  MIQ B 502      -3.158 -14.816 -11.473  1.00144.10     0.187 C 
HETATM   24  O9  MIQ B 502      -3.061 -15.622 -12.609  1.00148.65    -0.388 OA
HETATM   25  C10 MIQ B 502      -3.451 -15.134 -13.859  1.00147.44     0.187 C 
HETATM   26  C11 MIQ B 502      -3.310 -13.641 -14.136  1.00144.08     0.149 C 
ENDBRANCH   5  21
TORSDOF 2
ENDMDL
MODEL 9
REMARK VINA RESULT:      -7.0      3.375      7.018
REMARK  2 active torsions:
REMARK  status: ('A' for Active; 'I' for Inactive)
REMARK    1  A    between atoms: C5_5  and  N6_21 
REMARK    2  A    between atoms: C18_14  and  N17_19 
ROOT
HETATM    1  O1  MIQ B 502      -2.985  -9.608 -10.556  1.00142.91    -0.171 OA
HETATM    2  C2  MIQ B 502      -3.272  -8.252 -10.381  1.00141.17     0.195 A 
HETATM    3  C3  MIQ B 502      -4.585  -7.658  -9.779  1.00141.71     0.035 A 
HETATM    4  C4  MIQ B 502      -5.828  -8.265  -9.248  1.00142.86     0.046 A 
HETATM    5  C5  MIQ B 502      -6.874  -7.443  -8.756  1.00139.53     0.031 A 
HETATM    6  C12 MIQ B 502      -6.724  -5.995  -8.773  1.00139.38     0.030 A 
HETATM    7  C13 MIQ B 502      -5.532  -5.413  -9.282  1.00141.18     0.019 A 
HETATM    8  C14 MIQ B 502      -4.437  -6.281  -9.795  1.00138.77     0.033 A 
HETATM    9  C15 MIQ B 502      -3.023  -6.019 -10.409  1.00142.10     0.195 A 
HETATM   10  N17 MIQ B 502      -2.513  -7.210 -10.674  1.00139.42    -0.288 N 
HETATM   11  O16 MIQ B 502      -2.425  -4.777 -10.632  1.00148.93    -0.171 OA
ENDROOT
BRANCH  10  12
HETATM   12  C18 MIQ B 502      -1.201  -7.356 -11.275  1.00139.82     0.187 C 
HETATM   13  C19 MIQ B 502      -1.350  -8.245 -12.516  1.00140.06     0.247 C 
HETATM   14  O25 MIQ B 502      -2.174  -7.981 -13.318  1.00143.95    -0.271 OA
HETATM   15  N20 MIQ B 502      -0.502  -9.399 -12.736  1.00140.02    -0.296 N 
HETATM   16  H13 MIQ B 502      -0.614  -9.975 -13.546  1.00142.77     0.171 HD
HETATM   17  C21 MIQ B 502       0.490  -9.706 -11.738  1.00142.22     0.224 C 
HETATM   18  C22 MIQ B 502       0.130  -9.389 -10.299  1.00139.52     0.106 C 
HETATM   19  O24 MIQ B 502       1.534 -10.178 -12.029  1.00146.13    -0.273 OA
HETATM   20  C23 MIQ B 502      -0.207  -7.910 -10.255  1.00139.15     0.045 C 
ENDBRANCH  10  12
BRANCH   5  21
HETATM   21  N6  MIQ B 502      -8.092  -8.051  -8.251  1.00140.95    -0.377 N 
HETATM   22  C7  MIQ B 502      -8.880  -7.320  -7.274  1.00142.12     0.149 C 
HETATM   23  C8  MIQ B 502      -9.695  -8.253  -6.388  1.00144.10     0.187 C 
HETATM   24  O9  MIQ B 502     -10.392  -9.220  -7.114  1.00148.65    -0.388 OA
HETATM   25  C10 MIQ B 502     -10.138  -9.403  -8.475  1.00147.44     0.187 C 
HETATM   26  C11 MIQ B 502      -8.736  -9.115  -9.001  1.00144.08     0.149 C 
ENDBRANCH   5  21
TORSDOF 2
ENDMDL
