MODEL 1
REMARK VINA RESULT:      -7.4      0.000      0.000
REMARK  2 active torsions:
REMARK  status: ('A' for Active; 'I' for Inactive)
REMARK    1  A    between atoms: C5_5  and  N6_21 
REMARK    2  A    between atoms: C18_14  and  N17_19 
ROOT
HETATM    1  O1  MIQ B 502      14.389   6.565  -0.482  1.00142.91    -0.171 OA
HETATM    2  C2  MIQ B 502      15.066   5.365  -0.708  1.00141.17     0.195 A 
HETATM    3  C3  MIQ B 502      16.244   5.145  -1.711  1.00141.71     0.035 A 
HETATM    4  C4  MIQ B 502      16.960   6.038  -2.652  1.00142.86     0.046 A 
HETATM    5  C5  MIQ B 502      18.018   5.535  -3.452  1.00139.53     0.031 A 
HETATM    6  C12 MIQ B 502      18.401   4.135  -3.346  1.00139.38     0.030 A 
HETATM    7  C13 MIQ B 502      17.715   3.279  -2.443  1.00141.18     0.019 A 
HETATM    8  C14 MIQ B 502      16.607   3.813  -1.604  1.00138.77     0.033 A 
HETATM    9  C15 MIQ B 502      15.651   3.202  -0.528  1.00142.10     0.195 A 
HETATM   10  N17 MIQ B 502      14.866   4.191  -0.134  1.00139.42    -0.288 N 
HETATM   11  O16 MIQ B 502      15.632   1.880  -0.081  1.00148.93    -0.171 OA
ENDROOT
BRANCH  10  12
HETATM   12  C18 MIQ B 502      13.830   3.985   0.861  1.00139.82     0.187 C 
HETATM   13  C19 MIQ B 502      12.505   4.478   0.265  1.00140.06     0.247 C 
HETATM   14  O25 MIQ B 502      12.175   4.096  -0.801  1.00143.95    -0.271 OA
HETATM   15  N20 MIQ B 502      11.643   5.398   0.978  1.00140.02    -0.296 N 
HETATM   16  H13 MIQ B 502      10.784   5.718   0.575  1.00142.77     0.171 HD
HETATM   17  C21 MIQ B 502      12.072   5.860   2.273  1.00142.22     0.224 C 
HETATM   18  C22 MIQ B 502      13.566   6.031   2.474  1.00139.52     0.106 C 
HETATM   19  O24 MIQ B 502      11.297   6.088   3.136  1.00146.13    -0.273 OA
HETATM   20  C23 MIQ B 502      14.199   4.686   2.167  1.00139.15     0.045 C 
ENDBRANCH  10  12
BRANCH   5  21
HETATM   21  N6  MIQ B 502      18.701   6.417  -4.381  1.00140.95    -0.377 N 
HETATM   22  C7  MIQ B 502      18.317   7.818  -4.418  1.00142.12     0.149 C 
HETATM   23  C8  MIQ B 502      18.594   8.447  -5.778  1.00144.10     0.187 C 
HETATM   24  O9  MIQ B 502      19.876   8.166  -6.256  1.00148.65    -0.388 OA
HETATM   25  C10 MIQ B 502      20.676   7.214  -5.619  1.00147.44     0.187 C 
HETATM   26  C11 MIQ B 502      19.996   6.041  -4.919  1.00144.08     0.149 C 
ENDBRANCH   5  21
TORSDOF 2
ENDMDL
MODEL 2
REMARK VINA RESULT:      -7.4      4.272      7.795
REMARK  2 active torsions:
REMARK  status: ('A' for Active; 'I' for Inactive)
REMARK    1  A    between atoms: C5_5  and  N6_21 
REMARK    2  A    between atoms: C18_14  and  N17_19 
ROOT
HETATM    1  O1  MIQ B 502      13.567   4.444   2.017  1.00142.91    -0.171 OA
HETATM    2  C2  MIQ B 502      14.072   3.455   1.170  1.00141.17     0.195 A 
HETATM    3  C3  MIQ B 502      14.796   2.144   1.612  1.00141.71     0.035 A 
HETATM    4  C4  MIQ B 502      15.149   1.570   2.933  1.00142.86     0.046 A 
HETATM    5  C5  MIQ B 502      15.824   0.326   3.016  1.00139.53     0.031 A 
HETATM    6  C12 MIQ B 502      16.171  -0.391   1.798  1.00139.38     0.030 A 
HETATM    7  C13 MIQ B 502      15.832   0.158   0.532  1.00141.18     0.019 A 
HETATM    8  C14 MIQ B 502      15.121   1.463   0.450  1.00138.77     0.033 A 
HETATM    9  C15 MIQ B 502      14.595   2.357  -0.720  1.00142.10     0.195 A 
HETATM   10  N17 MIQ B 502      14.041   3.415  -0.151  1.00139.42    -0.288 N 
HETATM   11  O16 MIQ B 502      14.694   2.089  -2.086  1.00148.93    -0.171 OA
ENDROOT
BRANCH  10  12
HETATM   12  C18 MIQ B 502      13.453   4.480  -0.942  1.00139.82     0.187 C 
HETATM   13  C19 MIQ B 502      14.173   5.784  -0.578  1.00140.06     0.247 C 
HETATM   14  O25 MIQ B 502      15.352   5.818  -0.602  1.00143.95    -0.271 OA
HETATM   15  N20 MIQ B 502      13.444   6.982  -0.212  1.00140.02    -0.296 N 
HETATM   16  H13 MIQ B 502      13.926   7.825   0.030  1.00142.77     0.171 HD
HETATM   17  C21 MIQ B 502      12.006   6.913  -0.180  1.00142.22     0.224 C 
HETATM   18  C22 MIQ B 502      11.396   5.589   0.239  1.00139.52     0.106 C 
HETATM   19  O24 MIQ B 502      11.337   7.842  -0.472  1.00146.13    -0.273 OA
HETATM   20  C23 MIQ B 502      11.944   4.541  -0.713  1.00139.15     0.045 C 
ENDBRANCH  10  12
BRANCH   5  21
HETATM   21  N6  MIQ B 502      16.177  -0.217   4.316  1.00140.95    -0.377 N 
HETATM   22  C7  MIQ B 502      15.826  -1.595   4.611  1.00142.12     0.149 C 
HETATM   23  C8  MIQ B 502      15.649  -1.829   6.106  1.00144.10     0.187 C 
HETATM   24  O9  MIQ B 502      16.696  -1.304   6.866  1.00148.65    -0.388 OA
HETATM   25  C10 MIQ B 502      17.646  -0.464   6.277  1.00147.44     0.187 C 
HETATM   26  C11 MIQ B 502      17.216   0.416   5.109  1.00144.08     0.149 C 
ENDBRANCH   5  21
TORSDOF 2
ENDMDL
MODEL 3
REMARK VINA RESULT:      -7.3      4.365      7.492
REMARK  2 active torsions:
REMARK  status: ('A' for Active; 'I' for Inactive)
REMARK    1  A    between atoms: C5_5  and  N6_21 
REMARK    2  A    between atoms: C18_14  and  N17_19 
ROOT
HETATM    1  O1  MIQ B 502      16.928   3.943  -0.234  1.00142.91    -0.171 OA
HETATM    2  C2  MIQ B 502      15.907   3.641   0.669  1.00141.17     0.195 A 
HETATM    3  C3  MIQ B 502      15.896   2.456   1.686  1.00141.71     0.035 A 
HETATM    4  C4  MIQ B 502      16.860   1.376   2.002  1.00142.86     0.046 A 
HETATM    5  C5  MIQ B 502      16.562   0.420   3.006  1.00139.53     0.031 A 
HETATM    6  C12 MIQ B 502      15.302   0.502   3.731  1.00139.38     0.030 A 
HETATM    7  C13 MIQ B 502      14.378   1.539   3.429  1.00141.18     0.019 A 
HETATM    8  C14 MIQ B 502      14.697   2.540   2.375  1.00138.77     0.033 A 
HETATM    9  C15 MIQ B 502      13.960   3.785   1.783  1.00142.10     0.195 A 
HETATM   10  N17 MIQ B 502      14.764   4.279   0.856  1.00139.42    -0.288 N 
HETATM   11  O16 MIQ B 502      12.706   4.271   2.158  1.00148.93    -0.171 OA
ENDROOT
BRANCH  10  12
HETATM   12  C18 MIQ B 502      14.394   5.445   0.075  1.00139.82     0.187 C 
HETATM   13  C19 MIQ B 502      13.967   6.546   1.053  1.00140.06     0.247 C 
HETATM   14  O25 MIQ B 502      14.678   6.826   1.952  1.00143.95    -0.271 OA
HETATM   15  N20 MIQ B 502      12.715   7.259   0.901  1.00140.02    -0.296 N 
HETATM   16  H13 MIQ B 502      12.445   7.972   1.550  1.00142.77     0.171 HD
HETATM   17  C21 MIQ B 502      11.860   6.893  -0.198  1.00142.22     0.224 C 
HETATM   18  C22 MIQ B 502      11.867   5.434  -0.610  1.00139.52     0.106 C 
HETATM   19  O24 MIQ B 502      11.190   7.694  -0.753  1.00146.13    -0.273 OA
HETATM   20  C23 MIQ B 502      13.307   5.085  -0.936  1.00139.15     0.045 C 
ENDBRANCH  10  12
BRANCH   5  21
HETATM   21  N6  MIQ B 502      17.509  -0.641   3.295  1.00140.95    -0.377 N 
HETATM   22  C7  MIQ B 502      18.018  -0.769   4.650  1.00142.12     0.149 C 
HETATM   23  C8  MIQ B 502      19.393  -1.424   4.682  1.00144.10     0.187 C 
HETATM   24  O9  MIQ B 502      19.460  -2.584   3.908  1.00148.65    -0.388 OA
HETATM   25  C10 MIQ B 502      18.417  -2.917   3.040  1.00147.44     0.187 C 
HETATM   26  C11 MIQ B 502      17.603  -1.790   2.412  1.00144.08     0.149 C 
ENDBRANCH   5  21
TORSDOF 2
ENDMDL
MODEL 4
REMARK VINA RESULT:      -7.2      4.499      7.163
REMARK  2 active torsions:
REMARK  status: ('A' for Active; 'I' for Inactive)
REMARK    1  A    between atoms: C5_5  and  N6_21 
REMARK    2  A    between atoms: C18_14  and  N17_19 
ROOT
HETATM    1  O1  MIQ B 502      14.666   4.402   2.625  1.00142.91    -0.171 OA
HETATM    2  C2  MIQ B 502      14.703   3.432   1.620  1.00141.17     0.195 A 
HETATM    3  C3  MIQ B 502      15.511   2.095   1.659  1.00141.71     0.035 A 
HETATM    4  C4  MIQ B 502      16.407   1.474   2.663  1.00142.86     0.046 A 
HETATM    5  C5  MIQ B 502      17.009   0.217   2.406  1.00139.53     0.031 A 
HETATM    6  C12 MIQ B 502      16.745  -0.467   1.149  1.00139.38     0.030 A 
HETATM    7  C13 MIQ B 502      15.886   0.127   0.186  1.00141.18     0.019 A 
HETATM    8  C14 MIQ B 502      15.254   1.446   0.462  1.00138.77     0.033 A 
HETATM    9  C15 MIQ B 502      14.280   2.385  -0.323  1.00142.10     0.195 A 
HETATM   10  N17 MIQ B 502      14.076   3.434   0.457  1.00139.42    -0.288 N 
HETATM   11  O16 MIQ B 502      13.742   2.158  -1.591  1.00148.93    -0.171 OA
ENDROOT
BRANCH  10  12
HETATM   12  C18 MIQ B 502      13.225   4.532   0.040  1.00139.82     0.187 C 
HETATM   13  C19 MIQ B 502      14.059   5.818   0.096  1.00140.06     0.247 C 
HETATM   14  O25 MIQ B 502      15.110   5.847  -0.440  1.00143.95    -0.271 OA
HETATM   15  N20 MIQ B 502      13.592   7.003   0.786  1.00140.02    -0.296 N 
HETATM   16  H13 MIQ B 502      14.149   7.833   0.821  1.00142.77     0.171 HD
HETATM   17  C21 MIQ B 502      12.311   6.940   1.442  1.00142.22     0.224 C 
HETATM   18  C22 MIQ B 502      11.917   5.603   2.041  1.00139.52     0.106 C 
HETATM   19  O24 MIQ B 502      11.602   7.883   1.505  1.00146.13    -0.273 OA
HETATM   20  C23 MIQ B 502      11.970   4.592   0.910  1.00139.15     0.045 C 
ENDBRANCH  10  12
BRANCH   5  21
HETATM   21  N6  MIQ B 502      17.897  -0.372   3.392  1.00140.95    -0.377 N 
HETATM   22  C7  MIQ B 502      17.440  -0.468   4.768  1.00142.12     0.149 C 
HETATM   23  C8  MIQ B 502      18.601  -0.475   5.754  1.00144.10     0.187 C 
HETATM   24  O9  MIQ B 502      19.612  -1.370   5.397  1.00148.65    -0.388 OA
HETATM   25  C10 MIQ B 502      19.603  -1.983   4.141  1.00147.44     0.187 C 
HETATM   26  C11 MIQ B 502      18.988  -1.230   2.966  1.00144.08     0.149 C 
ENDBRANCH   5  21
TORSDOF 2
ENDMDL
MODEL 5
REMARK VINA RESULT:      -7.2      1.035      1.039
REMARK  2 active torsions:
REMARK  status: ('A' for Active; 'I' for Inactive)
REMARK    1  A    between atoms: C5_5  and  N6_21 
REMARK    2  A    between atoms: C18_14  and  N17_19 
ROOT
HETATM    1  O1  MIQ B 502      14.195   6.087  -0.745  1.00142.91    -0.171 OA
HETATM    2  C2  MIQ B 502      15.113   5.040  -0.639  1.00141.17     0.195 A 
HETATM    3  C3  MIQ B 502      16.305   4.757  -1.607  1.00141.71     0.035 A 
HETATM    4  C4  MIQ B 502      16.810   5.432  -2.827  1.00142.86     0.046 A 
HETATM    5  C5  MIQ B 502      17.946   4.927  -3.507  1.00139.53     0.031 A 
HETATM    6  C12 MIQ B 502      18.621   3.739  -3.004  1.00139.38     0.030 A 
HETATM    7  C13 MIQ B 502      18.138   3.093  -1.835  1.00141.18     0.019 A 
HETATM    8  C14 MIQ B 502      16.946   3.629  -1.123  1.00138.77     0.033 A 
HETATM    9  C15 MIQ B 502      16.147   3.208   0.154  1.00142.10     0.195 A 
HETATM   10  N17 MIQ B 502      15.171   4.092   0.281  1.00139.42    -0.288 N 
HETATM   11  O16 MIQ B 502      16.413   2.119   0.986  1.00148.93    -0.171 OA
ENDROOT
BRANCH  10  12
HETATM   12  C18 MIQ B 502      14.207   4.005   1.362  1.00139.82     0.187 C 
HETATM   13  C19 MIQ B 502      12.804   4.037   0.742  1.00140.06     0.247 C 
HETATM   14  O25 MIQ B 502      12.547   3.294  -0.138  1.00143.95    -0.271 OA
HETATM   15  N20 MIQ B 502      11.782   4.950   1.211  1.00140.02    -0.296 N 
HETATM   16  H13 MIQ B 502      10.873   4.965   0.793  1.00142.77     0.171 HD
HETATM   17  C21 MIQ B 502      12.124   5.854   2.279  1.00142.22     0.224 C 
HETATM   18  C22 MIQ B 502      13.554   6.355   2.316  1.00139.52     0.106 C 
HETATM   19  O24 MIQ B 502      11.328   6.182   3.089  1.00146.13    -0.273 OA
HETATM   20  C23 MIQ B 502      14.442   5.125   2.375  1.00139.15     0.045 C 
ENDBRANCH  10  12
BRANCH   5  21
HETATM   21  N6  MIQ B 502      18.421   5.590  -4.708  1.00140.95    -0.377 N 
HETATM   22  C7  MIQ B 502      17.451   5.967  -5.723  1.00142.12     0.149 C 
HETATM   23  C8  MIQ B 502      18.076   6.033  -7.110  1.00144.10     0.187 C 
HETATM   24  O9  MIQ B 502      19.274   6.750  -7.133  1.00148.65    -0.388 OA
HETATM   25  C10 MIQ B 502      19.893   7.133  -5.941  1.00147.44     0.187 C 
HETATM   26  C11 MIQ B 502      19.714   6.251  -4.710  1.00144.08     0.149 C 
ENDBRANCH   5  21
TORSDOF 2
ENDMDL
MODEL 6
REMARK VINA RESULT:      -7.2      4.858      7.584
REMARK  2 active torsions:
REMARK  status: ('A' for Active; 'I' for Inactive)
REMARK    1  A    between atoms: C5_5  and  N6_21 
REMARK    2  A    between atoms: C18_14  and  N17_19 
ROOT
HETATM    1  O1  MIQ B 502      14.787   0.869  -2.216  1.00142.91    -0.171 OA
HETATM    2  C2  MIQ B 502      15.207   1.036  -0.895  1.00141.17     0.195 A 
HETATM    3  C3  MIQ B 502      14.840   2.228   0.046  1.00141.71     0.035 A 
HETATM    4  C4  MIQ B 502      14.012   3.445  -0.127  1.00142.86     0.046 A 
HETATM    5  C5  MIQ B 502      13.861   4.367   0.939  1.00139.53     0.031 A 
HETATM    6  C12 MIQ B 502      14.524   4.116   2.211  1.00139.38     0.030 A 
HETATM    7  C13 MIQ B 502      15.317   2.948   2.377  1.00141.18     0.019 A 
HETATM    8  C14 MIQ B 502      15.469   1.983   1.255  1.00138.77     0.033 A 
HETATM    9  C15 MIQ B 502      16.231   0.631   1.064  1.00142.10     0.195 A 
HETATM   10  N17 MIQ B 502      15.980   0.241  -0.175  1.00139.42    -0.288 N 
HETATM   11  O16 MIQ B 502      17.018  -0.026   2.012  1.00148.93    -0.171 OA
ENDROOT
BRANCH  10  12
HETATM   12  C18 MIQ B 502      16.543  -0.982  -0.713  1.00139.82     0.187 C 
HETATM   13  C19 MIQ B 502      17.222  -0.638  -2.045  1.00140.06     0.247 C 
HETATM   14  O25 MIQ B 502      17.991   0.256  -2.085  1.00143.95    -0.271 OA
HETATM   15  N20 MIQ B 502      16.951  -1.385  -3.256  1.00140.02    -0.296 N 
HETATM   16  H13 MIQ B 502      17.395  -1.146  -4.120  1.00142.77     0.171 HD
HETATM   17  C21 MIQ B 502      16.001  -2.465  -3.184  1.00142.22     0.224 C 
HETATM   18  C22 MIQ B 502      14.846  -2.293  -2.216  1.00139.52     0.106 C 
HETATM   19  O24 MIQ B 502      16.120  -3.438  -3.843  1.00146.13    -0.273 OA
HETATM   20  C23 MIQ B 502      15.461  -2.052  -0.849  1.00139.15     0.045 C 
ENDBRANCH  10  12
BRANCH   5  21
HETATM   21  N6  MIQ B 502      13.059   5.562   0.751  1.00140.95    -0.377 N 
HETATM   22  C7  MIQ B 502      12.179   5.634  -0.402  1.00142.12     0.149 C 
HETATM   23  C8  MIQ B 502      11.921   7.072  -0.833  1.00144.10     0.187 C 
HETATM   24  O9  MIQ B 502      11.576   7.905   0.233  1.00148.65    -0.388 OA
HETATM   25  C10 MIQ B 502      11.705   7.458   1.550  1.00147.44     0.187 C 
HETATM   26  C11 MIQ B 502      12.799   6.446   1.874  1.00144.08     0.149 C 
ENDBRANCH   5  21
TORSDOF 2
ENDMDL
MODEL 7
REMARK VINA RESULT:      -6.8      3.325      8.233
REMARK  2 active torsions:
REMARK  status: ('A' for Active; 'I' for Inactive)
REMARK    1  A    between atoms: C5_5  and  N6_21 
REMARK    2  A    between atoms: C18_14  and  N17_19 
ROOT
HETATM    1  O1  MIQ B 502      17.758   2.839  -1.701  1.00142.91    -0.171 OA
HETATM    2  C2  MIQ B 502      16.720   3.481  -1.022  1.00141.17     0.195 A 
HETATM    3  C3  MIQ B 502      16.127   3.066   0.362  1.00141.71     0.035 A 
HETATM    4  C4  MIQ B 502      16.434   1.974   1.316  1.00142.86     0.046 A 
HETATM    5  C5  MIQ B 502      15.703   1.853   2.525  1.00139.53     0.031 A 
HETATM    6  C12 MIQ B 502      14.647   2.807   2.830  1.00139.38     0.030 A 
HETATM    7  C13 MIQ B 502      14.353   3.854   1.916  1.00141.18     0.019 A 
HETATM    8  C14 MIQ B 502      15.125   3.978   0.649  1.00138.77     0.033 A 
HETATM    9  C15 MIQ B 502      15.097   4.966  -0.563  1.00142.10     0.195 A 
HETATM   10  N17 MIQ B 502      16.040   4.552  -1.393  1.00139.42    -0.288 N 
HETATM   11  O16 MIQ B 502      14.245   6.059  -0.731  1.00148.93    -0.171 OA
ENDROOT
BRANCH  10  12
HETATM   12  C18 MIQ B 502      16.293   5.231  -2.651  1.00139.82     0.187 C 
HETATM   13  C19 MIQ B 502      16.241   4.180  -3.767  1.00140.06     0.247 C 
HETATM   14  O25 MIQ B 502      15.311   3.458  -3.836  1.00143.95    -0.271 OA
HETATM   15  N20 MIQ B 502      17.301   4.053  -4.746  1.00140.02    -0.296 N 
HETATM   16  H13 MIQ B 502      17.259   3.359  -5.466  1.00142.77     0.171 HD
HETATM   17  C21 MIQ B 502      18.431   4.940  -4.635  1.00142.22     0.224 C 
HETATM   18  C22 MIQ B 502      18.843   5.347  -3.233  1.00139.52     0.106 C 
HETATM   19  O24 MIQ B 502      19.004   5.333  -5.591  1.00146.13    -0.273 OA
HETATM   20  C23 MIQ B 502      17.622   5.981  -2.592  1.00139.15     0.045 C 
ENDBRANCH  10  12
BRANCH   5  21
HETATM   21  N6  MIQ B 502      16.004   0.770   3.443  1.00140.95    -0.377 N 
HETATM   22  C7  MIQ B 502      15.311   0.728   4.719  1.00142.12     0.149 C 
HETATM   23  C8  MIQ B 502      16.125   0.005   5.785  1.00144.10     0.187 C 
HETATM   24  O9  MIQ B 502      16.635  -1.217   5.343  1.00148.65    -0.388 OA
HETATM   25  C10 MIQ B 502      16.569  -1.564   3.991  1.00147.44     0.187 C 
HETATM   26  C11 MIQ B 502      16.615  -0.452   2.949  1.00144.08     0.149 C 
ENDBRANCH   5  21
TORSDOF 2
ENDMDL
MODEL 8
REMARK VINA RESULT:      -6.8      7.349     11.004
REMARK  2 active torsions:
REMARK  status: ('A' for Active; 'I' for Inactive)
REMARK    1  A    between atoms: C5_5  and  N6_21 
REMARK    2  A    between atoms: C18_14  and  N17_19 
ROOT
HETATM    1  O1  MIQ B 502      15.688  14.102  -6.876  1.00142.91    -0.171 OA
HETATM    2  C2  MIQ B 502      15.617  13.275  -8.000  1.00141.17     0.195 A 
HETATM    3  C3  MIQ B 502      16.396  11.938  -8.211  1.00141.71     0.035 A 
HETATM    4  C4  MIQ B 502      17.363  11.179  -7.382  1.00142.86     0.046 A 
HETATM    5  C5  MIQ B 502      17.914   9.962  -7.856  1.00139.53     0.031 A 
HETATM    6  C12 MIQ B 502      17.527   9.455  -9.165  1.00139.38     0.030 A 
HETATM    7  C13 MIQ B 502      16.600  10.181  -9.960  1.00141.18     0.019 A 
HETATM    8  C14 MIQ B 502      16.022  11.457  -9.456  1.00138.77     0.033 A 
HETATM    9  C15 MIQ B 502      15.005  12.502 -10.019  1.00142.10     0.195 A 
HETATM   10  N17 MIQ B 502      14.891  13.439  -9.092  1.00139.42    -0.288 N 
HETATM   11  O16 MIQ B 502      14.353  12.452 -11.253  1.00148.93    -0.171 OA
ENDROOT
BRANCH  10  12
HETATM   12  C18 MIQ B 502      14.031  14.592  -9.282  1.00139.82     0.187 C 
HETATM   13  C19 MIQ B 502      14.856  15.847  -8.972  1.00140.06     0.247 C 
HETATM   14  O25 MIQ B 502      15.904  15.990  -9.493  1.00143.95    -0.271 OA
HETATM   15  N20 MIQ B 502      14.381  16.867  -8.061  1.00140.02    -0.296 N 
HETATM   16  H13 MIQ B 502      14.932  17.679  -7.862  1.00142.77     0.171 HD
HETATM   17  C21 MIQ B 502      13.102  16.665  -7.429  1.00142.22     0.224 C 
HETATM   18  C22 MIQ B 502      12.720  15.233  -7.107  1.00139.52     0.106 C 
HETATM   19  O24 MIQ B 502      12.386  17.572  -7.179  1.00146.13    -0.273 OA
HETATM   20  C23 MIQ B 502      12.778  14.467  -8.417  1.00139.15     0.045 C 
ENDBRANCH  10  12
BRANCH   5  21
HETATM   21  N6  MIQ B 502      18.871   9.238  -7.040  1.00140.95    -0.377 N 
HETATM   22  C7  MIQ B 502      18.404   8.100  -6.267  1.00142.12     0.149 C 
HETATM   23  C8  MIQ B 502      19.266   7.858  -5.034  1.00144.10     0.187 C 
HETATM   24  O9  MIQ B 502      20.633   7.865  -5.318  1.00148.65    -0.388 OA
HETATM   25  C10 MIQ B 502      21.095   8.290  -6.566  1.00147.44     0.187 C 
HETATM   26  C11 MIQ B 502      20.292   9.345  -7.320  1.00144.08     0.149 C 
ENDBRANCH   5  21
TORSDOF 2
ENDMDL
MODEL 9
REMARK VINA RESULT:      -6.7      5.407      9.618
REMARK  2 active torsions:
REMARK  status: ('A' for Active; 'I' for Inactive)
REMARK    1  A    between atoms: C5_5  and  N6_21 
REMARK    2  A    between atoms: C18_14  and  N17_19 
ROOT
HETATM    1  O1  MIQ B 502      14.696   3.208   2.691  1.00142.91    -0.171 OA
HETATM    2  C2  MIQ B 502      15.157   1.908   2.475  1.00141.17     0.195 A 
HETATM    3  C3  MIQ B 502      15.455   0.840   3.576  1.00141.71     0.035 A 
HETATM    4  C4  MIQ B 502      15.357   0.847   5.055  1.00142.86     0.046 A 
HETATM    5  C5  MIQ B 502      15.706  -0.307   5.801  1.00139.53     0.031 A 
HETATM    6  C12 MIQ B 502      16.163  -1.504   5.110  1.00139.38     0.030 A 
HETATM    7  C13 MIQ B 502      16.257  -1.510   3.692  1.00141.18     0.019 A 
HETATM    8  C14 MIQ B 502      15.887  -0.297   2.913  1.00138.77     0.033 A 
HETATM    9  C15 MIQ B 502      15.856   0.066   1.393  1.00142.10     0.195 A 
HETATM   10  N17 MIQ B 502      15.428   1.316   1.325  1.00139.42    -0.288 N 
HETATM   11  O16 MIQ B 502      16.211  -0.764   0.328  1.00148.93    -0.171 OA
ENDROOT
BRANCH  10  12
HETATM   12  C18 MIQ B 502      15.288   2.000   0.053  1.00139.82     0.187 C 
HETATM   13  C19 MIQ B 502      16.136   3.276   0.112  1.00140.06     0.247 C 
HETATM   14  O25 MIQ B 502      17.264   3.203   0.450  1.00143.95    -0.271 OA
HETATM   15  N20 MIQ B 502      15.592   4.572  -0.243  1.00140.02    -0.296 N 
HETATM   16  H13 MIQ B 502      16.155   5.398  -0.193  1.00142.77     0.171 HD
HETATM   17  C21 MIQ B 502      14.210   4.637  -0.643  1.00142.22     0.224 C 
HETATM   18  C22 MIQ B 502      13.262   3.659   0.023  1.00139.52     0.106 C 
HETATM   19  O24 MIQ B 502      13.838   5.411  -1.454  1.00146.13    -0.273 OA
HETATM   20  C23 MIQ B 502      13.814   2.271  -0.246  1.00139.15     0.045 C 
ENDBRANCH  10  12
BRANCH   5  21
HETATM   21  N6  MIQ B 502      15.619  -0.282   7.250  1.00140.95    -0.377 N 
HETATM   22  C7  MIQ B 502      16.718  -0.835   8.022  1.00142.12     0.149 C 
HETATM   23  C8  MIQ B 502      16.261  -1.331   9.388  1.00144.10     0.187 C 
HETATM   24  O9  MIQ B 502      15.465  -0.404  10.063  1.00148.65    -0.388 OA
HETATM   25  C10 MIQ B 502      14.984   0.730   9.404  1.00147.44     0.187 C 
HETATM   26  C11 MIQ B 502      14.710   0.642   7.906  1.00144.08     0.149 C 
ENDBRANCH   5  21
TORSDOF 2
ENDMDL
