MODEL 1
REMARK VINA RESULT:      -7.0      0.000      0.000
REMARK  2 active torsions:
REMARK  status: ('A' for Active; 'I' for Inactive)
REMARK    1  A    between atoms: C5_5  and  N6_21 
REMARK    2  A    between atoms: C18_14  and  N17_19 
ROOT
HETATM    1  O1  MIQ B 502       5.833   6.765 -12.145  1.00142.91    -0.171 OA
HETATM    2  C2  MIQ B 502       6.086   7.363 -13.382  1.00141.17     0.195 A 
HETATM    3  C3  MIQ B 502       5.014   7.817 -14.423  1.00141.71     0.035 A 
HETATM    4  C4  MIQ B 502       3.533   7.774 -14.446  1.00142.86     0.046 A 
HETATM    5  C5  MIQ B 502       2.818   8.278 -15.562  1.00139.53     0.031 A 
HETATM    6  C12 MIQ B 502       3.545   8.841 -16.691  1.00139.38     0.030 A 
HETATM    7  C13 MIQ B 502       4.965   8.884 -16.669  1.00141.18     0.019 A 
HETATM    8  C14 MIQ B 502       5.710   8.355 -15.494  1.00138.77     0.033 A 
HETATM    9  C15 MIQ B 502       7.222   8.235 -15.114  1.00142.10     0.195 A 
HETATM   10  N17 MIQ B 502       7.254   7.669 -13.919  1.00139.42    -0.288 N 
HETATM   11  O16 MIQ B 502       8.312   8.642 -15.885  1.00148.93    -0.171 OA
ENDROOT
BRANCH  10  12
HETATM   12  C18 MIQ B 502       8.510   7.384 -13.250  1.00139.82     0.187 C 
HETATM   13  C19 MIQ B 502       8.487   5.913 -12.819  1.00140.06     0.247 C 
HETATM   14  O25 MIQ B 502       8.213   5.084 -13.613  1.00143.95    -0.271 OA
HETATM   15  N20 MIQ B 502       8.798   5.509 -11.463  1.00140.02    -0.296 N 
HETATM   16  H13 MIQ B 502       8.773   4.546 -11.192  1.00142.77     0.171 HD
HETATM   17  C21 MIQ B 502       9.119   6.540 -10.509  1.00142.22     0.224 C 
HETATM   18  C22 MIQ B 502       8.410   7.869 -10.678  1.00139.52     0.106 C 
HETATM   19  O24 MIQ B 502       9.901   6.357  -9.642  1.00146.13    -0.273 OA
HETATM   20  C23 MIQ B 502       8.723   8.349 -12.084  1.00139.15     0.045 C 
ENDBRANCH  10  12
BRANCH   5  21
HETATM   21  N6  MIQ B 502       1.368   8.215 -15.577  1.00140.95    -0.377 N 
HETATM   22  C7  MIQ B 502       0.629   9.356 -16.090  1.00142.12     0.149 C 
HETATM   23  C8  MIQ B 502      -0.765   9.450 -15.483  1.00144.10     0.187 C 
HETATM   24  O9  MIQ B 502      -1.451   8.235 -15.508  1.00148.65    -0.388 OA
HETATM   25  C10 MIQ B 502      -0.787   7.053 -15.848  1.00147.44     0.187 C 
HETATM   26  C11 MIQ B 502       0.696   6.929 -15.514  1.00144.08     0.149 C 
ENDBRANCH   5  21
TORSDOF 2
ENDMDL
MODEL 2
REMARK VINA RESULT:      -6.9      1.847      7.929
REMARK  2 active torsions:
REMARK  status: ('A' for Active; 'I' for Inactive)
REMARK    1  A    between atoms: C5_5  and  N6_21 
REMARK    2  A    between atoms: C18_14  and  N17_19 
ROOT
HETATM    1  O1  MIQ B 502       3.499   7.738 -12.682  1.00142.91    -0.171 OA
HETATM    2  C2  MIQ B 502       4.635   7.947 -13.467  1.00141.17     0.195 A 
HETATM    3  C3  MIQ B 502       6.114   7.688 -13.036  1.00141.71     0.035 A 
HETATM    4  C4  MIQ B 502       6.739   7.186 -11.789  1.00142.86     0.046 A 
HETATM    5  C5  MIQ B 502       8.148   7.055 -11.696  1.00139.53     0.031 A 
HETATM    6  C12 MIQ B 502       8.984   7.414 -12.833  1.00139.38     0.030 A 
HETATM    7  C13 MIQ B 502       8.385   7.894 -14.029  1.00141.18     0.019 A 
HETATM    8  C14 MIQ B 502       6.905   8.028 -14.121  1.00138.77     0.033 A 
HETATM    9  C15 MIQ B 502       5.911   8.500 -15.233  1.00142.10     0.195 A 
HETATM   10  N17 MIQ B 502       4.701   8.391 -14.710  1.00139.42    -0.288 N 
HETATM   11  O16 MIQ B 502       6.241   8.947 -16.513  1.00148.93    -0.171 OA
ENDROOT
BRANCH  10  12
HETATM   12  C18 MIQ B 502       3.516   8.761 -15.461  1.00139.82     0.187 C 
HETATM   13  C19 MIQ B 502       2.664   9.674 -14.571  1.00140.06     0.247 C 
HETATM   14  O25 MIQ B 502       3.168  10.608 -14.054  1.00143.95    -0.271 OA
HETATM   15  N20 MIQ B 502       1.254   9.426 -14.350  1.00140.02    -0.296 N 
HETATM   16  H13 MIQ B 502       0.711  10.026 -13.761  1.00142.77     0.171 HD
HETATM   17  C21 MIQ B 502       0.665   8.275 -14.982  1.00142.22     0.224 C 
HETATM   18  C22 MIQ B 502       1.553   7.057 -15.144  1.00139.52     0.106 C 
HETATM   19  O24 MIQ B 502      -0.455   8.283 -15.361  1.00146.13    -0.273 OA
HETATM   20  C23 MIQ B 502       2.770   7.512 -15.929  1.00139.15     0.045 C 
ENDBRANCH  10  12
BRANCH   5  21
HETATM   21  N6  MIQ B 502       8.748   6.576 -10.464  1.00140.95    -0.377 N 
HETATM   22  C7  MIQ B 502       8.405   5.244  -9.996  1.00142.12     0.149 C 
HETATM   23  C8  MIQ B 502       8.545   5.119  -8.485  1.00144.10     0.187 C 
HETATM   24  O9  MIQ B 502       9.755   5.627  -8.007  1.00148.65    -0.388 OA
HETATM   25  C10 MIQ B 502      10.592   6.367  -8.845  1.00147.44     0.187 C 
HETATM   26  C11 MIQ B 502       9.962   7.195  -9.960  1.00144.08     0.149 C 
ENDBRANCH   5  21
TORSDOF 2
ENDMDL
MODEL 3
REMARK VINA RESULT:      -6.6      2.395      8.136
REMARK  2 active torsions:
REMARK  status: ('A' for Active; 'I' for Inactive)
REMARK    1  A    between atoms: C5_5  and  N6_21 
REMARK    2  A    between atoms: C18_14  and  N17_19 
ROOT
HETATM    1  O1  MIQ B 502       4.055   7.111 -13.224  1.00142.91    -0.171 OA
HETATM    2  C2  MIQ B 502       4.760   8.300 -13.027  1.00141.17     0.195 A 
HETATM    3  C3  MIQ B 502       6.008   8.491 -12.107  1.00141.71     0.035 A 
HETATM    4  C4  MIQ B 502       6.781   7.575 -11.235  1.00142.86     0.046 A 
HETATM    5  C5  MIQ B 502       7.898   8.053 -10.505  1.00139.53     0.031 A 
HETATM    6  C12 MIQ B 502       8.288   9.451 -10.614  1.00139.38     0.030 A 
HETATM    7  C13 MIQ B 502       7.548  10.330 -11.451  1.00141.18     0.019 A 
HETATM    8  C14 MIQ B 502       6.377   9.822 -12.217  1.00138.77     0.033 A 
HETATM    9  C15 MIQ B 502       5.353  10.461 -13.210  1.00142.10     0.195 A 
HETATM   10  N17 MIQ B 502       4.531   9.486 -13.565  1.00139.42    -0.288 N 
HETATM   11  O16 MIQ B 502       5.316  11.791 -13.632  1.00148.93    -0.171 OA
ENDROOT
BRANCH  10  12
HETATM   12  C18 MIQ B 502       3.428   9.720 -14.478  1.00139.82     0.187 C 
HETATM   13  C19 MIQ B 502       2.137   9.293 -13.771  1.00140.06     0.247 C 
HETATM   14  O25 MIQ B 502       1.908   9.706 -12.690  1.00143.95    -0.271 OA
HETATM   15  N20 MIQ B 502       1.183   8.398 -14.396  1.00140.02    -0.296 N 
HETATM   16  H13 MIQ B 502       0.347   8.122 -13.921  1.00142.77     0.171 HD
HETATM   17  C21 MIQ B 502       1.490   7.899 -15.711  1.00142.22     0.224 C 
HETATM   18  C22 MIQ B 502       2.954   7.662 -16.026  1.00139.52     0.106 C 
HETATM   19  O24 MIQ B 502       0.640   7.690 -16.506  1.00146.13    -0.273 OA
HETATM   20  C23 MIQ B 502       3.664   8.983 -15.796  1.00139.15     0.045 C 
ENDBRANCH  10  12
BRANCH   5  21
HETATM   21  N6  MIQ B 502       8.636   7.148  -9.643  1.00140.95    -0.377 N 
HETATM   22  C7  MIQ B 502       8.435   5.718  -9.801  1.00142.12     0.149 C 
HETATM   23  C8  MIQ B 502       8.715   4.958  -8.512  1.00144.10     0.187 C 
HETATM   24  O9  MIQ B 502       9.921   5.328  -7.913  1.00148.65    -0.388 OA
HETATM   25  C10 MIQ B 502      10.625   6.444  -8.372  1.00147.44     0.187 C 
HETATM   26  C11 MIQ B 502       9.841   7.606  -8.972  1.00144.08     0.149 C 
ENDBRANCH   5  21
TORSDOF 2
ENDMDL
MODEL 4
REMARK VINA RESULT:      -6.6      1.277      2.405
REMARK  2 active torsions:
REMARK  status: ('A' for Active; 'I' for Inactive)
REMARK    1  A    between atoms: C5_5  and  N6_21 
REMARK    2  A    between atoms: C18_14  and  N17_19 
ROOT
HETATM    1  O1  MIQ B 502       7.657   8.401 -15.867  1.00142.91    -0.171 OA
HETATM    2  C2  MIQ B 502       6.899   8.162 -14.718  1.00141.17     0.195 A 
HETATM    3  C3  MIQ B 502       5.342   8.215 -14.613  1.00141.71     0.035 A 
HETATM    4  C4  MIQ B 502       4.264   8.502 -15.589  1.00142.86     0.046 A 
HETATM    5  C5  MIQ B 502       2.905   8.473 -15.185  1.00139.53     0.031 A 
HETATM    6  C12 MIQ B 502       2.568   8.158 -13.804  1.00139.38     0.030 A 
HETATM    7  C13 MIQ B 502       3.601   7.882 -12.868  1.00141.18     0.019 A 
HETATM    8  C14 MIQ B 502       5.026   7.912 -13.298  1.00138.77     0.033 A 
HETATM    9  C15 MIQ B 502       6.395   7.668 -12.584  1.00142.10     0.195 A 
HETATM   10  N17 MIQ B 502       7.325   7.843 -13.508  1.00139.42    -0.288 N 
HETATM   11  O16 MIQ B 502       6.590   7.336 -11.242  1.00148.93    -0.171 OA
ENDROOT
BRANCH  10  12
HETATM   12  C18 MIQ B 502       8.736   7.711 -13.196  1.00139.82     0.187 C 
HETATM   13  C19 MIQ B 502       8.940   6.351 -12.517  1.00140.06     0.247 C 
HETATM   14  O25 MIQ B 502       8.510   5.380 -13.031  1.00143.95    -0.271 OA
HETATM   15  N20 MIQ B 502       9.652   6.223 -11.262  1.00140.02    -0.296 N 
HETATM   16  H13 MIQ B 502       9.773   5.331 -10.825  1.00142.77     0.171 HD
HETATM   17  C21 MIQ B 502      10.159   7.424 -10.649  1.00142.22     0.224 C 
HETATM   18  C22 MIQ B 502       9.340   8.685 -10.842  1.00139.52     0.106 C 
HETATM   19  O24 MIQ B 502      11.167   7.424 -10.031  1.00146.13    -0.273 OA
HETATM   20  C23 MIQ B 502       9.204   8.887 -12.340  1.00139.15     0.045 C 
ENDBRANCH  10  12
BRANCH   5  21
HETATM   21  N6  MIQ B 502       1.860   8.770 -16.148  1.00140.95    -0.377 N 
HETATM   22  C7  MIQ B 502       0.478   8.533 -15.769  1.00142.12     0.149 C 
HETATM   23  C8  MIQ B 502      -0.405   8.259 -16.980  1.00144.10     0.187 C 
HETATM   24  O9  MIQ B 502      -0.219   9.185 -18.008  1.00148.65    -0.388 OA
HETATM   25  C10 MIQ B 502       0.843  10.092 -17.960  1.00147.44     0.187 C 
HETATM   26  C11 MIQ B 502       2.128   9.675 -17.252  1.00144.08     0.149 C 
ENDBRANCH   5  21
TORSDOF 2
ENDMDL
MODEL 5
REMARK VINA RESULT:      -6.5      2.055      2.394
REMARK  2 active torsions:
REMARK  status: ('A' for Active; 'I' for Inactive)
REMARK    1  A    between atoms: C5_5  and  N6_21 
REMARK    2  A    between atoms: C18_14  and  N17_19 
ROOT
HETATM    1  O1  MIQ B 502       5.042   5.667 -12.893  1.00142.91    -0.171 OA
HETATM    2  C2  MIQ B 502       5.111   7.060 -12.967  1.00141.17     0.195 A 
HETATM    3  C3  MIQ B 502       3.992   8.012 -13.496  1.00141.71     0.035 A 
HETATM    4  C4  MIQ B 502       2.630   7.784 -14.034  1.00142.86     0.046 A 
HETATM    5  C5  MIQ B 502       1.828   8.880 -14.442  1.00139.53     0.031 A 
HETATM    6  C12 MIQ B 502       2.346  10.236 -14.331  1.00139.38     0.030 A 
HETATM    7  C13 MIQ B 502       3.652  10.455 -13.814  1.00141.18     0.019 A 
HETATM    8  C14 MIQ B 502       4.488   9.301 -13.385  1.00138.77     0.033 A 
HETATM    9  C15 MIQ B 502       5.923   9.148 -12.783  1.00142.10     0.195 A 
HETATM   10  N17 MIQ B 502       6.110   7.849 -12.610  1.00139.42    -0.288 N 
HETATM   11  O16 MIQ B 502       6.822  10.175 -12.492  1.00148.93    -0.171 OA
ENDROOT
BRANCH  10  12
HETATM   12  C18 MIQ B 502       7.354   7.328 -12.076  1.00139.82     0.187 C 
HETATM   13  C19 MIQ B 502       7.696   8.131 -10.815  1.00140.06     0.247 C 
HETATM   14  O25 MIQ B 502       6.878   8.262  -9.976  1.00143.95    -0.271 OA
HETATM   15  N20 MIQ B 502       9.000   8.731 -10.623  1.00140.02    -0.296 N 
HETATM   16  H13 MIQ B 502       9.209   9.259  -9.798  1.00142.77     0.171 HD
HETATM   17  C21 MIQ B 502       9.979   8.567 -11.666  1.00142.22     0.224 C 
HETATM   18  C22 MIQ B 502       9.457   8.515 -13.089  1.00139.52     0.106 C 
HETATM   19  O24 MIQ B 502      11.132   8.471 -11.423  1.00146.13    -0.273 OA
HETATM   20  C23 MIQ B 502       8.451   7.379 -13.138  1.00139.15     0.045 C 
ENDBRANCH  10  12
BRANCH   5  21
HETATM   21  N6  MIQ B 502       0.502   8.641 -14.982  1.00140.95    -0.377 N 
HETATM   22  C7  MIQ B 502      -0.321   9.785 -15.334  1.00142.12     0.149 C 
HETATM   23  C8  MIQ B 502      -1.808   9.461 -15.255  1.00144.10     0.187 C 
HETATM   24  O9  MIQ B 502      -2.139   8.267 -15.899  1.00148.65    -0.388 OA
HETATM   25  C10 MIQ B 502      -1.136   7.399 -16.338  1.00147.44     0.187 C 
HETATM   26  C11 MIQ B 502       0.178   7.351 -15.565  1.00144.08     0.149 C 
ENDBRANCH   5  21
TORSDOF 2
ENDMDL
MODEL 6
REMARK VINA RESULT:      -6.5      2.496      8.196
REMARK  2 active torsions:
REMARK  status: ('A' for Active; 'I' for Inactive)
REMARK    1  A    between atoms: C5_5  and  N6_21 
REMARK    2  A    between atoms: C18_14  and  N17_19 
ROOT
HETATM    1  O1  MIQ B 502       5.576  10.539 -12.133  1.00142.91    -0.171 OA
HETATM    2  C2  MIQ B 502       5.465   9.277 -12.720  1.00141.17     0.195 A 
HETATM    3  C3  MIQ B 502       6.261   7.997 -12.312  1.00141.71     0.035 A 
HETATM    4  C4  MIQ B 502       7.286   7.721 -11.276  1.00142.86     0.046 A 
HETATM    5  C5  MIQ B 502       7.838   6.422 -11.143  1.00139.53     0.031 A 
HETATM    6  C12 MIQ B 502       7.396   5.354 -12.028  1.00139.38     0.030 A 
HETATM    7  C13 MIQ B 502       6.413   5.618 -13.020  1.00141.18     0.019 A 
HETATM    8  C14 MIQ B 502       5.835   6.983 -13.154  1.00138.77     0.033 A 
HETATM    9  C15 MIQ B 502       4.767   7.638 -14.090  1.00142.10     0.195 A 
HETATM   10  N17 MIQ B 502       4.681   8.904 -13.717  1.00139.42    -0.288 N 
HETATM   11  O16 MIQ B 502       4.055   7.009 -15.113  1.00148.93    -0.171 OA
ENDROOT
BRANCH  10  12
HETATM   12  C18 MIQ B 502       3.787   9.831 -14.385  1.00139.82     0.187 C 
HETATM   13  C19 MIQ B 502       2.369   9.254 -14.305  1.00140.06     0.247 C 
HETATM   14  O25 MIQ B 502       1.945   8.910 -13.259  1.00143.95    -0.271 OA
HETATM   15  N20 MIQ B 502       1.530   9.123 -15.478  1.00140.02    -0.296 N 
HETATM   16  H13 MIQ B 502       0.608   8.738 -15.414  1.00142.77     0.171 HD
HETATM   17  C21 MIQ B 502       2.073   9.540 -16.745  1.00142.22     0.224 C 
HETATM   18  C22 MIQ B 502       3.562   9.339 -16.947  1.00139.52     0.106 C 
HETATM   19  O24 MIQ B 502       1.390  10.019 -17.583  1.00146.13    -0.273 OA
HETATM   20  C23 MIQ B 502       4.254  10.081 -15.818  1.00139.15     0.045 C 
ENDBRANCH  10  12
BRANCH   5  21
HETATM   21  N6  MIQ B 502       8.851   6.170 -10.134  1.00140.95    -0.377 N 
HETATM   22  C7  MIQ B 502       9.827   7.209  -9.855  1.00142.12     0.149 C 
HETATM   23  C8  MIQ B 502      11.132   6.634  -9.320  1.00144.10     0.187 C 
HETATM   24  O9  MIQ B 502      10.938   5.706  -8.295  1.00148.65    -0.388 OA
HETATM   25  C10 MIQ B 502       9.657   5.229  -8.005  1.00147.44     0.187 C 
HETATM   26  C11 MIQ B 502       8.641   5.133  -9.139  1.00144.08     0.149 C 
ENDBRANCH   5  21
TORSDOF 2
ENDMDL
MODEL 7
REMARK VINA RESULT:      -6.5      2.376      3.413
REMARK  2 active torsions:
REMARK  status: ('A' for Active; 'I' for Inactive)
REMARK    1  A    between atoms: C5_5  and  N6_21 
REMARK    2  A    between atoms: C18_14  and  N17_19 
ROOT
HETATM    1  O1  MIQ B 502       7.286  10.487 -10.864  1.00142.91    -0.171 OA
HETATM    2  C2  MIQ B 502       7.407   9.152 -11.256  1.00141.17     0.195 A 
HETATM    3  C3  MIQ B 502       6.367   8.338 -12.090  1.00141.71     0.035 A 
HETATM    4  C4  MIQ B 502       5.050   8.672 -12.683  1.00142.86     0.046 A 
HETATM    5  C5  MIQ B 502       4.322   7.695 -13.407  1.00139.53     0.031 A 
HETATM    6  C12 MIQ B 502       4.872   6.356 -13.569  1.00139.38     0.030 A 
HETATM    7  C13 MIQ B 502       6.135   6.036 -13.002  1.00141.18     0.019 A 
HETATM    8  C14 MIQ B 502       6.896   7.067 -12.245  1.00138.77     0.033 A 
HETATM    9  C15 MIQ B 502       8.272   7.093 -11.503  1.00142.10     0.195 A 
HETATM   10  N17 MIQ B 502       8.402   8.316 -11.017  1.00139.42    -0.288 N 
HETATM   11  O16 MIQ B 502       9.175   6.035 -11.380  1.00148.93    -0.171 OA
ENDROOT
BRANCH  10  12
HETATM   12  C18 MIQ B 502       9.568   8.704 -10.245  1.00139.82     0.187 C 
HETATM   13  C19 MIQ B 502      10.811   8.399 -11.089  1.00140.06     0.247 C 
HETATM   14  O25 MIQ B 502      10.865   8.797 -12.199  1.00143.95    -0.271 OA
HETATM   15  N20 MIQ B 502      11.926   7.640 -10.561  1.00140.02    -0.296 N 
HETATM   16  H13 MIQ B 502      12.729   7.442 -11.125  1.00142.77     0.171 HD
HETATM   17  C21 MIQ B 502      11.832   7.157  -9.208  1.00142.22     0.224 C 
HETATM   18  C22 MIQ B 502      10.451   6.768  -8.718  1.00139.52     0.106 C 
HETATM   19  O24 MIQ B 502      12.785   7.073  -8.514  1.00146.13    -0.273 OA
HETATM   20  C23 MIQ B 502       9.571   7.993  -8.892  1.00139.15     0.045 C 
ENDBRANCH  10  12
BRANCH   5  21
HETATM   21  N6  MIQ B 502       3.027   8.031 -13.970  1.00140.95    -0.377 N 
HETATM   22  C7  MIQ B 502       2.638   9.430 -14.030  1.00142.12     0.149 C 
HETATM   23  C8  MIQ B 502       1.124   9.601 -14.011  1.00144.10     0.187 C 
HETATM   24  O9  MIQ B 502       0.471   8.760 -14.914  1.00148.65    -0.388 OA
HETATM   25  C10 MIQ B 502       1.168   7.735 -15.559  1.00147.44     0.187 C 
HETATM   26  C11 MIQ B 502       2.345   7.087 -14.837  1.00144.08     0.149 C 
ENDBRANCH   5  21
TORSDOF 2
ENDMDL
MODEL 8
REMARK VINA RESULT:      -6.4      2.042      2.395
REMARK  2 active torsions:
REMARK  status: ('A' for Active; 'I' for Inactive)
REMARK    1  A    between atoms: C5_5  and  N6_21 
REMARK    2  A    between atoms: C18_14  and  N17_19 
ROOT
HETATM    1  O1  MIQ B 502       5.909   7.056 -12.550  1.00142.91    -0.171 OA
HETATM    2  C2  MIQ B 502       5.633   8.424 -12.613  1.00141.17     0.195 A 
HETATM    3  C3  MIQ B 502       4.331   9.077 -13.178  1.00141.71     0.035 A 
HETATM    4  C4  MIQ B 502       3.088   8.526 -13.769  1.00142.86     0.046 A 
HETATM    5  C5  MIQ B 502       2.054   9.394 -14.201  1.00139.53     0.031 A 
HETATM    6  C12 MIQ B 502       2.214  10.834 -14.061  1.00139.38     0.030 A 
HETATM    7  C13 MIQ B 502       3.405  11.363 -13.493  1.00141.18     0.019 A 
HETATM    8  C14 MIQ B 502       4.487  10.446 -13.040  1.00138.77     0.033 A 
HETATM    9  C15 MIQ B 502       5.893  10.644 -12.385  1.00142.10     0.195 A 
HETATM   10  N17 MIQ B 502       6.390   9.431 -12.213  1.00139.42    -0.288 N 
HETATM   11  O16 MIQ B 502       6.497  11.859 -12.054  1.00148.93    -0.171 OA
ENDROOT
BRANCH  10  12
HETATM   12  C18 MIQ B 502       7.705   9.226 -11.636  1.00139.82     0.187 C 
HETATM   13  C19 MIQ B 502       8.501   8.330 -12.592  1.00140.06     0.247 C 
HETATM   14  O25 MIQ B 502       8.562   8.618 -13.735  1.00143.95    -0.271 OA
HETATM   15  N20 MIQ B 502       9.188   7.141 -12.132  1.00140.02    -0.296 N 
HETATM   16  H13 MIQ B 502       9.699   6.561 -12.767  1.00142.77     0.171 HD
HETATM   17  C21 MIQ B 502       9.091   6.805 -10.734  1.00142.22     0.224 C 
HETATM   18  C22 MIQ B 502       7.789   7.152 -10.039  1.00139.52     0.106 C 
HETATM   19  O24 MIQ B 502       9.985   6.289 -10.160  1.00146.13    -0.273 OA
HETATM   20  C23 MIQ B 502       7.584   8.644 -10.228  1.00139.15     0.045 C 
ENDBRANCH  10  12
BRANCH   5  21
HETATM   21  N6  MIQ B 502       0.849   8.842 -14.791  1.00140.95    -0.377 N 
HETATM   22  C7  MIQ B 502      -0.167   9.757 -15.282  1.00142.12     0.149 C 
HETATM   23  C8  MIQ B 502      -1.555   9.131 -15.261  1.00144.10     0.187 C 
HETATM   24  O9  MIQ B 502      -1.584   7.852 -15.821  1.00148.65    -0.388 OA
HETATM   25  C10 MIQ B 502      -0.393   7.189 -16.130  1.00147.44     0.187 C 
HETATM   26  C11 MIQ B 502       0.843   7.475 -15.284  1.00144.08     0.149 C 
ENDBRANCH   5  21
TORSDOF 2
ENDMDL
MODEL 9
REMARK VINA RESULT:      -6.4      1.799      2.475
REMARK  2 active torsions:
REMARK  status: ('A' for Active; 'I' for Inactive)
REMARK    1  A    between atoms: C5_5  and  N6_21 
REMARK    2  A    between atoms: C18_14  and  N17_19 
ROOT
HETATM    1  O1  MIQ B 502       5.365  11.093 -12.280  1.00142.91    -0.171 OA
HETATM    2  C2  MIQ B 502       5.221   9.772 -12.711  1.00141.17     0.195 A 
HETATM    3  C3  MIQ B 502       3.982   9.174 -13.452  1.00141.71     0.035 A 
HETATM    4  C4  MIQ B 502       2.690   9.745 -13.901  1.00142.86     0.046 A 
HETATM    5  C5  MIQ B 502       1.740   8.930 -14.568  1.00139.53     0.031 A 
HETATM    6  C12 MIQ B 502       2.038   7.527 -14.814  1.00139.38     0.030 A 
HETATM    7  C13 MIQ B 502       3.277   6.980 -14.385  1.00141.18     0.019 A 
HETATM    8  C14 MIQ B 502       4.271   7.840 -13.687  1.00138.77     0.033 A 
HETATM    9  C15 MIQ B 502       5.697   7.608 -13.089  1.00142.10     0.195 A 
HETATM   10  N17 MIQ B 502       6.079   8.773 -12.592  1.00139.42    -0.288 N 
HETATM   11  O16 MIQ B 502       6.416   6.412 -13.081  1.00148.93    -0.171 OA
ENDROOT
BRANCH  10  12
HETATM   12  C18 MIQ B 502       7.362   8.933 -11.935  1.00139.82     0.187 C 
HETATM   13  C19 MIQ B 502       8.437   8.346 -12.858  1.00140.06     0.247 C 
HETATM   14  O25 MIQ B 502       8.475   8.687 -13.987  1.00143.95    -0.271 OA
HETATM   15  N20 MIQ B 502       9.413   7.387 -12.382  1.00140.02    -0.296 N 
HETATM   16  H13 MIQ B 502      10.105   7.007 -12.997  1.00142.77     0.171 HD
HETATM   17  C21 MIQ B 502       9.339   6.979 -11.003  1.00142.22     0.224 C 
HETATM   18  C22 MIQ B 502       7.955   6.906 -10.387  1.00139.52     0.106 C 
HETATM   19  O24 MIQ B 502      10.311   6.719 -10.383  1.00146.13    -0.273 OA
HETATM   20  C23 MIQ B 502       7.336   8.281 -10.553  1.00139.15     0.045 C 
ENDBRANCH  10  12
BRANCH   5  21
HETATM   21  N6  MIQ B 502       0.472   9.499 -14.989  1.00140.95    -0.377 N 
HETATM   22  C7  MIQ B 502       0.479  10.777 -15.679  1.00142.12     0.149 C 
HETATM   23  C8  MIQ B 502      -0.828  11.534 -15.486  1.00144.10     0.187 C 
HETATM   24  O9  MIQ B 502      -1.955  10.740 -15.711  1.00148.65    -0.388 OA
HETATM   25  C10 MIQ B 502      -1.827   9.357 -15.859  1.00147.44     0.187 C 
HETATM   26  C11 MIQ B 502      -0.695   8.646 -15.126  1.00144.08     0.149 C 
ENDBRANCH   5  21
TORSDOF 2
ENDMDL
