MODEL 1
REMARK VINA RESULT:      -6.8      0.000      0.000
REMARK  2 active torsions:
REMARK  status: ('A' for Active; 'I' for Inactive)
REMARK    1  A    between atoms: C5_5  and  N6_21 
REMARK    2  A    between atoms: C18_14  and  N17_19 
ROOT
HETATM    1  O1  MIQ B 502      -2.406  -8.274  21.653  1.00142.91    -0.171 OA
HETATM    2  C2  MIQ B 502      -2.981  -8.551  22.895  1.00141.17     0.195 A 
HETATM    3  C3  MIQ B 502      -2.720  -7.777  24.226  1.00141.71     0.035 A 
HETATM    4  C4  MIQ B 502      -1.870  -6.615  24.579  1.00142.86     0.046 A 
HETATM    5  C5  MIQ B 502      -1.843  -6.125  25.909  1.00139.53     0.031 A 
HETATM    6  C12 MIQ B 502      -2.654  -6.767  26.932  1.00139.38     0.030 A 
HETATM    7  C13 MIQ B 502      -3.469  -7.881  26.594  1.00141.18     0.019 A 
HETATM    8  C14 MIQ B 502      -3.496  -8.390  25.196  1.00138.77     0.033 A 
HETATM    9  C15 MIQ B 502      -4.244  -9.550  24.462  1.00142.10     0.195 A 
HETATM   10  N17 MIQ B 502      -3.850  -9.499  23.201  1.00139.42    -0.288 N 
HETATM   11  O16 MIQ B 502      -5.143 -10.456  25.030  1.00148.93    -0.171 OA
ENDROOT
BRANCH  10  12
HETATM   12  C18 MIQ B 502      -4.335 -10.449  22.217  1.00139.82     0.187 C 
HETATM   13  C19 MIQ B 502      -5.867 -10.454  22.286  1.00140.06     0.247 C 
HETATM   14  O25 MIQ B 502      -6.449  -9.430  22.232  1.00143.95    -0.271 OA
HETATM   15  N20 MIQ B 502      -6.622 -11.684  22.410  1.00140.02    -0.296 N 
HETATM   16  H13 MIQ B 502      -7.622 -11.673  22.460  1.00142.77     0.171 HD
HETATM   17  C21 MIQ B 502      -5.889 -12.921  22.484  1.00142.22     0.224 C 
HETATM   18  C22 MIQ B 502      -4.543 -12.875  23.182  1.00139.52     0.106 C 
HETATM   19  O24 MIQ B 502      -6.314 -13.921  22.018  1.00146.13    -0.273 OA
HETATM   20  C23 MIQ B 502      -3.718 -11.826  22.458  1.00139.15     0.045 C 
ENDBRANCH  10  12
BRANCH   5  21
HETATM   21  N6  MIQ B 502      -0.995  -4.995  26.243  1.00140.95    -0.377 N 
HETATM   22  C7  MIQ B 502       0.446  -5.175  26.213  1.00142.12     0.149 C 
HETATM   23  C8  MIQ B 502       1.160  -4.213  27.154  1.00144.10     0.187 C 
HETATM   24  O9  MIQ B 502       0.720  -2.895  27.019  1.00148.65    -0.388 OA
HETATM   25  C10 MIQ B 502      -0.414  -2.601  26.258  1.00147.44     0.187 C 
HETATM   26  C11 MIQ B 502      -1.524  -3.644  26.171  1.00144.08     0.149 C 
ENDBRANCH   5  21
TORSDOF 2
ENDMDL
MODEL 2
REMARK VINA RESULT:      -6.8     10.032     15.739
REMARK  2 active torsions:
REMARK  status: ('A' for Active; 'I' for Inactive)
REMARK    1  A    between atoms: C5_5  and  N6_21 
REMARK    2  A    between atoms: C18_14  and  N17_19 
ROOT
HETATM    1  O1  MIQ B 502       9.876  -0.556  21.994  1.00142.91    -0.171 OA
HETATM    2  C2  MIQ B 502       8.643  -0.031  22.390  1.00141.17     0.195 A 
HETATM    3  C3  MIQ B 502       7.238  -0.628  22.059  1.00141.71     0.035 A 
HETATM    4  C4  MIQ B 502       6.790  -1.821  21.301  1.00142.86     0.046 A 
HETATM    5  C5  MIQ B 502       5.409  -2.111  21.172  1.00139.53     0.031 A 
HETATM    6  C12 MIQ B 502       4.425  -1.231  21.788  1.00139.38     0.030 A 
HETATM    7  C13 MIQ B 502       4.854  -0.088  22.515  1.00141.18     0.019 A 
HETATM    8  C14 MIQ B 502       6.306   0.209  22.650  1.00138.77     0.033 A 
HETATM    9  C15 MIQ B 502       7.138   1.332  23.352  1.00142.10     0.195 A 
HETATM   10  N17 MIQ B 502       8.408   1.049  23.114  1.00139.42    -0.288 N 
HETATM   11  O16 MIQ B 502       6.636   2.413  24.078  1.00148.93    -0.171 OA
ENDROOT
BRANCH  10  12
HETATM   12  C18 MIQ B 502       9.478   1.897  23.606  1.00139.82     0.187 C 
HETATM   13  C19 MIQ B 502      10.354   2.287  22.409  1.00140.06     0.247 C 
HETATM   14  O25 MIQ B 502       9.845   2.736  21.445  1.00143.95    -0.271 OA
HETATM   15  N20 MIQ B 502      11.793   2.124  22.432  1.00140.02    -0.296 N 
HETATM   16  H13 MIQ B 502      12.353   2.376  21.641  1.00142.77     0.171 HD
HETATM   17  C21 MIQ B 502      12.390   1.564  23.616  1.00142.22     0.224 C 
HETATM   18  C22 MIQ B 502      11.576   0.526  24.364  1.00139.52     0.106 C 
HETATM   19  O24 MIQ B 502      13.460   1.902  23.988  1.00146.13    -0.273 OA
HETATM   20  C23 MIQ B 502      10.254   1.185  24.713  1.00139.15     0.045 C 
ENDBRANCH  10  12
BRANCH   5  21
HETATM   21  N6  MIQ B 502       4.984  -3.274  20.415  1.00140.95    -0.377 N 
HETATM   22  C7  MIQ B 502       5.628  -3.547  19.142  1.00142.12     0.149 C 
HETATM   23  C8  MIQ B 502       4.720  -4.327  18.200  1.00144.10     0.187 C 
HETATM   24  O9  MIQ B 502       4.119  -5.428  18.813  1.00148.65    -0.388 OA
HETATM   25  C10 MIQ B 502       4.198  -5.598  20.198  1.00147.44     0.187 C 
HETATM   26  C11 MIQ B 502       4.284  -4.358  21.081  1.00144.08     0.149 C 
ENDBRANCH   5  21
TORSDOF 2
ENDMDL
MODEL 3
REMARK VINA RESULT:      -6.7      1.655      2.256
REMARK  2 active torsions:
REMARK  status: ('A' for Active; 'I' for Inactive)
REMARK    1  A    between atoms: C5_5  and  N6_21 
REMARK    2  A    between atoms: C18_14  and  N17_19 
ROOT
HETATM    1  O1  MIQ B 502      -2.664  -9.742  22.011  1.00142.91    -0.171 OA
HETATM    2  C2  MIQ B 502      -3.373  -9.681  23.213  1.00141.17     0.195 A 
HETATM    3  C3  MIQ B 502      -3.181  -8.621  24.344  1.00141.71     0.035 A 
HETATM    4  C4  MIQ B 502      -2.283  -7.453  24.504  1.00142.86     0.046 A 
HETATM    5  C5  MIQ B 502      -2.344  -6.657  25.676  1.00139.53     0.031 A 
HETATM    6  C12 MIQ B 502      -3.295  -6.991  26.727  1.00139.38     0.030 A 
HETATM    7  C13 MIQ B 502      -4.157  -8.110  26.573  1.00141.18     0.019 A 
HETATM    8  C14 MIQ B 502      -4.090  -8.940  25.340  1.00138.77     0.033 A 
HETATM    9  C15 MIQ B 502      -4.852 -10.204  24.823  1.00142.10     0.195 A 
HETATM   10  N17 MIQ B 502      -4.337 -10.480  23.636  1.00139.42    -0.288 N 
HETATM   11  O16 MIQ B 502      -5.866 -10.898  25.485  1.00148.93    -0.171 OA
ENDROOT
BRANCH  10  12
HETATM   12  C18 MIQ B 502      -4.797 -11.615  22.856  1.00139.82     0.187 C 
HETATM   13  C19 MIQ B 502      -3.578 -12.489  22.539  1.00140.06     0.247 C 
HETATM   14  O25 MIQ B 502      -2.862 -12.819  23.416  1.00143.95    -0.271 OA
HETATM   15  N20 MIQ B 502      -3.284 -12.928  21.190  1.00140.02    -0.296 N 
HETATM   16  H13 MIQ B 502      -2.481 -13.493  20.995  1.00142.77     0.171 HD
HETATM   17  C21 MIQ B 502      -4.167 -12.503  20.135  1.00142.22     0.224 C 
HETATM   18  C22 MIQ B 502      -4.795 -11.131  20.283  1.00139.52     0.106 C 
HETATM   19  O24 MIQ B 502      -4.393 -13.194  19.203  1.00146.13    -0.273 OA
HETATM   20  C23 MIQ B 502      -5.536 -11.137  21.607  1.00139.15     0.045 C 
ENDBRANCH  10  12
BRANCH   5  21
HETATM   21  N6  MIQ B 502      -1.448  -5.525  25.826  1.00140.95    -0.377 N 
HETATM   22  C7  MIQ B 502      -1.888  -4.393  26.623  1.00142.12     0.149 C 
HETATM   23  C8  MIQ B 502      -1.213  -3.097  26.191  1.00144.10     0.187 C 
HETATM   24  O9  MIQ B 502       0.170  -3.226  26.049  1.00148.65    -0.388 OA
HETATM   25  C10 MIQ B 502       0.771  -4.488  26.084  1.00147.44     0.187 C 
HETATM   26  C11 MIQ B 502      -0.025  -5.688  25.584  1.00144.08     0.149 C 
ENDBRANCH   5  21
TORSDOF 2
ENDMDL
MODEL 4
REMARK VINA RESULT:      -6.7      2.727      8.614
REMARK  2 active torsions:
REMARK  status: ('A' for Active; 'I' for Inactive)
REMARK    1  A    between atoms: C5_5  and  N6_21 
REMARK    2  A    between atoms: C18_14  and  N17_19 
ROOT
HETATM    1  O1  MIQ B 502       0.474  -4.499  25.798  1.00142.91    -0.171 OA
HETATM    2  C2  MIQ B 502      -0.568  -5.159  26.454  1.00141.17     0.195 A 
HETATM    3  C3  MIQ B 502      -1.515  -6.235  25.832  1.00141.71     0.035 A 
HETATM    4  C4  MIQ B 502      -1.612  -6.851  24.487  1.00142.86     0.046 A 
HETATM    5  C5  MIQ B 502      -2.603  -7.829  24.217  1.00139.53     0.031 A 
HETATM    6  C12 MIQ B 502      -3.528  -8.230  25.267  1.00139.38     0.030 A 
HETATM    7  C13 MIQ B 502      -3.434  -7.640  26.557  1.00141.18     0.019 A 
HETATM    8  C14 MIQ B 502      -2.390  -6.615  26.835  1.00138.77     0.033 A 
HETATM    9  C15 MIQ B 502      -1.985  -5.772  28.088  1.00142.10     0.195 A 
HETATM   10  N17 MIQ B 502      -0.963  -5.023  27.708  1.00139.42    -0.288 N 
HETATM   11  O16 MIQ B 502      -2.586  -5.804  29.347  1.00148.93    -0.171 OA
ENDROOT
BRANCH  10  12
HETATM   12  C18 MIQ B 502      -0.328  -4.089  28.620  1.00139.82     0.187 C 
HETATM   13  C19 MIQ B 502      -0.365  -2.701  27.968  1.00140.06     0.247 C 
HETATM   14  O25 MIQ B 502      -1.389  -2.286  27.554  1.00143.95    -0.271 OA
HETATM   15  N20 MIQ B 502       0.823  -1.881  27.851  1.00140.02    -0.296 N 
HETATM   16  H13 MIQ B 502       0.787  -0.979  27.417  1.00142.77     0.171 HD
HETATM   17  C21 MIQ B 502       2.063  -2.414  28.354  1.00142.22     0.224 C 
HETATM   18  C22 MIQ B 502       2.256  -3.914  28.239  1.00139.52     0.106 C 
HETATM   19  O24 MIQ B 502       2.885  -1.715  28.837  1.00146.13    -0.273 OA
HETATM   20  C23 MIQ B 502       1.086  -4.556  28.960  1.00139.15     0.045 C 
ENDBRANCH  10  12
BRANCH   5  21
HETATM   21  N6  MIQ B 502      -2.696  -8.413  22.891  1.00140.95    -0.377 N 
HETATM   22  C7  MIQ B 502      -2.664  -9.860  22.766  1.00142.12     0.149 C 
HETATM   23  C8  MIQ B 502      -2.130 -10.302  21.409  1.00144.10     0.187 C 
HETATM   24  O9  MIQ B 502      -2.727  -9.624  20.344  1.00148.65    -0.388 OA
HETATM   25  C10 MIQ B 502      -3.540  -8.512  20.580  1.00147.44     0.187 C 
HETATM   26  C11 MIQ B 502      -3.246  -7.637  21.794  1.00144.08     0.149 C 
ENDBRANCH   5  21
TORSDOF 2
ENDMDL
MODEL 5
REMARK VINA RESULT:      -6.6      4.983      8.168
REMARK  2 active torsions:
REMARK  status: ('A' for Active; 'I' for Inactive)
REMARK    1  A    between atoms: C5_5  and  N6_21 
REMARK    2  A    between atoms: C18_14  and  N17_19 
ROOT
HETATM    1  O1  MIQ B 502      -4.892 -10.613  20.108  1.00142.91    -0.171 OA
HETATM    2  C2  MIQ B 502      -4.671  -9.264  20.393  1.00141.17     0.195 A 
HETATM    3  C3  MIQ B 502      -5.225  -8.048  19.584  1.00141.71     0.035 A 
HETATM    4  C4  MIQ B 502      -6.080  -7.931  18.378  1.00142.86     0.046 A 
HETATM    5  C5  MIQ B 502      -6.425  -6.654  17.866  1.00139.53     0.031 A 
HETATM    6  C12 MIQ B 502      -5.937  -5.454  18.529  1.00139.38     0.030 A 
HETATM    7  C13 MIQ B 502      -5.119  -5.566  19.685  1.00141.18     0.019 A 
HETATM    8  C14 MIQ B 502      -4.762  -6.908  20.220  1.00138.77     0.033 A 
HETATM    9  C15 MIQ B 502      -3.915  -7.419  21.431  1.00142.10     0.195 A 
HETATM   10  N17 MIQ B 502      -3.969  -8.740  21.383  1.00139.42    -0.288 N 
HETATM   11  O16 MIQ B 502      -3.239  -6.635  22.368  1.00148.93    -0.171 OA
ENDROOT
BRANCH  10  12
HETATM   12  C18 MIQ B 502      -3.276  -9.562  22.357  1.00139.82     0.187 C 
HETATM   13  C19 MIQ B 502      -2.423 -10.579  21.588  1.00140.06     0.247 C 
HETATM   14  O25 MIQ B 502      -1.699 -10.198  20.738  1.00143.95    -0.271 OA
HETATM   15  N20 MIQ B 502      -2.477 -11.997  21.880  1.00140.02    -0.296 N 
HETATM   16  H13 MIQ B 502      -1.920 -12.651  21.366  1.00142.77     0.171 HD
HETATM   17  C21 MIQ B 502      -3.376 -12.439  22.915  1.00142.22     0.224 C 
HETATM   18  C22 MIQ B 502      -4.668 -11.661  23.072  1.00139.52     0.106 C 
HETATM   19  O24 MIQ B 502      -3.114 -13.358  23.609  1.00146.13    -0.273 OA
HETATM   20  C23 MIQ B 502      -4.275 -10.215  23.311  1.00139.15     0.045 C 
ENDBRANCH  10  12
BRANCH   5  21
HETATM   21  N6  MIQ B 502      -7.250  -6.555  16.676  1.00140.95    -0.377 N 
HETATM   22  C7  MIQ B 502      -8.316  -5.568  16.651  1.00142.12     0.149 C 
HETATM   23  C8  MIQ B 502      -9.446  -5.975  15.714  1.00144.10     0.187 C 
HETATM   24  O9  MIQ B 502      -8.990  -6.393  14.462  1.00148.65    -0.388 OA
HETATM   25  C10 MIQ B 502      -7.628  -6.614  14.243  1.00147.44     0.187 C 
HETATM   26  C11 MIQ B 502      -6.768  -7.082  15.412  1.00144.08     0.149 C 
ENDBRANCH   5  21
TORSDOF 2
ENDMDL
MODEL 6
REMARK VINA RESULT:      -6.4      2.076      8.041
REMARK  2 active torsions:
REMARK  status: ('A' for Active; 'I' for Inactive)
REMARK    1  A    between atoms: C5_5  and  N6_21 
REMARK    2  A    between atoms: C18_14  and  N17_19 
ROOT
HETATM    1  O1  MIQ B 502      -1.142  -6.197  24.726  1.00142.91    -0.171 OA
HETATM    2  C2  MIQ B 502      -2.186  -6.763  25.462  1.00141.17     0.195 A 
HETATM    3  C3  MIQ B 502      -3.030  -8.013  25.053  1.00141.71     0.035 A 
HETATM    4  C4  MIQ B 502      -3.007  -8.918  23.880  1.00142.86     0.046 A 
HETATM    5  C5  MIQ B 502      -3.923  -9.997  23.790  1.00139.53     0.031 A 
HETATM    6  C12 MIQ B 502      -4.890 -10.215  24.856  1.00139.38     0.030 A 
HETATM    7  C13 MIQ B 502      -4.911  -9.347  25.981  1.00141.18     0.019 A 
HETATM    8  C14 MIQ B 502      -3.946  -8.218  26.072  1.00138.77     0.033 A 
HETATM    9  C15 MIQ B 502      -3.669  -7.091  27.119  1.00142.10     0.195 A 
HETATM   10  N17 MIQ B 502      -2.667  -6.378  26.631  1.00139.42    -0.288 N 
HETATM   11  O16 MIQ B 502      -4.346  -6.882  28.321  1.00148.93    -0.171 OA
ENDROOT
BRANCH  10  12
HETATM   12  C18 MIQ B 502      -2.145  -5.223  27.338  1.00139.82     0.187 C 
HETATM   13  C19 MIQ B 502      -2.159  -4.035  26.368  1.00140.06     0.247 C 
HETATM   14  O25 MIQ B 502      -3.151  -3.781  25.782  1.00143.95    -0.271 OA
HETATM   15  N20 MIQ B 502      -0.988  -3.210  26.153  1.00140.02    -0.296 N 
HETATM   16  H13 MIQ B 502      -1.008  -2.441  25.513  1.00142.77     0.171 HD
HETATM   17  C21 MIQ B 502       0.215  -3.546  26.872  1.00142.22     0.224 C 
HETATM   18  C22 MIQ B 502       0.459  -5.019  27.140  1.00139.52     0.106 C 
HETATM   19  O24 MIQ B 502       0.970  -2.713  27.237  1.00146.13    -0.273 OA
HETATM   20  C23 MIQ B 502      -0.755  -5.526  27.897  1.00139.15     0.045 C 
ENDBRANCH  10  12
BRANCH   5  21
HETATM   21  N6  MIQ B 502      -3.899 -10.867  22.628  1.00140.95    -0.377 N 
HETATM   22  C7  MIQ B 502      -3.778 -10.265  21.311  1.00142.12     0.149 C 
HETATM   23  C8  MIQ B 502      -4.393 -11.141  20.227  1.00144.10     0.187 C 
HETATM   24  O9  MIQ B 502      -3.991 -12.475  20.313  1.00148.65    -0.388 OA
HETATM   25  C10 MIQ B 502      -3.291 -12.933  21.432  1.00147.44     0.187 C 
HETATM   26  C11 MIQ B 502      -3.558 -12.271  22.780  1.00144.08     0.149 C 
ENDBRANCH   5  21
TORSDOF 2
ENDMDL
MODEL 7
REMARK VINA RESULT:      -6.4      2.153      3.291
REMARK  2 active torsions:
REMARK  status: ('A' for Active; 'I' for Inactive)
REMARK    1  A    between atoms: C5_5  and  N6_21 
REMARK    2  A    between atoms: C18_14  and  N17_19 
ROOT
HETATM    1  O1  MIQ B 502      -5.668 -10.779  25.201  1.00142.91    -0.171 OA
HETATM    2  C2  MIQ B 502      -4.648 -10.229  24.422  1.00141.17     0.195 A 
HETATM    3  C3  MIQ B 502      -3.789  -8.974  24.780  1.00141.71     0.035 A 
HETATM    4  C4  MIQ B 502      -3.767  -8.052  25.940  1.00142.86     0.046 A 
HETATM    5  C5  MIQ B 502      -2.845  -6.975  25.982  1.00139.53     0.031 A 
HETATM    6  C12 MIQ B 502      -1.916  -6.776  24.879  1.00139.38     0.030 A 
HETATM    7  C13 MIQ B 502      -1.936  -7.661  23.767  1.00141.18     0.019 A 
HETATM    8  C14 MIQ B 502      -2.904  -8.791  23.730  1.00138.77     0.033 A 
HETATM    9  C15 MIQ B 502      -3.216  -9.939  22.715  1.00142.10     0.195 A 
HETATM   10  N17 MIQ B 502      -4.200 -10.642  23.249  1.00139.42    -0.288 N 
HETATM   11  O16 MIQ B 502      -2.582 -10.168  21.492  1.00148.93    -0.171 OA
ENDROOT
BRANCH  10  12
HETATM   12  C18 MIQ B 502      -4.767 -11.791  22.568  1.00139.82     0.187 C 
HETATM   13  C19 MIQ B 502      -3.629 -12.786  22.303  1.00140.06     0.247 C 
HETATM   14  O25 MIQ B 502      -2.925 -13.105  23.194  1.00143.95    -0.271 OA
HETATM   15  N20 MIQ B 502      -3.398 -13.350  20.989  1.00140.02    -0.296 N 
HETATM   16  H13 MIQ B 502      -2.648 -13.993  20.828  1.00142.77     0.171 HD
HETATM   17  C21 MIQ B 502      -4.265 -12.937  19.916  1.00142.22     0.224 C 
HETATM   18  C22 MIQ B 502      -4.777 -11.510  19.964  1.00139.52     0.106 C 
HETATM   19  O24 MIQ B 502      -4.566 -13.677  19.045  1.00146.13    -0.273 OA
HETATM   20  C23 MIQ B 502      -5.489 -11.352  21.295  1.00139.15     0.045 C 
ENDBRANCH  10  12
BRANCH   5  21
HETATM   21  N6  MIQ B 502      -2.844  -6.070  27.117  1.00140.95    -0.377 N 
HETATM   22  C7  MIQ B 502      -2.855  -6.635  28.455  1.00142.12     0.149 C 
HETATM   23  C8  MIQ B 502      -3.484  -5.687  29.468  1.00144.10     0.187 C 
HETATM   24  O9  MIQ B 502      -2.990  -4.385  29.373  1.00148.65    -0.388 OA
HETATM   25  C10 MIQ B 502      -2.186  -4.010  28.294  1.00147.44     0.187 C 
HETATM   26  C11 MIQ B 502      -2.401  -4.697  26.950  1.00144.08     0.149 C 
ENDBRANCH   5  21
TORSDOF 2
ENDMDL
MODEL 8
REMARK VINA RESULT:      -6.1      1.772      2.887
REMARK  2 active torsions:
REMARK  status: ('A' for Active; 'I' for Inactive)
REMARK    1  A    between atoms: C5_5  and  N6_21 
REMARK    2  A    between atoms: C18_14  and  N17_19 
ROOT
HETATM    1  O1  MIQ B 502      -5.337 -10.458  24.548  1.00142.91    -0.171 OA
HETATM    2  C2  MIQ B 502      -4.331  -9.695  23.950  1.00141.17     0.195 A 
HETATM    3  C3  MIQ B 502      -3.485  -8.580  24.642  1.00141.71     0.035 A 
HETATM    4  C4  MIQ B 502      -3.466  -8.020  26.015  1.00142.86     0.046 A 
HETATM    5  C5  MIQ B 502      -2.558  -6.984  26.353  1.00139.53     0.031 A 
HETATM    6  C12 MIQ B 502      -1.641  -6.470  25.347  1.00139.38     0.030 A 
HETATM    7  C13 MIQ B 502      -1.658  -7.007  24.031  1.00141.18     0.019 A 
HETATM    8  C14 MIQ B 502      -2.612  -8.096  23.682  1.00138.77     0.033 A 
HETATM    9  C15 MIQ B 502      -2.916  -8.916  22.387  1.00142.10     0.195 A 
HETATM   10  N17 MIQ B 502      -3.887  -9.756  22.706  1.00139.42    -0.288 N 
HETATM   11  O16 MIQ B 502      -2.290  -8.783  21.146  1.00148.93    -0.171 OA
ENDROOT
BRANCH  10  12
HETATM   12  C18 MIQ B 502      -4.444 -10.676  21.732  1.00139.82     0.187 C 
HETATM   13  C19 MIQ B 502      -5.966 -10.489  21.729  1.00140.06     0.247 C 
HETATM   14  O25 MIQ B 502      -6.413  -9.403  21.614  1.00143.95    -0.271 OA
HETATM   15  N20 MIQ B 502      -6.874 -11.611  21.856  1.00140.02    -0.296 N 
HETATM   16  H13 MIQ B 502      -7.865 -11.475  21.859  1.00142.77     0.171 HD
HETATM   17  C21 MIQ B 502      -6.305 -12.926  22.005  1.00142.22     0.224 C 
HETATM   18  C22 MIQ B 502      -4.995 -13.019  22.765  1.00139.52     0.106 C 
HETATM   19  O24 MIQ B 502      -6.831 -13.882  21.553  1.00146.13    -0.273 OA
HETATM   20  C23 MIQ B 502      -4.015 -12.108  22.047  1.00139.15     0.045 C 
ENDBRANCH  10  12
BRANCH   5  21
HETATM   21  N6  MIQ B 502      -2.560  -6.435  27.697  1.00140.95    -0.377 N 
HETATM   22  C7  MIQ B 502      -3.149  -7.220  28.767  1.00142.12     0.149 C 
HETATM   23  C8  MIQ B 502      -3.663  -6.341  29.901  1.00144.10     0.187 C 
HETATM   24  O9  MIQ B 502      -2.735  -5.380  30.307  1.00148.65    -0.388 OA
HETATM   25  C10 MIQ B 502      -1.579  -5.152  29.556  1.00147.44     0.187 C 
HETATM   26  C11 MIQ B 502      -1.632  -5.374  28.048  1.00144.08     0.149 C 
ENDBRANCH   5  21
TORSDOF 2
ENDMDL
MODEL 9
REMARK VINA RESULT:      -6.0      1.987      8.327
REMARK  2 active torsions:
REMARK  status: ('A' for Active; 'I' for Inactive)
REMARK    1  A    between atoms: C5_5  and  N6_21 
REMARK    2  A    between atoms: C18_14  and  N17_19 
ROOT
HETATM    1  O1  MIQ B 502      -5.390  -7.615  26.294  1.00142.91    -0.171 OA
HETATM    2  C2  MIQ B 502      -4.199  -7.599  25.565  1.00141.17     0.195 A 
HETATM    3  C3  MIQ B 502      -3.814  -8.575  24.408  1.00141.71     0.035 A 
HETATM    4  C4  MIQ B 502      -4.507  -9.716  23.764  1.00142.86     0.046 A 
HETATM    5  C5  MIQ B 502      -3.885 -10.428  22.707  1.00139.53     0.031 A 
HETATM    6  C12 MIQ B 502      -2.560 -10.033  22.251  1.00139.38     0.030 A 
HETATM    7  C13 MIQ B 502      -1.896  -8.939  22.867  1.00141.18     0.019 A 
HETATM    8  C14 MIQ B 502      -2.554  -8.194  23.975  1.00138.77     0.033 A 
HETATM    9  C15 MIQ B 502      -2.156  -6.974  24.869  1.00142.10     0.195 A 
HETATM   10  N17 MIQ B 502      -3.173  -6.775  25.690  1.00139.42    -0.288 N 
HETATM   11  O16 MIQ B 502      -0.965  -6.248  24.809  1.00148.93    -0.171 OA
ENDROOT
BRANCH  10  12
HETATM   12  C18 MIQ B 502      -3.148  -5.720  26.685  1.00139.82     0.187 C 
HETATM   13  C19 MIQ B 502      -2.834  -4.403  25.964  1.00140.06     0.247 C 
HETATM   14  O25 MIQ B 502      -3.469  -4.100  25.017  1.00143.95    -0.271 OA
HETATM   15  N20 MIQ B 502      -1.782  -3.516  26.416  1.00140.02    -0.296 N 
HETATM   16  H13 MIQ B 502      -1.583  -2.663  25.932  1.00142.77     0.171 HD
HETATM   17  C21 MIQ B 502      -1.014  -3.913  27.568  1.00142.22     0.224 C 
HETATM   18  C22 MIQ B 502      -0.776  -5.400  27.748  1.00139.52     0.106 C 
HETATM   19  O24 MIQ B 502      -0.595  -3.118  28.335  1.00146.13    -0.273 OA
HETATM   20  C23 MIQ B 502      -2.145  -6.054  27.789  1.00139.15     0.045 C 
ENDBRANCH  10  12
BRANCH   5  21
HETATM   21  N6  MIQ B 502      -4.569 -11.553  22.095  1.00140.95    -0.377 N 
HETATM   22  C7  MIQ B 502      -3.816 -12.428  21.213  1.00142.12     0.149 C 
HETATM   23  C8  MIQ B 502      -4.712 -13.109  20.187  1.00144.10     0.187 C 
HETATM   24  O9  MIQ B 502      -5.855 -13.675  20.755  1.00148.65    -0.388 OA
HETATM   25  C10 MIQ B 502      -6.195 -13.403  22.083  1.00147.44     0.187 C 
HETATM   26  C11 MIQ B 502      -5.804 -12.053  22.674  1.00144.08     0.149 C 
ENDBRANCH   5  21
TORSDOF 2
ENDMDL
