MODEL 1
REMARK VINA RESULT:      -7.1      0.000      0.000
REMARK  2 active torsions:
REMARK  status: ('A' for Active; 'I' for Inactive)
REMARK    1  A    between atoms: C5_5  and  N6_21 
REMARK    2  A    between atoms: C18_14  and  N17_19 
ROOT
HETATM    1  O1  MIQ B 502     -12.086  11.881  12.278  1.00142.91    -0.171 OA
HETATM    2  C2  MIQ B 502     -12.059  10.917  11.268  1.00141.17     0.195 A 
HETATM    3  C3  MIQ B 502     -11.546   9.448  11.407  1.00141.71     0.035 A 
HETATM    4  C4  MIQ B 502     -10.982   8.669  12.534  1.00142.86     0.046 A 
HETATM    5  C5  MIQ B 502     -10.598   7.316  12.349  1.00139.53     0.031 A 
HETATM    6  C12 MIQ B 502     -10.761   6.691  11.045  1.00139.38     0.030 A 
HETATM    7  C13 MIQ B 502     -11.304   7.438   9.964  1.00141.18     0.019 A 
HETATM    8  C14 MIQ B 502     -11.706   8.856  10.165  1.00138.77     0.033 A 
HETATM    9  C15 MIQ B 502     -12.323   9.964   9.249  1.00142.10     0.195 A 
HETATM   10  N17 MIQ B 502     -12.456  11.036  10.012  1.00139.42    -0.288 N 
HETATM   11  O16 MIQ B 502     -12.660   9.841   7.900  1.00148.93    -0.171 OA
ENDROOT
BRANCH  10  12
HETATM   12  C18 MIQ B 502     -12.989  12.279   9.486  1.00139.82     0.187 C 
HETATM   13  C19 MIQ B 502     -11.971  13.387   9.783  1.00140.06     0.247 C 
HETATM   14  O25 MIQ B 502     -10.843  13.229   9.479  1.00143.95    -0.271 OA
HETATM   15  N20 MIQ B 502     -12.359  14.629  10.421  1.00140.02    -0.296 N 
HETATM   16  H13 MIQ B 502     -11.683  15.342  10.615  1.00142.77     0.171 HD
HETATM   17  C21 MIQ B 502     -13.740  14.794  10.792  1.00142.22     0.224 C 
HETATM   18  C22 MIQ B 502     -14.484  13.545  11.224  1.00139.52     0.106 C 
HETATM   19  O24 MIQ B 502     -14.268  15.851  10.755  1.00146.13    -0.273 OA
HETATM   20  C23 MIQ B 502     -14.370  12.557  10.077  1.00139.15     0.045 C 
ENDBRANCH  10  12
BRANCH   5  21
HETATM   21  N6  MIQ B 502     -10.033   6.569  13.458  1.00140.95    -0.377 N 
HETATM   22  C7  MIQ B 502     -10.114   7.138  14.792  1.00142.12     0.149 C 
HETATM   23  C8  MIQ B 502      -8.992   6.638  15.693  1.00144.10     0.187 C 
HETATM   24  O9  MIQ B 502      -8.833   5.252  15.644  1.00148.65    -0.388 OA
HETATM   25  C10 MIQ B 502      -9.502   4.496  14.678  1.00147.44     0.187 C 
HETATM   26  C11 MIQ B 502      -9.805   5.140  13.329  1.00144.08     0.149 C 
ENDBRANCH   5  21
TORSDOF 2
ENDMDL
MODEL 2
REMARK VINA RESULT:      -6.7      2.245      8.017
REMARK  2 active torsions:
REMARK  status: ('A' for Active; 'I' for Inactive)
REMARK    1  A    between atoms: C5_5  and  N6_21 
REMARK    2  A    between atoms: C18_14  and  N17_19 
ROOT
HETATM    1  O1  MIQ B 502     -11.923   8.219  13.148  1.00142.91    -0.171 OA
HETATM    2  C2  MIQ B 502     -10.787   8.785  12.564  1.00141.17     0.195 A 
HETATM    3  C3  MIQ B 502     -10.763  10.004  11.588  1.00141.71     0.035 A 
HETATM    4  C4  MIQ B 502     -11.818  10.875  11.019  1.00142.86     0.046 A 
HETATM    5  C5  MIQ B 502     -11.477  11.931  10.137  1.00139.53     0.031 A 
HETATM    6  C12 MIQ B 502     -10.082  12.161   9.789  1.00139.38     0.030 A 
HETATM    7  C13 MIQ B 502      -9.070  11.327  10.336  1.00141.18     0.019 A 
HETATM    8  C14 MIQ B 502      -9.433  10.221  11.263  1.00138.77     0.033 A 
HETATM    9  C15 MIQ B 502      -8.628   9.130  12.043  1.00142.10     0.195 A 
HETATM   10  N17 MIQ B 502      -9.524   8.424  12.713  1.00139.42    -0.288 N 
HETATM   11  O16 MIQ B 502      -7.245   8.943  12.029  1.00148.93    -0.171 OA
ENDROOT
BRANCH  10  12
HETATM   12  C18 MIQ B 502      -9.135   7.302  13.546  1.00139.82     0.187 C 
HETATM   13  C19 MIQ B 502     -10.045   6.119  13.193  1.00140.06     0.247 C 
HETATM   14  O25 MIQ B 502     -10.170   5.806  12.063  1.00143.95    -0.271 OA
HETATM   15  N20 MIQ B 502     -10.753   5.370  14.211  1.00140.02    -0.296 N 
HETATM   16  H13 MIQ B 502     -11.349   4.604  13.967  1.00142.77     0.171 HD
HETATM   17  C21 MIQ B 502     -10.593   5.778  15.583  1.00142.22     0.224 C 
HETATM   18  C22 MIQ B 502     -10.407   7.262  15.835  1.00139.52     0.106 C 
HETATM   19  O24 MIQ B 502     -10.601   4.993  16.466  1.00146.13    -0.273 OA
HETATM   20  C23 MIQ B 502      -9.197   7.689  15.023  1.00139.15     0.045 C 
ENDBRANCH  10  12
BRANCH   5  21
HETATM   21  N6  MIQ B 502     -12.522  12.767   9.575  1.00140.95    -0.377 N 
HETATM   22  C7  MIQ B 502     -13.901  12.496   9.943  1.00142.12     0.149 C 
HETATM   23  C8  MIQ B 502     -14.878  12.953   8.867  1.00144.10     0.187 C 
HETATM   24  O9  MIQ B 502     -14.624  14.250   8.417  1.00148.65    -0.388 OA
HETATM   25  C10 MIQ B 502     -13.448  14.909   8.784  1.00147.44     0.187 C 
HETATM   26  C11 MIQ B 502     -12.195  14.077   9.040  1.00144.08     0.149 C 
ENDBRANCH   5  21
TORSDOF 2
ENDMDL
MODEL 3
REMARK VINA RESULT:      -6.7      3.022      4.883
REMARK  2 active torsions:
REMARK  status: ('A' for Active; 'I' for Inactive)
REMARK    1  A    between atoms: C5_5  and  N6_21 
REMARK    2  A    between atoms: C18_14  and  N17_19 
ROOT
HETATM    1  O1  MIQ B 502     -10.557   9.808  13.374  1.00142.91    -0.171 OA
HETATM    2  C2  MIQ B 502     -10.475   8.417  13.272  1.00141.17     0.195 A 
HETATM    3  C3  MIQ B 502     -10.453   7.405  14.462  1.00141.71     0.035 A 
HETATM    4  C4  MIQ B 502     -10.509   7.562  15.935  1.00142.86     0.046 A 
HETATM    5  C5  MIQ B 502     -10.470   6.424  16.779  1.00139.53     0.031 A 
HETATM    6  C12 MIQ B 502     -10.375   5.094  16.194  1.00139.38     0.030 A 
HETATM    7  C13 MIQ B 502     -10.323   4.943  14.782  1.00141.18     0.019 A 
HETATM    8  C14 MIQ B 502     -10.366   6.141  13.901  1.00138.77     0.033 A 
HETATM    9  C15 MIQ B 502     -10.335   6.370  12.355  1.00142.10     0.195 A 
HETATM   10  N17 MIQ B 502     -10.406   7.679  12.178  1.00139.42    -0.288 N 
HETATM   11  O16 MIQ B 502     -10.248   5.388  11.366  1.00148.93    -0.171 OA
ENDROOT
BRANCH  10  12
HETATM   12  C18 MIQ B 502     -10.386   8.266  10.851  1.00139.82     0.187 C 
HETATM   13  C19 MIQ B 502      -9.323   9.372  10.845  1.00140.06     0.247 C 
HETATM   14  O25 MIQ B 502      -8.237   9.130  11.235  1.00143.95    -0.271 OA
HETATM   15  N20 MIQ B 502      -9.615  10.708  10.367  1.00140.02    -0.296 N 
HETATM   16  H13 MIQ B 502      -8.914  11.423  10.374  1.00142.77     0.171 HD
HETATM   17  C21 MIQ B 502     -10.951  10.983   9.904  1.00142.22     0.224 C 
HETATM   18  C22 MIQ B 502     -12.078  10.249  10.605  1.00139.52     0.106 C 
HETATM   19  O24 MIQ B 502     -11.156  11.739   9.019  1.00146.13    -0.273 OA
HETATM   20  C23 MIQ B 502     -11.778   8.767  10.470  1.00139.15     0.045 C 
ENDBRANCH  10  12
BRANCH   5  21
HETATM   21  N6  MIQ B 502     -10.510   6.593  18.220  1.00140.95    -0.377 N 
HETATM   22  C7  MIQ B 502     -10.212   7.903  18.774  1.00142.12     0.149 C 
HETATM   23  C8  MIQ B 502      -9.666   7.809  20.193  1.00144.10     0.187 C 
HETATM   24  O9  MIQ B 502     -10.425   6.972  21.013  1.00148.65    -0.388 OA
HETATM   25  C10 MIQ B 502     -11.422   6.160  20.467  1.00147.44     0.187 C 
HETATM   26  C11 MIQ B 502     -11.244   5.647  19.041  1.00144.08     0.149 C 
ENDBRANCH   5  21
TORSDOF 2
ENDMDL
MODEL 4
REMARK VINA RESULT:      -6.6      2.039      7.999
REMARK  2 active torsions:
REMARK  status: ('A' for Active; 'I' for Inactive)
REMARK    1  A    between atoms: C5_5  and  N6_21 
REMARK    2  A    between atoms: C18_14  and  N17_19 
ROOT
HETATM    1  O1  MIQ B 502     -11.252  11.162  14.470  1.00142.91    -0.171 OA
HETATM    2  C2  MIQ B 502     -11.273  10.272  13.393  1.00141.17     0.195 A 
HETATM    3  C3  MIQ B 502     -11.747  10.594  11.940  1.00141.71     0.035 A 
HETATM    4  C4  MIQ B 502     -12.273  11.816  11.287  1.00142.86     0.046 A 
HETATM    5  C5  MIQ B 502     -12.627  11.799   9.914  1.00139.53     0.031 A 
HETATM    6  C12 MIQ B 502     -12.471  10.575   9.143  1.00139.38     0.030 A 
HETATM    7  C13 MIQ B 502     -11.966   9.403   9.768  1.00141.18     0.019 A 
HETATM    8  C14 MIQ B 502     -11.594   9.427  11.209  1.00138.77     0.033 A 
HETATM    9  C15 MIQ B 502     -11.021   8.375  12.214  1.00142.10     0.195 A 
HETATM   10  N17 MIQ B 502     -10.901   9.004  13.372  1.00139.42    -0.288 N 
HETATM   11  O16 MIQ B 502     -10.705   7.044  11.940  1.00148.93    -0.171 OA
ENDROOT
BRANCH  10  12
HETATM   12  C18 MIQ B 502     -10.407   8.325  14.555  1.00139.82     0.187 C 
HETATM   13  C19 MIQ B 502      -9.039   7.724  14.213  1.00140.06     0.247 C 
HETATM   14  O25 MIQ B 502      -8.214   8.411  13.723  1.00143.95    -0.271 OA
HETATM   15  N20 MIQ B 502      -8.726   6.334  14.478  1.00140.02    -0.296 N 
HETATM   16  H13 MIQ B 502      -7.831   5.953  14.244  1.00142.77     0.171 HD
HETATM   17  C21 MIQ B 502      -9.752   5.513  15.067  1.00142.22     0.224 C 
HETATM   18  C22 MIQ B 502     -11.184   5.826  14.675  1.00139.52     0.106 C 
HETATM   19  O24 MIQ B 502      -9.490   4.642  15.821  1.00146.13    -0.273 OA
HETATM   20  C23 MIQ B 502     -11.419   7.283  15.031  1.00139.15     0.045 C 
ENDBRANCH  10  12
BRANCH   5  21
HETATM   21  N6  MIQ B 502     -13.154  13.000   9.291  1.00140.95    -0.377 N 
HETATM   22  C7  MIQ B 502     -14.568  13.298   9.445  1.00142.12     0.149 C 
HETATM   23  C8  MIQ B 502     -15.101  14.136   8.290  1.00144.10     0.187 C 
HETATM   24  O9  MIQ B 502     -14.288  15.232   7.993  1.00148.65    -0.388 OA
HETATM   25  C10 MIQ B 502     -13.022  15.352   8.571  1.00147.44     0.187 C 
HETATM   26  C11 MIQ B 502     -12.257  14.080   8.920  1.00144.08     0.149 C 
ENDBRANCH   5  21
TORSDOF 2
ENDMDL
MODEL 5
REMARK VINA RESULT:      -6.6      1.916      8.196
REMARK  2 active torsions:
REMARK  status: ('A' for Active; 'I' for Inactive)
REMARK    1  A    between atoms: C5_5  and  N6_21 
REMARK    2  A    between atoms: C18_14  and  N17_19 
ROOT
HETATM    1  O1  MIQ B 502     -11.644   9.361  15.129  1.00142.91    -0.171 OA
HETATM    2  C2  MIQ B 502     -11.304   8.615  13.999  1.00141.17     0.195 A 
HETATM    3  C3  MIQ B 502     -11.450   9.072  12.512  1.00141.71     0.035 A 
HETATM    4  C4  MIQ B 502     -11.942  10.315  11.872  1.00142.86     0.046 A 
HETATM    5  C5  MIQ B 502     -11.952  10.439  10.460  1.00139.53     0.031 A 
HETATM    6  C12 MIQ B 502     -11.475   9.338   9.635  1.00139.38     0.030 A 
HETATM    7  C13 MIQ B 502     -11.003   8.147  10.248  1.00141.18     0.019 A 
HETATM    8  C14 MIQ B 502     -10.992   8.023  11.731  1.00138.77     0.033 A 
HETATM    9  C15 MIQ B 502     -10.559   6.909  12.739  1.00142.10     0.195 A 
HETATM   10  N17 MIQ B 502     -10.793   7.396  13.946  1.00139.42    -0.288 N 
HETATM   11  O16 MIQ B 502     -10.034   5.654  12.422  1.00148.93    -0.171 OA
ENDROOT
BRANCH  10  12
HETATM   12  C18 MIQ B 502     -10.522   6.620  15.142  1.00139.82     0.187 C 
HETATM   13  C19 MIQ B 502      -9.010   6.378  15.209  1.00140.06     0.247 C 
HETATM   14  O25 MIQ B 502      -8.274   7.295  15.103  1.00143.95    -0.271 OA
HETATM   15  N20 MIQ B 502      -8.456   5.054  15.406  1.00140.02    -0.296 N 
HETATM   16  H13 MIQ B 502      -7.466   4.909  15.442  1.00142.77     0.171 HD
HETATM   17  C21 MIQ B 502      -9.373   3.950  15.523  1.00142.22     0.224 C 
HETATM   18  C22 MIQ B 502     -10.654   4.040  14.715  1.00139.52     0.106 C 
HETATM   19  O24 MIQ B 502      -9.140   3.024  16.219  1.00146.13    -0.273 OA
HETATM   20  C23 MIQ B 502     -11.338   5.329  15.134  1.00139.15     0.045 C 
ENDBRANCH  10  12
BRANCH   5  21
HETATM   21  N6  MIQ B 502     -12.450  11.657   9.847  1.00140.95    -0.377 N 
HETATM   22  C7  MIQ B 502     -13.804  12.084  10.151  1.00142.12     0.149 C 
HETATM   23  C8  MIQ B 502     -14.403  12.922   9.028  1.00144.10     0.187 C 
HETATM   24  O9  MIQ B 502     -13.544  13.930   8.585  1.00148.65    -0.388 OA
HETATM   25  C10 MIQ B 502     -12.212  13.959   9.005  1.00147.44     0.187 C 
HETATM   26  C11 MIQ B 502     -11.517  12.639   9.322  1.00144.08     0.149 C 
ENDBRANCH   5  21
TORSDOF 2
ENDMDL
MODEL 6
REMARK VINA RESULT:      -6.6      1.848      2.270
REMARK  2 active torsions:
REMARK  status: ('A' for Active; 'I' for Inactive)
REMARK    1  A    between atoms: C5_5  and  N6_21 
REMARK    2  A    between atoms: C18_14  and  N17_19 
ROOT
HETATM    1  O1  MIQ B 502     -11.704  11.584  12.132  1.00142.91    -0.171 OA
HETATM    2  C2  MIQ B 502     -11.460  10.308  11.618  1.00141.17     0.195 A 
HETATM    3  C3  MIQ B 502     -11.165   9.020  12.450  1.00141.71     0.035 A 
HETATM    4  C4  MIQ B 502     -11.060   8.747  13.903  1.00142.86     0.046 A 
HETATM    5  C5  MIQ B 502     -10.775   7.438  14.368  1.00139.53     0.031 A 
HETATM    6  C12 MIQ B 502     -10.586   6.357  13.411  1.00139.38     0.030 A 
HETATM    7  C13 MIQ B 502     -10.688   6.618  12.018  1.00141.18     0.019 A 
HETATM    8  C14 MIQ B 502     -10.990   7.994  11.536  1.00138.77     0.033 A 
HETATM    9  C15 MIQ B 502     -11.177   8.649  10.129  1.00142.10     0.195 A 
HETATM   10  N17 MIQ B 502     -11.433   9.927  10.353  1.00139.42    -0.288 N 
HETATM   11  O16 MIQ B 502     -11.089   8.010   8.891  1.00148.93    -0.171 OA
ENDROOT
BRANCH  10  12
HETATM   12  C18 MIQ B 502     -11.650  10.858   9.261  1.00139.82     0.187 C 
HETATM   13  C19 MIQ B 502     -10.745  12.074   9.497  1.00140.06     0.247 C 
HETATM   14  O25 MIQ B 502      -9.597  11.905   9.710  1.00143.95    -0.271 OA
HETATM   15  N20 MIQ B 502     -11.259  13.428   9.459  1.00140.02    -0.296 N 
HETATM   16  H13 MIQ B 502     -10.660  14.212   9.621  1.00142.77     0.171 HD
HETATM   17  C21 MIQ B 502     -12.666  13.608   9.207  1.00142.22     0.224 C 
HETATM   18  C22 MIQ B 502     -13.597  12.540   9.748  1.00139.52     0.106 C 
HETATM   19  O24 MIQ B 502     -13.071  14.540   8.604  1.00146.13    -0.273 OA
HETATM   20  C23 MIQ B 502     -13.130  11.222   9.158  1.00139.15     0.045 C 
ENDBRANCH  10  12
BRANCH   5  21
HETATM   21  N6  MIQ B 502     -10.660   7.188  15.793  1.00140.95    -0.377 N 
HETATM   22  C7  MIQ B 502     -11.326   8.094  16.713  1.00142.12     0.149 C 
HETATM   23  C8  MIQ B 502     -10.638   8.131  18.072  1.00144.10     0.187 C 
HETATM   24  O9  MIQ B 502     -10.367   6.859  18.579  1.00148.65    -0.388 OA
HETATM   25  C10 MIQ B 502     -10.520   5.728  17.772  1.00147.44     0.187 C 
HETATM   26  C11 MIQ B 502     -10.291   5.867  16.270  1.00144.08     0.149 C 
ENDBRANCH   5  21
TORSDOF 2
ENDMDL
MODEL 7
REMARK VINA RESULT:      -6.3      1.458      1.957
REMARK  2 active torsions:
REMARK  status: ('A' for Active; 'I' for Inactive)
REMARK    1  A    between atoms: C5_5  and  N6_21 
REMARK    2  A    between atoms: C18_14  and  N17_19 
ROOT
HETATM    1  O1  MIQ B 502     -11.845  11.899  13.941  1.00142.91    -0.171 OA
HETATM    2  C2  MIQ B 502     -11.782  11.152  12.763  1.00141.17     0.195 A 
HETATM    3  C3  MIQ B 502     -11.380   9.647  12.645  1.00141.71     0.035 A 
HETATM    4  C4  MIQ B 502     -10.977   8.620  13.635  1.00142.86     0.046 A 
HETATM    5  C5  MIQ B 502     -10.665   7.303  13.214  1.00139.53     0.031 A 
HETATM    6  C12 MIQ B 502     -10.741   6.958  11.801  1.00139.38     0.030 A 
HETATM    7  C13 MIQ B 502     -11.128   7.943  10.853  1.00141.18     0.019 A 
HETATM    8  C14 MIQ B 502     -11.457   9.323  11.301  1.00138.77     0.033 A 
HETATM    9  C15 MIQ B 502     -11.911  10.634  10.579  1.00142.10     0.195 A 
HETATM   10  N17 MIQ B 502     -12.048  11.545  11.529  1.00139.42    -0.288 N 
HETATM   11  O16 MIQ B 502     -12.124  10.804   9.210  1.00148.93    -0.171 OA
ENDROOT
BRANCH  10  12
HETATM   12  C18 MIQ B 502     -12.448  12.905  11.221  1.00139.82     0.187 C 
HETATM   13  C19 MIQ B 502     -13.684  12.836  10.316  1.00140.06     0.247 C 
HETATM   14  O25 MIQ B 502     -14.602  12.171  10.644  1.00143.95    -0.271 OA
HETATM   15  N20 MIQ B 502     -13.760  13.571   9.070  1.00140.02    -0.296 N 
HETATM   16  H13 MIQ B 502     -14.570  13.512   8.485  1.00142.77     0.171 HD
HETATM   17  C21 MIQ B 502     -12.624  14.368   8.686  1.00142.22     0.224 C 
HETATM   18  C22 MIQ B 502     -11.258  13.843   9.086  1.00139.52     0.106 C 
HETATM   19  O24 MIQ B 502     -12.752  15.382   8.094  1.00146.13    -0.273 OA
HETATM   20  C23 MIQ B 502     -11.286  13.673  10.594  1.00139.15     0.045 C 
ENDBRANCH  10  12
BRANCH   5  21
HETATM   21  N6  MIQ B 502     -10.257   6.311  14.192  1.00140.95    -0.377 N 
HETATM   22  C7  MIQ B 502     -10.578   6.541  15.590  1.00142.12     0.149 C 
HETATM   23  C8  MIQ B 502      -9.598   5.840  16.522  1.00144.10     0.187 C 
HETATM   24  O9  MIQ B 502      -9.376   4.506  16.173  1.00148.65    -0.388 OA
HETATM   25  C10 MIQ B 502      -9.847   4.005  14.956  1.00147.44     0.187 C 
HETATM   26  C11 MIQ B 502      -9.953   4.956  13.768  1.00144.08     0.149 C 
ENDBRANCH   5  21
TORSDOF 2
ENDMDL
MODEL 8
REMARK VINA RESULT:      -6.2      2.847      8.232
REMARK  2 active torsions:
REMARK  status: ('A' for Active; 'I' for Inactive)
REMARK    1  A    between atoms: C5_5  and  N6_21 
REMARK    2  A    between atoms: C18_14  and  N17_19 
ROOT
HETATM    1  O1  MIQ B 502      -7.605   9.206  12.008  1.00142.91    -0.171 OA
HETATM    2  C2  MIQ B 502      -8.925   9.431  12.405  1.00141.17     0.195 A 
HETATM    3  C3  MIQ B 502      -9.766  10.717  12.123  1.00141.71     0.035 A 
HETATM    4  C4  MIQ B 502      -9.478  11.988  11.417  1.00142.86     0.046 A 
HETATM    5  C5  MIQ B 502     -10.471  12.996  11.322  1.00139.53     0.031 A 
HETATM    6  C12 MIQ B 502     -11.780  12.780  11.922  1.00139.38     0.030 A 
HETATM    7  C13 MIQ B 502     -12.056  11.561  12.599  1.00141.18     0.019 A 
HETATM    8  C14 MIQ B 502     -11.011  10.505  12.693  1.00138.77     0.033 A 
HETATM    9  C15 MIQ B 502     -10.943   9.080  13.331  1.00142.10     0.195 A 
HETATM   10  N17 MIQ B 502      -9.726   8.625  13.080  1.00139.42    -0.288 N 
HETATM   11  O16 MIQ B 502     -11.961   8.426  14.026  1.00148.93    -0.171 OA
ENDROOT
BRANCH  10  12
HETATM   12  C18 MIQ B 502      -9.295   7.319  13.542  1.00139.82     0.187 C 
HETATM   13  C19 MIQ B 502     -10.305   6.284  13.030  1.00140.06     0.247 C 
HETATM   14  O25 MIQ B 502     -10.589   6.274  11.886  1.00143.95    -0.271 OA
HETATM   15  N20 MIQ B 502     -10.918   5.313  13.913  1.00140.02    -0.296 N 
HETATM   16  H13 MIQ B 502     -11.581   4.648  13.568  1.00142.77     0.171 HD
HETATM   17  C21 MIQ B 502     -10.564   5.352  15.309  1.00142.22     0.224 C 
HETATM   18  C22 MIQ B 502     -10.268   6.718  15.899  1.00139.52     0.106 C 
HETATM   19  O24 MIQ B 502     -10.503   4.367  15.959  1.00146.13    -0.273 OA
HETATM   20  C23 MIQ B 502      -9.150   7.315  15.063  1.00139.15     0.045 C 
ENDBRANCH  10  12
BRANCH   5  21
HETATM   21  N6  MIQ B 502     -10.171  14.242  10.640  1.00140.95    -0.377 N 
HETATM   22  C7  MIQ B 502     -11.094  15.354  10.787  1.00142.12     0.149 C 
HETATM   23  C8  MIQ B 502     -11.041  16.298   9.593  1.00144.10     0.187 C 
HETATM   24  O9  MIQ B 502      -9.738  16.648   9.234  1.00148.65    -0.388 OA
HETATM   25  C10 MIQ B 502      -8.646  15.983   9.798  1.00147.44     0.187 C 
HETATM   26  C11 MIQ B 502      -8.813  14.524  10.208  1.00144.08     0.149 C 
ENDBRANCH   5  21
TORSDOF 2
ENDMDL
MODEL 9
REMARK VINA RESULT:      -6.2      3.377      8.281
REMARK  2 active torsions:
REMARK  status: ('A' for Active; 'I' for Inactive)
REMARK    1  A    between atoms: C5_5  and  N6_21 
REMARK    2  A    between atoms: C18_14  and  N17_19 
ROOT
HETATM    1  O1  MIQ B 502     -11.963  10.388  16.333  1.00142.91    -0.171 OA
HETATM    2  C2  MIQ B 502     -11.430   9.116  16.111  1.00141.17     0.195 A 
HETATM    3  C3  MIQ B 502     -11.218   8.434  14.722  1.00141.71     0.035 A 
HETATM    4  C4  MIQ B 502     -11.479   8.861  13.327  1.00142.86     0.046 A 
HETATM    5  C5  MIQ B 502     -11.171   7.999  12.244  1.00139.53     0.031 A 
HETATM    6  C12 MIQ B 502     -10.595   6.688  12.505  1.00139.38     0.030 A 
HETATM    7  C13 MIQ B 502     -10.345   6.278  13.842  1.00141.18     0.019 A 
HETATM    8  C14 MIQ B 502     -10.667   7.188  14.975  1.00138.77     0.033 A 
HETATM    9  C15 MIQ B 502     -10.536   7.096  16.531  1.00142.10     0.195 A 
HETATM   10  N17 MIQ B 502     -10.998   8.242  17.004  1.00139.42    -0.288 N 
HETATM   11  O16 MIQ B 502     -10.035   6.020  17.265  1.00148.93    -0.171 OA
ENDROOT
BRANCH  10  12
HETATM   12  C18 MIQ B 502     -11.045   8.508  18.430  1.00139.82     0.187 C 
HETATM   13  C19 MIQ B 502      -9.632   8.306  18.990  1.00140.06     0.247 C 
HETATM   14  O25 MIQ B 502      -8.723   8.850  18.470  1.00143.95    -0.271 OA
HETATM   15  N20 MIQ B 502      -9.381   7.469  20.146  1.00140.02    -0.296 N 
HETATM   16  H13 MIQ B 502      -8.453   7.340  20.498  1.00142.77     0.171 HD
HETATM   17  C21 MIQ B 502     -10.505   6.808  20.756  1.00142.22     0.224 C 
HETATM   18  C22 MIQ B 502     -11.625   6.373  19.831  1.00139.52     0.106 C 
HETATM   19  O24 MIQ B 502     -10.553   6.619  21.922  1.00146.13    -0.273 OA
HETATM   20  C23 MIQ B 502     -12.091   7.620  19.102  1.00139.15     0.045 C 
ENDBRANCH  10  12
BRANCH   5  21
HETATM   21  N6  MIQ B 502     -11.445   8.425  10.883  1.00140.95    -0.377 N 
HETATM   22  C7  MIQ B 502     -11.627   9.842  10.622  1.00142.12     0.149 C 
HETATM   23  C8  MIQ B 502     -12.503  10.087   9.400  1.00144.10     0.187 C 
HETATM   24  O9  MIQ B 502     -12.123   9.321   8.297  1.00148.65    -0.388 OA
HETATM   25  C10 MIQ B 502     -11.188   8.293   8.437  1.00147.44     0.187 C 
HETATM   26  C11 MIQ B 502     -11.110   7.555   9.769  1.00144.08     0.149 C 
ENDBRANCH   5  21
TORSDOF 2
ENDMDL
