MODEL 1
REMARK VINA RESULT:      -7.4      0.000      0.000
REMARK  2 active torsions:
REMARK  status: ('A' for Active; 'I' for Inactive)
REMARK    1  A    between atoms: C5_5  and  N6_21 
REMARK    2  A    between atoms: C18_14  and  N17_19 
ROOT
HETATM    1  O1  MIQ B 502      13.366  -8.923  -6.879  1.00142.91    -0.171 OA
HETATM    2  C2  MIQ B 502      14.426  -8.487  -6.080  1.00141.17     0.195 A 
HETATM    3  C3  MIQ B 502      14.378  -8.241  -4.538  1.00141.71     0.035 A 
HETATM    4  C4  MIQ B 502      13.311  -8.376  -3.518  1.00142.86     0.046 A 
HETATM    5  C5  MIQ B 502      13.578  -8.072  -2.159  1.00139.53     0.031 A 
HETATM    6  C12 MIQ B 502      14.906  -7.626  -1.765  1.00139.38     0.030 A 
HETATM    7  C13 MIQ B 502      15.929  -7.498  -2.743  1.00141.18     0.019 A 
HETATM    8  C14 MIQ B 502      15.644  -7.820  -4.168  1.00138.77     0.033 A 
HETATM    9  C15 MIQ B 502      16.484  -7.805  -5.487  1.00142.10     0.195 A 
HETATM   10  N17 MIQ B 502      15.664  -8.201  -6.446  1.00139.42    -0.288 N 
HETATM   11  O16 MIQ B 502      17.825  -7.443  -5.620  1.00148.93    -0.171 OA
ENDROOT
BRANCH  10  12
HETATM   12  C18 MIQ B 502      16.101  -8.294  -7.827  1.00139.82     0.187 C 
HETATM   13  C19 MIQ B 502      15.179  -7.407  -8.671  1.00140.06     0.247 C 
HETATM   14  O25 MIQ B 502      14.995  -6.289  -8.341  1.00143.95    -0.271 OA
HETATM   15  N20 MIQ B 502      14.529  -7.901  -9.867  1.00140.02    -0.296 N 
HETATM   16  H13 MIQ B 502      13.923  -7.313 -10.406  1.00142.77     0.171 HD
HETATM   17  C21 MIQ B 502      14.760  -9.272 -10.243  1.00142.22     0.224 C 
HETATM   18  C22 MIQ B 502      14.953 -10.265  -9.113  1.00139.52     0.106 C 
HETATM   19  O24 MIQ B 502      14.802  -9.603 -11.377  1.00146.13    -0.273 OA
HETATM   20  C23 MIQ B 502      16.115  -9.752  -8.283  1.00139.15     0.045 C 
ENDBRANCH  10  12
BRANCH   5  21
HETATM   21  N6  MIQ B 502      12.520  -8.195  -1.172  1.00140.95    -0.377 N 
HETATM   22  C7  MIQ B 502      11.167  -7.828  -1.555  1.00142.12     0.149 C 
HETATM   23  C8  MIQ B 502      10.337  -7.387  -0.356  1.00144.10     0.187 C 
HETATM   24  O9  MIQ B 502      10.434  -8.266   0.725  1.00148.65    -0.388 OA
HETATM   25  C10 MIQ B 502      11.388  -9.287   0.724  1.00147.44     0.187 C 
HETATM   26  C11 MIQ B 502      12.701  -9.057  -0.017  1.00144.08     0.149 C 
ENDBRANCH   5  21
TORSDOF 2
ENDMDL
MODEL 2
REMARK VINA RESULT:      -6.7      1.286      2.552
REMARK  2 active torsions:
REMARK  status: ('A' for Active; 'I' for Inactive)
REMARK    1  A    between atoms: C5_5  and  N6_21 
REMARK    2  A    between atoms: C18_14  and  N17_19 
ROOT
HETATM    1  O1  MIQ B 502      16.328  -7.989  -5.021  1.00142.91    -0.171 OA
HETATM    2  C2  MIQ B 502      15.118  -8.403  -5.582  1.00141.17     0.195 A 
HETATM    3  C3  MIQ B 502      13.799  -8.712  -4.804  1.00141.71     0.035 A 
HETATM    4  C4  MIQ B 502      13.429  -8.671  -3.369  1.00142.86     0.046 A 
HETATM    5  C5  MIQ B 502      12.117  -9.015  -2.958  1.00139.53     0.031 A 
HETATM    6  C12 MIQ B 502      11.128  -9.410  -3.951  1.00139.38     0.030 A 
HETATM    7  C13 MIQ B 502      11.482  -9.448  -5.326  1.00141.18     0.019 A 
HETATM    8  C14 MIQ B 502      12.861  -9.084  -5.753  1.00138.77     0.033 A 
HETATM    9  C15 MIQ B 502      13.601  -9.004  -7.128  1.00142.10     0.195 A 
HETATM   10  N17 MIQ B 502      14.835  -8.612  -6.856  1.00139.42    -0.288 N 
HETATM   11  O16 MIQ B 502      13.065  -9.293  -8.384  1.00148.93    -0.171 OA
ENDROOT
BRANCH  10  12
HETATM   12  C18 MIQ B 502      15.824  -8.442  -7.904  1.00139.82     0.187 C 
HETATM   13  C19 MIQ B 502      15.295  -7.383  -8.880  1.00140.06     0.247 C 
HETATM   14  O25 MIQ B 502      14.919  -6.348  -8.457  1.00143.95    -0.271 OA
HETATM   15  N20 MIQ B 502      15.249  -7.616 -10.309  1.00140.02    -0.296 N 
HETATM   16  H13 MIQ B 502      14.895  -6.920 -10.934  1.00142.77     0.171 HD
HETATM   17  C21 MIQ B 502      15.704  -8.892 -10.799  1.00142.22     0.224 C 
HETATM   18  C22 MIQ B 502      15.459 -10.092  -9.905  1.00139.52     0.106 C 
HETATM   19  O24 MIQ B 502      16.245  -8.995 -11.844  1.00146.13    -0.273 OA
HETATM   20  C23 MIQ B 502      16.123  -9.782  -8.575  1.00139.15     0.045 C 
ENDBRANCH  10  12
BRANCH   5  21
HETATM   21  N6  MIQ B 502      11.772  -8.985  -1.548  1.00140.95    -0.377 N 
HETATM   22  C7  MIQ B 502      12.846  -9.011  -0.570  1.00142.12     0.149 C 
HETATM   23  C8  MIQ B 502      12.393  -9.609   0.756  1.00144.10     0.187 C 
HETATM   24  O9  MIQ B 502      11.186  -9.075   1.209  1.00148.65    -0.388 OA
HETATM   25  C10 MIQ B 502      10.414  -8.261   0.376  1.00147.44     0.187 C 
HETATM   26  C11 MIQ B 502      10.468  -8.500  -1.130  1.00144.08     0.149 C 
ENDBRANCH   5  21
TORSDOF 2
ENDMDL
MODEL 3
REMARK VINA RESULT:      -6.3      2.788      3.993
REMARK  2 active torsions:
REMARK  status: ('A' for Active; 'I' for Inactive)
REMARK    1  A    between atoms: C5_5  and  N6_21 
REMARK    2  A    between atoms: C18_14  and  N17_19 
ROOT
HETATM    1  O1  MIQ B 502      17.314 -10.832  -6.937  1.00142.91    -0.171 OA
HETATM    2  C2  MIQ B 502      16.563  -9.786  -7.477  1.00141.17     0.195 A 
HETATM    3  C3  MIQ B 502      15.483  -8.943  -6.728  1.00141.71     0.035 A 
HETATM    4  C4  MIQ B 502      14.951  -8.966  -5.345  1.00142.86     0.046 A 
HETATM    5  C5  MIQ B 502      13.945  -8.049  -4.948  1.00139.53     0.031 A 
HETATM    6  C12 MIQ B 502      13.432  -7.080  -5.906  1.00139.38     0.030 A 
HETATM    7  C13 MIQ B 502      13.942  -7.057  -7.233  1.00141.18     0.019 A 
HETATM    8  C14 MIQ B 502      15.000  -8.021  -7.642  1.00138.77     0.033 A 
HETATM    9  C15 MIQ B 502      15.787  -8.292  -8.966  1.00142.10     0.195 A 
HETATM   10  N17 MIQ B 502      16.609  -9.294  -8.704  1.00139.42    -0.288 N 
HETATM   11  O16 MIQ B 502      15.643  -7.613 -10.178  1.00148.93    -0.171 OA
ENDROOT
BRANCH  10  12
HETATM   12  C18 MIQ B 502      17.496  -9.832  -9.719  1.00139.82     0.187 C 
HETATM   13  C19 MIQ B 502      17.253 -11.345  -9.797  1.00140.06     0.247 C 
HETATM   14  O25 MIQ B 502      16.151 -11.746  -9.918  1.00143.95    -0.271 OA
HETATM   15  N20 MIQ B 502      18.343 -12.297  -9.732  1.00140.02    -0.296 N 
HETATM   16  H13 MIQ B 502      18.171 -13.282  -9.778  1.00142.77     0.171 HD
HETATM   17  C21 MIQ B 502      19.679 -11.783  -9.574  1.00142.22     0.224 C 
HETATM   18  C22 MIQ B 502      19.830 -10.519  -8.751  1.00139.52     0.106 C 
HETATM   19  O24 MIQ B 502      20.610 -12.320 -10.067  1.00146.13    -0.273 OA
HETATM   20  C23 MIQ B 502      18.946  -9.471  -9.403  1.00139.15     0.045 C 
ENDBRANCH  10  12
BRANCH   5  21
HETATM   21  N6  MIQ B 502      13.423  -8.092  -3.595  1.00140.95    -0.377 N 
HETATM   22  C7  MIQ B 502      12.278  -8.941  -3.318  1.00142.12     0.149 C 
HETATM   23  C8  MIQ B 502      11.467  -8.435  -2.133  1.00144.10     0.187 C 
HETATM   24  O9  MIQ B 502      12.259  -8.123  -1.026  1.00148.65    -0.388 OA
HETATM   25  C10 MIQ B 502      13.650  -8.078  -1.142  1.00147.44     0.187 C 
HETATM   26  C11 MIQ B 502      14.258  -7.675  -2.481  1.00144.08     0.149 C 
ENDBRANCH   5  21
TORSDOF 2
ENDMDL
MODEL 4
REMARK VINA RESULT:      -6.3      1.569      2.243
REMARK  2 active torsions:
REMARK  status: ('A' for Active; 'I' for Inactive)
REMARK    1  A    between atoms: C5_5  and  N6_21 
REMARK    2  A    between atoms: C18_14  and  N17_19 
ROOT
HETATM    1  O1  MIQ B 502      12.742  -8.928  -7.130  1.00142.91    -0.171 OA
HETATM    2  C2  MIQ B 502      13.850  -8.475  -6.410  1.00141.17     0.195 A 
HETATM    3  C3  MIQ B 502      13.927  -8.279  -4.863  1.00141.71     0.035 A 
HETATM    4  C4  MIQ B 502      12.959  -8.489  -3.759  1.00142.86     0.046 A 
HETATM    5  C5  MIQ B 502      13.331  -8.217  -2.419  1.00139.53     0.031 A 
HETATM    6  C12 MIQ B 502      14.671  -7.730  -2.125  1.00139.38     0.030 A 
HETATM    7  C13 MIQ B 502      15.599  -7.529  -3.182  1.00141.18     0.019 A 
HETATM    8  C14 MIQ B 502      15.204  -7.819  -4.588  1.00138.77     0.033 A 
HETATM    9  C15 MIQ B 502      15.924  -7.729  -5.973  1.00142.10     0.195 A 
HETATM   10  N17 MIQ B 502      15.039  -8.128  -6.871  1.00139.42    -0.288 N 
HETATM   11  O16 MIQ B 502      17.235  -7.309  -6.208  1.00148.93    -0.171 OA
ENDROOT
BRANCH  10  12
HETATM   12  C18 MIQ B 502      15.358  -8.160  -8.286  1.00139.82     0.187 C 
HETATM   13  C19 MIQ B 502      16.617  -9.019  -8.463  1.00140.06     0.247 C 
HETATM   14  O25 MIQ B 502      16.653 -10.094  -7.979  1.00143.95    -0.271 OA
HETATM   15  N20 MIQ B 502      17.763  -8.548  -9.213  1.00140.02    -0.296 N 
HETATM   16  H13 MIQ B 502      18.581  -9.116  -9.316  1.00142.77     0.171 HD
HETATM   17  C21 MIQ B 502      17.699  -7.228  -9.786  1.00142.22     0.224 C 
HETATM   18  C22 MIQ B 502      16.919  -6.186  -9.008  1.00139.52     0.106 C 
HETATM   19  O24 MIQ B 502      18.224  -6.975 -10.814  1.00146.13    -0.273 OA
HETATM   20  C23 MIQ B 502      15.518  -6.741  -8.828  1.00139.15     0.045 C 
ENDBRANCH  10  12
BRANCH   5  21
HETATM   21  N6  MIQ B 502      12.369  -8.413  -1.350  1.00140.95    -0.377 N 
HETATM   22  C7  MIQ B 502      12.833  -8.969  -0.090  1.00142.12     0.149 C 
HETATM   23  C8  MIQ B 502      11.722  -9.700   0.653  1.00144.10     0.187 C 
HETATM   24  O9  MIQ B 502      10.540  -8.960   0.727  1.00148.65    -0.388 OA
HETATM   25  C10 MIQ B 502      10.389  -7.790  -0.023  1.00147.44     0.187 C 
HETATM   26  C11 MIQ B 502      11.113  -7.683  -1.361  1.00144.08     0.149 C 
ENDBRANCH   5  21
TORSDOF 2
ENDMDL
MODEL 5
REMARK VINA RESULT:      -6.0      1.804      3.375
REMARK  2 active torsions:
REMARK  status: ('A' for Active; 'I' for Inactive)
REMARK    1  A    between atoms: C5_5  and  N6_21 
REMARK    2  A    between atoms: C18_14  and  N17_19 
ROOT
HETATM    1  O1  MIQ B 502      16.590  -7.969  -4.961  1.00142.91    -0.171 OA
HETATM    2  C2  MIQ B 502      15.399  -8.414  -5.540  1.00141.17     0.195 A 
HETATM    3  C3  MIQ B 502      14.052  -8.677  -4.793  1.00141.71     0.035 A 
HETATM    4  C4  MIQ B 502      13.632  -8.555  -3.377  1.00142.86     0.046 A 
HETATM    5  C5  MIQ B 502      12.304  -8.874  -2.994  1.00139.53     0.031 A 
HETATM    6  C12 MIQ B 502      11.351  -9.324  -3.998  1.00139.38     0.030 A 
HETATM    7  C13 MIQ B 502      11.754  -9.440  -5.356  1.00141.18     0.019 A 
HETATM    8  C14 MIQ B 502      13.148  -9.102  -5.753  1.00138.77     0.033 A 
HETATM    9  C15 MIQ B 502      13.937  -9.101  -7.103  1.00142.10     0.195 A 
HETATM   10  N17 MIQ B 502      15.161  -8.694  -6.810  1.00139.42    -0.288 N 
HETATM   11  O16 MIQ B 502      13.445  -9.460  -8.358  1.00148.93    -0.171 OA
ENDROOT
BRANCH  10  12
HETATM   12  C18 MIQ B 502      16.187  -8.584  -7.830  1.00139.82     0.187 C 
HETATM   13  C19 MIQ B 502      17.398  -9.402  -7.365  1.00140.06     0.247 C 
HETATM   14  O25 MIQ B 502      17.240 -10.518  -7.017  1.00143.95    -0.271 OA
HETATM   15  N20 MIQ B 502      18.735  -8.844  -7.346  1.00140.02    -0.296 N 
HETATM   16  H13 MIQ B 502      19.516  -9.387  -7.034  1.00142.77     0.171 HD
HETATM   17  C21 MIQ B 502      18.900  -7.476  -7.765  1.00142.22     0.224 C 
HETATM   18  C22 MIQ B 502      17.761  -6.526  -7.454  1.00139.52     0.106 C 
HETATM   19  O24 MIQ B 502      19.875  -7.117  -8.328  1.00146.13    -0.273 OA
HETATM   20  C23 MIQ B 502      16.519  -7.117  -8.095  1.00139.15     0.045 C 
ENDBRANCH  10  12
BRANCH   5  21
HETATM   21  N6  MIQ B 502      11.910  -8.764  -1.602  1.00140.95    -0.377 N 
HETATM   22  C7  MIQ B 502      10.493  -8.713  -1.283  1.00142.12     0.149 C 
HETATM   23  C8  MIQ B 502      10.231  -7.979   0.026  1.00144.10     0.187 C 
HETATM   24  O9  MIQ B 502      11.061  -8.404   1.064  1.00148.65    -0.388 OA
HETATM   25  C10 MIQ B 502      12.148  -9.243   0.803  1.00147.44     0.187 C 
HETATM   26  C11 MIQ B 502      12.841  -9.138  -0.552  1.00144.08     0.149 C 
ENDBRANCH   5  21
TORSDOF 2
ENDMDL
MODEL 6
REMARK VINA RESULT:      -6.0      3.173      8.518
REMARK  2 active torsions:
REMARK  status: ('A' for Active; 'I' for Inactive)
REMARK    1  A    between atoms: C5_5  and  N6_21 
REMARK    2  A    between atoms: C18_14  and  N17_19 
ROOT
HETATM    1  O1  MIQ B 502      15.599  -9.098  -5.648  1.00142.91    -0.171 OA
HETATM    2  C2  MIQ B 502      14.963  -9.205  -6.887  1.00141.17     0.195 A 
HETATM    3  C3  MIQ B 502      15.572  -9.824  -8.185  1.00141.71     0.035 A 
HETATM    4  C4  MIQ B 502      16.882 -10.441  -8.502  1.00142.86     0.046 A 
HETATM    5  C5  MIQ B 502      17.148 -10.927  -9.807  1.00139.53     0.031 A 
HETATM    6  C12 MIQ B 502      16.128 -10.820 -10.841  1.00139.38     0.030 A 
HETATM    7  C13 MIQ B 502      14.872 -10.229 -10.537  1.00141.18     0.019 A 
HETATM    8  C14 MIQ B 502      14.597  -9.723  -9.164  1.00138.77     0.033 A 
HETATM    9  C15 MIQ B 502      13.376  -9.037  -8.469  1.00142.10     0.195 A 
HETATM   10  N17 MIQ B 502      13.742  -8.820  -7.217  1.00139.42    -0.288 N 
HETATM   11  O16 MIQ B 502      12.151  -8.717  -9.058  1.00148.93    -0.171 OA
ENDROOT
BRANCH  10  12
HETATM   12  C18 MIQ B 502      12.853  -8.175  -6.269  1.00139.82     0.187 C 
HETATM   13  C19 MIQ B 502      13.645  -7.066  -5.565  1.00140.06     0.247 C 
HETATM   14  O25 MIQ B 502      14.239  -6.282  -6.215  1.00143.95    -0.271 OA
HETATM   15  N20 MIQ B 502      13.680  -6.951  -4.121  1.00140.02    -0.296 N 
HETATM   16  H13 MIQ B 502      14.206  -6.226  -3.674  1.00142.77     0.171 HD
HETATM   17  C21 MIQ B 502      12.955  -7.927  -3.349  1.00142.22     0.224 C 
HETATM   18  C22 MIQ B 502      12.884  -9.330  -3.918  1.00139.52     0.106 C 
HETATM   19  O24 MIQ B 502      12.437  -7.643  -2.325  1.00146.13    -0.273 OA
HETATM   20  C23 MIQ B 502      12.271  -9.204  -5.301  1.00139.15     0.045 C 
ENDBRANCH  10  12
BRANCH   5  21
HETATM   21  N6  MIQ B 502      18.440 -11.516 -10.108  1.00140.95    -0.377 N 
HETATM   22  C7  MIQ B 502      19.264 -10.898 -11.133  1.00142.12     0.149 C 
HETATM   23  C8  MIQ B 502      20.209 -11.900 -11.784  1.00144.10     0.187 C 
HETATM   24  O9  MIQ B 502      20.899 -12.679 -10.854  1.00148.65    -0.388 OA
HETATM   25  C10 MIQ B 502      20.539 -12.654  -9.504  1.00147.44     0.187 C 
HETATM   26  C11 MIQ B 502      19.081 -12.391  -9.142  1.00144.08     0.149 C 
ENDBRANCH   5  21
TORSDOF 2
ENDMDL
MODEL 7
REMARK VINA RESULT:      -5.9     20.662     23.185
REMARK  2 active torsions:
REMARK  status: ('A' for Active; 'I' for Inactive)
REMARK    1  A    between atoms: C5_5  and  N6_21 
REMARK    2  A    between atoms: C18_14  and  N17_19 
ROOT
HETATM    1  O1  MIQ B 502       5.806 -27.185  -0.704  1.00142.91    -0.171 OA
HETATM    2  C2  MIQ B 502       6.679 -27.625   0.294  1.00141.17     0.195 A 
HETATM    3  C3  MIQ B 502       7.266 -29.065   0.435  1.00141.71     0.035 A 
HETATM    4  C4  MIQ B 502       7.116 -30.309  -0.356  1.00142.86     0.046 A 
HETATM    5  C5  MIQ B 502       7.796 -31.492   0.030  1.00139.53     0.031 A 
HETATM    6  C12 MIQ B 502       8.648 -31.482   1.211  1.00139.38     0.030 A 
HETATM    7  C13 MIQ B 502       8.793 -30.289   1.970  1.00141.18     0.019 A 
HETATM    8  C14 MIQ B 502       8.078 -29.050   1.557  1.00138.77     0.033 A 
HETATM    9  C15 MIQ B 502       7.995 -27.592   2.116  1.00142.10     0.195 A 
HETATM   10  N17 MIQ B 502       7.184 -26.935   1.302  1.00139.42    -0.288 N 
HETATM   11  O16 MIQ B 502       8.643 -27.091   3.246  1.00148.93    -0.171 OA
ENDROOT
BRANCH  10  12
HETATM   12  C18 MIQ B 502       6.857 -25.539   1.524  1.00139.82     0.187 C 
HETATM   13  C19 MIQ B 502       5.330 -25.425   1.609  1.00140.06     0.247 C 
HETATM   14  O25 MIQ B 502       4.739 -26.137   2.340  1.00143.95    -0.271 OA
HETATM   15  N20 MIQ B 502       4.591 -24.461   0.819  1.00140.02    -0.296 N 
HETATM   16  H13 MIQ B 502       3.594 -24.401   0.879  1.00142.77     0.171 HD
HETATM   17  C21 MIQ B 502       5.334 -23.609  -0.074  1.00142.22     0.224 C 
HETATM   18  C22 MIQ B 502       6.572 -24.208  -0.713  1.00139.52     0.106 C 
HETATM   19  O24 MIQ B 502       4.996 -22.498  -0.291  1.00146.13    -0.273 OA
HETATM   20  C23 MIQ B 502       7.465 -24.669   0.425  1.00139.15     0.045 C 
ENDBRANCH  10  12
BRANCH   5  21
HETATM   21  N6  MIQ B 502       7.627 -32.707  -0.745  1.00140.95    -0.377 N 
HETATM   22  C7  MIQ B 502       7.189 -32.595  -2.126  1.00142.12     0.149 C 
HETATM   23  C8  MIQ B 502       6.457 -33.846  -2.593  1.00144.10     0.187 C 
HETATM   24  O9  MIQ B 502       7.136 -35.023  -2.277  1.00148.65    -0.388 OA
HETATM   25  C10 MIQ B 502       8.239 -34.996  -1.419  1.00147.44     0.187 C 
HETATM   26  C11 MIQ B 502       8.287 -33.932  -0.328  1.00144.08     0.149 C 
ENDBRANCH   5  21
TORSDOF 2
ENDMDL
MODEL 8
REMARK VINA RESULT:      -5.9     18.251     21.438
REMARK  2 active torsions:
REMARK  status: ('A' for Active; 'I' for Inactive)
REMARK    1  A    between atoms: C5_5  and  N6_21 
REMARK    2  A    between atoms: C18_14  and  N17_19 
ROOT
HETATM    1  O1  MIQ B 502       1.658 -21.983   5.700  1.00142.91    -0.171 OA
HETATM    2  C2  MIQ B 502       3.019 -21.737   5.892  1.00141.17     0.195 A 
HETATM    3  C3  MIQ B 502       4.155 -21.971   4.847  1.00141.71     0.035 A 
HETATM    4  C4  MIQ B 502       4.170 -22.474   3.453  1.00142.86     0.046 A 
HETATM    5  C5  MIQ B 502       5.391 -22.576   2.740  1.00139.53     0.031 A 
HETATM    6  C12 MIQ B 502       6.637 -22.182   3.382  1.00139.38     0.030 A 
HETATM    7  C13 MIQ B 502       6.624 -21.699   4.718  1.00141.18     0.019 A 
HETATM    8  C14 MIQ B 502       5.338 -21.593   5.461  1.00138.77     0.033 A 
HETATM    9  C15 MIQ B 502       4.933 -21.120   6.895  1.00142.10     0.195 A 
HETATM   10  N17 MIQ B 502       3.620 -21.261   6.969  1.00139.42    -0.288 N 
HETATM   11  O16 MIQ B 502       5.789 -20.648   7.892  1.00148.93    -0.171 OA
ENDROOT
BRANCH  10  12
HETATM   12  C18 MIQ B 502       2.890 -20.929   8.179  1.00139.82     0.187 C 
HETATM   13  C19 MIQ B 502       2.016 -22.136   8.543  1.00140.06     0.247 C 
HETATM   14  O25 MIQ B 502       2.508 -23.206   8.605  1.00143.95    -0.271 OA
HETATM   15  N20 MIQ B 502       0.600 -21.998   8.818  1.00140.02    -0.296 N 
HETATM   16  H13 MIQ B 502       0.039 -22.794   9.049  1.00142.77     0.171 HD
HETATM   17  C21 MIQ B 502       0.020 -20.683   8.725  1.00142.22     0.224 C 
HETATM   18  C22 MIQ B 502       0.604 -19.753   7.680  1.00139.52     0.106 C 
HETATM   19  O24 MIQ B 502      -0.864 -20.346   9.434  1.00146.13    -0.273 OA
HETATM   20  C23 MIQ B 502       2.088 -19.644   7.980  1.00139.15     0.045 C 
ENDBRANCH  10  12
BRANCH   5  21
HETATM   21  N6  MIQ B 502       5.392 -23.084   1.381  1.00140.95    -0.377 N 
HETATM   22  C7  MIQ B 502       5.614 -24.504   1.170  1.00142.12     0.149 C 
HETATM   23  C8  MIQ B 502       6.218 -24.789  -0.199  1.00144.10     0.187 C 
HETATM   24  O9  MIQ B 502       5.554 -24.129  -1.234  1.00148.65    -0.388 OA
HETATM   25  C10 MIQ B 502       4.600 -23.147  -0.951  1.00147.44     0.187 C 
HETATM   26  C11 MIQ B 502       4.762 -22.319   0.319  1.00144.08     0.149 C 
ENDBRANCH   5  21
TORSDOF 2
ENDMDL
MODEL 9
REMARK VINA RESULT:      -5.7     18.420     21.318
REMARK  2 active torsions:
REMARK  status: ('A' for Active; 'I' for Inactive)
REMARK    1  A    between atoms: C5_5  and  N6_21 
REMARK    2  A    between atoms: C18_14  and  N17_19 
ROOT
HETATM    1  O1  MIQ B 502       5.784 -24.383   4.721  1.00142.91    -0.171 OA
HETATM    2  C2  MIQ B 502       5.679 -24.111   3.355  1.00141.17     0.195 A 
HETATM    3  C3  MIQ B 502       6.049 -25.083   2.190  1.00141.71     0.035 A 
HETATM    4  C4  MIQ B 502       6.573 -26.469   2.147  1.00142.86     0.046 A 
HETATM    5  C5  MIQ B 502       6.813 -27.106   0.903  1.00139.53     0.031 A 
HETATM    6  C12 MIQ B 502       6.543 -26.394  -0.338  1.00139.38     0.030 A 
HETATM    7  C13 MIQ B 502       6.039 -25.066  -0.296  1.00141.18     0.019 A 
HETATM    8  C14 MIQ B 502       5.786 -24.403   1.012  1.00138.77     0.033 A 
HETATM    9  C15 MIQ B 502       5.250 -23.001   1.449  1.00142.10     0.195 A 
HETATM   10  N17 MIQ B 502       5.252 -23.005   2.772  1.00139.42    -0.288 N 
HETATM   11  O16 MIQ B 502       4.854 -21.959   0.609  1.00148.93    -0.171 OA
ENDROOT
BRANCH  10  12
HETATM   12  C18 MIQ B 502       4.826 -21.845   3.533  1.00139.82     0.187 C 
HETATM   13  C19 MIQ B 502       5.953 -21.486   4.508  1.00140.06     0.247 C 
HETATM   14  O25 MIQ B 502       7.052 -21.363   4.097  1.00143.95    -0.271 OA
HETATM   15  N20 MIQ B 502       5.707 -21.286   5.921  1.00140.02    -0.296 N 
HETATM   16  H13 MIQ B 502       6.453 -21.058   6.548  1.00142.77     0.171 HD
HETATM   17  C21 MIQ B 502       4.359 -21.451   6.400  1.00142.22     0.224 C 
HETATM   18  C22 MIQ B 502       3.511 -22.497   5.702  1.00139.52     0.106 C 
HETATM   19  O24 MIQ B 502       3.935 -20.799   7.291  1.00146.13    -0.273 OA
HETATM   20  C23 MIQ B 502       3.495 -22.126   4.230  1.00139.15     0.045 C 
ENDBRANCH  10  12
BRANCH   5  21
HETATM   21  N6  MIQ B 502       7.341 -28.458   0.875  1.00140.95    -0.377 N 
HETATM   22  C7  MIQ B 502       7.511 -29.163   2.134  1.00142.12     0.149 C 
HETATM   23  C8  MIQ B 502       8.607 -30.218   2.052  1.00144.10     0.187 C 
HETATM   24  O9  MIQ B 502       8.495 -31.031   0.922  1.00148.65    -0.388 OA
HETATM   25  C10 MIQ B 502       7.596 -30.706  -0.097  1.00147.44     0.187 C 
HETATM   26  C11 MIQ B 502       7.279 -29.236  -0.349  1.00144.08     0.149 C 
ENDBRANCH   5  21
TORSDOF 2
ENDMDL
