MODEL 1
REMARK VINA RESULT:      -6.9      0.000      0.000
REMARK  2 active torsions:
REMARK  status: ('A' for Active; 'I' for Inactive)
REMARK    1  A    between atoms: C5_5  and  N6_21 
REMARK    2  A    between atoms: C18_14  and  N17_19 
ROOT
HETATM    1  O1  MIQ B 502      15.279  -4.643   3.114  1.00142.91    -0.171 OA
HETATM    2  C2  MIQ B 502      16.510  -4.405   3.729  1.00141.17     0.195 A 
HETATM    3  C3  MIQ B 502      17.426  -3.160   3.507  1.00141.71     0.035 A 
HETATM    4  C4  MIQ B 502      17.308  -1.945   2.665  1.00142.86     0.046 A 
HETATM    5  C5  MIQ B 502      18.330  -0.963   2.678  1.00139.53     0.031 A 
HETATM    6  C12 MIQ B 502      19.501  -1.149   3.523  1.00139.38     0.030 A 
HETATM    7  C13 MIQ B 502      19.614  -2.313   4.331  1.00141.18     0.019 A 
HETATM    8  C14 MIQ B 502      18.536  -3.339   4.315  1.00138.77     0.033 A 
HETATM    9  C15 MIQ B 502      18.308  -4.704   5.044  1.00142.10     0.195 A 
HETATM   10  N17 MIQ B 502      17.144  -5.159   4.610  1.00139.42    -0.288 N 
HETATM   11  O16 MIQ B 502      19.164  -5.314   5.962  1.00148.93    -0.171 OA
ENDROOT
BRANCH  10  12
HETATM   12  C18 MIQ B 502      16.610  -6.429   5.067  1.00139.82     0.187 C 
HETATM   13  C19 MIQ B 502      16.545  -7.370   3.858  1.00140.06     0.247 C 
HETATM   14  O25 MIQ B 502      17.504  -7.512   3.187  1.00143.95    -0.271 OA
HETATM   15  N20 MIQ B 502      15.338  -8.097   3.520  1.00140.02    -0.296 N 
HETATM   16  H13 MIQ B 502      15.307  -8.704   2.725  1.00142.77     0.171 HD
HETATM   17  C21 MIQ B 502      14.177  -7.899   4.349  1.00142.22     0.224 C 
HETATM   18  C22 MIQ B 502      13.995  -6.518   4.948  1.00139.52     0.106 C 
HETATM   19  O24 MIQ B 502      13.409  -8.773   4.554  1.00146.13    -0.273 OA
HETATM   20  C23 MIQ B 502      15.255  -6.223   5.742  1.00139.15     0.045 C 
ENDBRANCH  10  12
BRANCH   5  21
HETATM   21  N6  MIQ B 502      18.209   0.214   1.837  1.00140.95    -0.377 N 
HETATM   22  C7  MIQ B 502      19.276   0.509   0.896  1.00142.12     0.149 C 
HETATM   23  C8  MIQ B 502      19.361   1.996   0.580  1.00144.10     0.187 C 
HETATM   24  O9  MIQ B 502      18.121   2.558   0.271  1.00148.65    -0.388 OA
HETATM   25  C10 MIQ B 502      16.944   1.834   0.480  1.00147.44     0.187 C 
HETATM   26  C11 MIQ B 502      16.906   0.816   1.614  1.00144.08     0.149 C 
ENDBRANCH   5  21
TORSDOF 2
ENDMDL
MODEL 2
REMARK VINA RESULT:      -6.7      3.584      4.206
REMARK  2 active torsions:
REMARK  status: ('A' for Active; 'I' for Inactive)
REMARK    1  A    between atoms: C5_5  and  N6_21 
REMARK    2  A    between atoms: C18_14  and  N17_19 
ROOT
HETATM    1  O1  MIQ B 502      15.500  -2.563   3.650  1.00142.91    -0.171 OA
HETATM    2  C2  MIQ B 502      16.171  -3.205   4.693  1.00141.17     0.195 A 
HETATM    3  C3  MIQ B 502      17.160  -2.539   5.702  1.00141.71     0.035 A 
HETATM    4  C4  MIQ B 502      17.661  -1.154   5.874  1.00142.86     0.046 A 
HETATM    5  C5  MIQ B 502      18.577  -0.848   6.912  1.00139.53     0.031 A 
HETATM    6  C12 MIQ B 502      19.027  -1.899   7.812  1.00139.38     0.030 A 
HETATM    7  C13 MIQ B 502      18.546  -3.226   7.648  1.00141.18     0.019 A 
HETATM    8  C14 MIQ B 502      17.582  -3.542   6.558  1.00138.77     0.033 A 
HETATM    9  C15 MIQ B 502      16.851  -4.838   6.079  1.00142.10     0.195 A 
HETATM   10  N17 MIQ B 502      16.110  -4.478   5.044  1.00139.42    -0.288 N 
HETATM   11  O16 MIQ B 502      16.963  -6.114   6.634  1.00148.93    -0.171 OA
ENDROOT
BRANCH  10  12
HETATM   12  C18 MIQ B 502      15.295  -5.439   4.325  1.00139.82     0.187 C 
HETATM   13  C19 MIQ B 502      15.625  -5.309   2.833  1.00140.06     0.247 C 
HETATM   14  O25 MIQ B 502      16.752  -5.342   2.487  1.00143.95    -0.271 OA
HETATM   15  N20 MIQ B 502      14.589  -5.152   1.833  1.00140.02    -0.296 N 
HETATM   16  H13 MIQ B 502      14.817  -5.061   0.863  1.00142.77     0.171 HD
HETATM   17  C21 MIQ B 502      13.220  -5.104   2.281  1.00142.22     0.224 C 
HETATM   18  C22 MIQ B 502      12.968  -4.461   3.631  1.00139.52     0.106 C 
HETATM   19  O24 MIQ B 502      12.341  -5.550   1.629  1.00146.13    -0.273 OA
HETATM   20  C23 MIQ B 502      13.815  -5.219   4.636  1.00139.15     0.045 C 
ENDBRANCH  10  12
BRANCH   5  21
HETATM   21  N6  MIQ B 502      19.071   0.509   7.060  1.00140.95    -0.377 N 
HETATM   22  C7  MIQ B 502      18.179   1.517   7.605  1.00142.12     0.149 C 
HETATM   23  C8  MIQ B 502      18.541   2.917   7.125  1.00144.10     0.187 C 
HETATM   24  O9  MIQ B 502      19.903   3.197   7.245  1.00148.65    -0.388 OA
HETATM   25  C10 MIQ B 502      20.810   2.181   7.556  1.00147.44     0.187 C 
HETATM   26  C11 MIQ B 502      20.501   0.761   7.093  1.00144.08     0.149 C 
ENDBRANCH   5  21
TORSDOF 2
ENDMDL
MODEL 3
REMARK VINA RESULT:      -6.6      2.059      3.583
REMARK  2 active torsions:
REMARK  status: ('A' for Active; 'I' for Inactive)
REMARK    1  A    between atoms: C5_5  and  N6_21 
REMARK    2  A    between atoms: C18_14  and  N17_19 
ROOT
HETATM    1  O1  MIQ B 502      17.620  -3.363   5.353  1.00142.91    -0.171 OA
HETATM    2  C2  MIQ B 502      16.661  -3.533   4.351  1.00141.17     0.195 A 
HETATM    3  C3  MIQ B 502      16.462  -2.618   3.101  1.00141.71     0.035 A 
HETATM    4  C4  MIQ B 502      17.148  -1.399   2.611  1.00142.86     0.046 A 
HETATM    5  C5  MIQ B 502      16.730  -0.776   1.408  1.00139.53     0.031 A 
HETATM    6  C12 MIQ B 502      15.620  -1.338   0.651  1.00139.38     0.030 A 
HETATM    7  C13 MIQ B 502      14.963  -2.507   1.120  1.00141.18     0.019 A 
HETATM    8  C14 MIQ B 502      15.408  -3.158   2.383  1.00138.77     0.033 A 
HETATM    9  C15 MIQ B 502      14.951  -4.416   3.191  1.00142.10     0.195 A 
HETATM   10  N17 MIQ B 502      15.747  -4.481   4.246  1.00139.42    -0.288 N 
HETATM   11  O16 MIQ B 502      13.912  -5.288   2.862  1.00148.93    -0.171 OA
ENDROOT
BRANCH  10  12
HETATM   12  C18 MIQ B 502      15.602  -5.528   5.240  1.00139.82     0.187 C 
HETATM   13  C19 MIQ B 502      15.516  -4.857   6.616  1.00140.06     0.247 C 
HETATM   14  O25 MIQ B 502      14.743  -3.982   6.783  1.00143.95    -0.271 OA
HETATM   15  N20 MIQ B 502      16.354  -5.273   7.722  1.00140.02    -0.296 N 
HETATM   16  H13 MIQ B 502      16.293  -4.822   8.614  1.00142.77     0.171 HD
HETATM   17  C21 MIQ B 502      17.297  -6.337   7.491  1.00142.22     0.224 C 
HETATM   18  C22 MIQ B 502      17.908  -6.416   6.106  1.00139.52     0.106 C 
HETATM   19  O24 MIQ B 502      17.575  -7.111   8.340  1.00146.13    -0.273 OA
HETATM   20  C23 MIQ B 502      16.751  -6.529   5.130  1.00139.15     0.045 C 
ENDBRANCH  10  12
BRANCH   5  21
HETATM   21  N6  MIQ B 502      17.401   0.426   0.947  1.00140.95    -0.377 N 
HETATM   22  C7  MIQ B 502      16.663   1.677   0.945  1.00142.12     0.149 C 
HETATM   23  C8  MIQ B 502      17.194   2.649  -0.101  1.00144.10     0.187 C 
HETATM   24  O9  MIQ B 502      18.584   2.777  -0.067  1.00148.65    -0.388 OA
HETATM   25  C10 MIQ B 502      19.357   1.904   0.703  1.00147.44     0.187 C 
HETATM   26  C11 MIQ B 502      18.853   0.480   0.919  1.00144.08     0.149 C 
ENDBRANCH   5  21
TORSDOF 2
ENDMDL
MODEL 4
REMARK VINA RESULT:      -6.5     10.813     14.672
REMARK  2 active torsions:
REMARK  status: ('A' for Active; 'I' for Inactive)
REMARK    1  A    between atoms: C5_5  and  N6_21 
REMARK    2  A    between atoms: C18_14  and  N17_19 
ROOT
HETATM    1  O1  MIQ B 502      18.765   0.235  -7.175  1.00142.91    -0.171 OA
HETATM    2  C2  MIQ B 502      18.507   0.645  -8.484  1.00141.17     0.195 A 
HETATM    3  C3  MIQ B 502      19.414   0.383  -9.729  1.00141.71     0.035 A 
HETATM    4  C4  MIQ B 502      20.708  -0.315  -9.917  1.00142.86     0.046 A 
HETATM    5  C5  MIQ B 502      21.301  -0.391 -11.203  1.00139.53     0.031 A 
HETATM    6  C12 MIQ B 502      20.633   0.219 -12.344  1.00139.38     0.030 A 
HETATM    7  C13 MIQ B 502      19.392   0.888 -12.163  1.00141.18     0.019 A 
HETATM    8  C14 MIQ B 502      18.773   0.962 -10.812  1.00138.77     0.033 A 
HETATM    9  C15 MIQ B 502      17.460   1.587 -10.237  1.00142.10     0.195 A 
HETATM   10  N17 MIQ B 502      17.466   1.321  -8.941  1.00139.42    -0.288 N 
HETATM   11  O16 MIQ B 502      16.485   2.286 -10.950  1.00148.93    -0.171 OA
ENDROOT
BRANCH  10  12
HETATM   12  C18 MIQ B 502      16.394   1.768  -8.071  1.00139.82     0.187 C 
HETATM   13  C19 MIQ B 502      17.024   2.583  -6.934  1.00140.06     0.247 C 
HETATM   14  O25 MIQ B 502      17.770   3.457  -7.198  1.00143.95    -0.271 OA
HETATM   15  N20 MIQ B 502      16.722   2.313  -5.544  1.00140.02    -0.296 N 
HETATM   16  H13 MIQ B 502      17.144   2.849  -4.811  1.00142.77     0.171 HD
HETATM   17  C21 MIQ B 502      15.815   1.234  -5.247  1.00142.22     0.224 C 
HETATM   18  C22 MIQ B 502      15.849   0.040  -6.180  1.00139.52     0.106 C 
HETATM   19  O24 MIQ B 502      15.078   1.283  -4.324  1.00146.13    -0.273 OA
HETATM   20  C23 MIQ B 502      15.579   0.574  -7.575  1.00139.15     0.045 C 
ENDBRANCH  10  12
BRANCH   5  21
HETATM   21  N6  MIQ B 502      22.576  -1.065 -11.371  1.00140.95    -0.377 N 
HETATM   22  C7  MIQ B 502      22.577  -2.453 -11.799  1.00142.12     0.149 C 
HETATM   23  C8  MIQ B 502      23.822  -3.193 -11.327  1.00144.10     0.187 C 
HETATM   24  O9  MIQ B 502      25.001  -2.489 -11.581  1.00148.65    -0.388 OA
HETATM   25  C10 MIQ B 502      24.954  -1.159 -12.006  1.00147.44     0.187 C 
HETATM   26  C11 MIQ B 502      23.790  -0.287 -11.546  1.00144.08     0.149 C 
ENDBRANCH   5  21
TORSDOF 2
ENDMDL
MODEL 5
REMARK VINA RESULT:      -6.5      3.309      4.081
REMARK  2 active torsions:
REMARK  status: ('A' for Active; 'I' for Inactive)
REMARK    1  A    between atoms: C5_5  and  N6_21 
REMARK    2  A    between atoms: C18_14  and  N17_19 
ROOT
HETATM    1  O1  MIQ B 502      14.581  -3.009   4.685  1.00142.91    -0.171 OA
HETATM    2  C2  MIQ B 502      15.874  -3.240   4.208  1.00141.17     0.195 A 
HETATM    3  C3  MIQ B 502      17.156  -2.437   4.594  1.00141.71     0.035 A 
HETATM    4  C4  MIQ B 502      17.407  -1.290   5.498  1.00142.86     0.046 A 
HETATM    5  C5  MIQ B 502      18.716  -0.766   5.647  1.00139.53     0.031 A 
HETATM    6  C12 MIQ B 502      19.820  -1.361   4.906  1.00139.38     0.030 A 
HETATM    7  C13 MIQ B 502      19.580  -2.461   4.040  1.00141.18     0.019 A 
HETATM    8  C14 MIQ B 502      18.204  -3.008   3.890  1.00138.77     0.033 A 
HETATM    9  C15 MIQ B 502      17.568  -4.173   3.063  1.00142.10     0.195 A 
HETATM   10  N17 MIQ B 502      16.278  -4.166   3.355  1.00139.42    -0.288 N 
HETATM   11  O16 MIQ B 502      18.232  -5.039   2.193  1.00148.93    -0.171 OA
ENDROOT
BRANCH  10  12
HETATM   12  C18 MIQ B 502      15.360  -5.113   2.751  1.00139.82     0.187 C 
HETATM   13  C19 MIQ B 502      14.230  -4.313   2.091  1.00140.06     0.247 C 
HETATM   14  O25 MIQ B 502      14.502  -3.432   1.354  1.00143.95    -0.271 OA
HETATM   15  N20 MIQ B 502      12.835  -4.612   2.341  1.00140.02    -0.296 N 
HETATM   16  H13 MIQ B 502      12.107  -4.078   1.909  1.00142.77     0.171 HD
HETATM   17  C21 MIQ B 502      12.528  -5.685   3.252  1.00142.22     0.224 C 
HETATM   18  C22 MIQ B 502      13.488  -5.893   4.408  1.00139.52     0.106 C 
HETATM   19  O24 MIQ B 502      11.578  -6.371   3.100  1.00146.13    -0.273 OA
HETATM   20  C23 MIQ B 502      14.860  -6.109   3.796  1.00139.15     0.045 C 
ENDBRANCH  10  12
BRANCH   5  21
HETATM   21  N6  MIQ B 502      18.944   0.367   6.524  1.00140.95    -0.377 N 
HETATM   22  C7  MIQ B 502      20.313   0.731   6.847  1.00142.12     0.149 C 
HETATM   23  C8  MIQ B 502      20.411   1.441   8.191  1.00144.10     0.187 C 
HETATM   24  O9  MIQ B 502      19.471   2.464   8.335  1.00148.65    -0.388 OA
HETATM   25  C10 MIQ B 502      18.435   2.609   7.409  1.00147.44     0.187 C 
HETATM   26  C11 MIQ B 502      17.903   1.363   6.710  1.00144.08     0.149 C 
ENDBRANCH   5  21
TORSDOF 2
ENDMDL
MODEL 6
REMARK VINA RESULT:      -6.5     10.132     13.671
REMARK  2 active torsions:
REMARK  status: ('A' for Active; 'I' for Inactive)
REMARK    1  A    between atoms: C5_5  and  N6_21 
REMARK    2  A    between atoms: C18_14  and  N17_19 
ROOT
HETATM    1  O1  MIQ B 502      18.231  -0.321  -6.688  1.00142.91    -0.171 OA
HETATM    2  C2  MIQ B 502      17.759   0.419  -7.774  1.00141.17     0.195 A 
HETATM    3  C3  MIQ B 502      18.566   0.788  -9.059  1.00141.71     0.035 A 
HETATM    4  C4  MIQ B 502      19.950   0.506  -9.509  1.00142.86     0.046 A 
HETATM    5  C5  MIQ B 502      20.409   0.987 -10.762  1.00139.53     0.031 A 
HETATM    6  C12 MIQ B 502      19.514   1.762 -11.610  1.00139.38     0.030 A 
HETATM    7  C13 MIQ B 502      18.187   2.032 -11.179  1.00141.18     0.019 A 
HETATM    8  C14 MIQ B 502      17.710   1.522  -9.864  1.00138.77     0.033 A 
HETATM    9  C15 MIQ B 502      16.364   1.608  -9.074  1.00142.10     0.195 A 
HETATM   10  N17 MIQ B 502      16.559   0.947  -7.946  1.00139.42    -0.288 N 
HETATM   11  O16 MIQ B 502      15.196   2.256  -9.482  1.00148.93    -0.171 OA
ENDROOT
BRANCH  10  12
HETATM   12  C18 MIQ B 502      15.514   0.830  -6.945  1.00139.82     0.187 C 
HETATM   13  C19 MIQ B 502      16.094   1.301  -5.606  1.00140.06     0.247 C 
HETATM   14  O25 MIQ B 502      16.642   2.344  -5.551  1.00143.95    -0.271 OA
HETATM   15  N20 MIQ B 502      15.983   0.503  -4.403  1.00140.02    -0.296 N 
HETATM   16  H13 MIQ B 502      16.371   0.818  -3.536  1.00142.77     0.171 HD
HETATM   17  C21 MIQ B 502      15.318  -0.772  -4.498  1.00142.22     0.224 C 
HETATM   18  C22 MIQ B 502      15.476  -1.526  -5.804  1.00139.52     0.106 C 
HETATM   19  O24 MIQ B 502      14.678  -1.203  -3.603  1.00146.13    -0.273 OA
HETATM   20  C23 MIQ B 502      14.979  -0.600  -6.899  1.00139.15     0.045 C 
ENDBRANCH  10  12
BRANCH   5  21
HETATM   21  N6  MIQ B 502      21.771   0.716 -11.183  1.00140.95    -0.377 N 
HETATM   22  C7  MIQ B 502      22.196  -0.668 -11.311  1.00142.12     0.149 C 
HETATM   23  C8  MIQ B 502      23.699  -0.821 -11.116  1.00144.10     0.187 C 
HETATM   24  O9  MIQ B 502      24.440   0.102 -11.856  1.00148.65    -0.388 OA
HETATM   25  C10 MIQ B 502      23.805   1.169 -12.497  1.00147.44     0.187 C 
HETATM   26  C11 MIQ B 502      22.533   1.739 -11.876  1.00144.08     0.149 C 
ENDBRANCH   5  21
TORSDOF 2
ENDMDL
MODEL 7
REMARK VINA RESULT:      -6.2     13.634     16.113
REMARK  2 active torsions:
REMARK  status: ('A' for Active; 'I' for Inactive)
REMARK    1  A    between atoms: C5_5  and  N6_21 
REMARK    2  A    between atoms: C18_14  and  N17_19 
ROOT
HETATM    1  O1  MIQ B 502      19.368   0.201  -7.674  1.00142.91    -0.171 OA
HETATM    2  C2  MIQ B 502      19.169   0.537  -9.015  1.00141.17     0.195 A 
HETATM    3  C3  MIQ B 502      19.898  -0.097 -10.243  1.00141.71     0.035 A 
HETATM    4  C4  MIQ B 502      20.929  -1.153 -10.382  1.00142.86     0.046 A 
HETATM    5  C5  MIQ B 502      21.408  -1.523 -11.664  1.00139.53     0.031 A 
HETATM    6  C12 MIQ B 502      20.882  -0.862 -12.850  1.00139.38     0.030 A 
HETATM    7  C13 MIQ B 502      19.892   0.150 -12.717  1.00141.18     0.019 A 
HETATM    8  C14 MIQ B 502      19.392   0.532 -11.368  1.00138.77     0.033 A 
HETATM    9  C15 MIQ B 502      18.343   1.562 -10.837  1.00142.10     0.195 A 
HETATM   10  N17 MIQ B 502      18.340   1.434  -9.520  1.00139.42    -0.288 N 
HETATM   11  O16 MIQ B 502      17.570   2.438 -11.601  1.00148.93    -0.171 OA
ENDROOT
BRANCH  10  12
HETATM   12  C18 MIQ B 502      17.486   2.254  -8.681  1.00139.82     0.187 C 
HETATM   13  C19 MIQ B 502      16.052   2.128  -9.208  1.00140.06     0.247 C 
HETATM   14  O25 MIQ B 502      15.596   1.055  -9.385  1.00143.95    -0.271 OA
HETATM   15  N20 MIQ B 502      15.237   3.292  -9.492  1.00140.02    -0.296 N 
HETATM   16  H13 MIQ B 502      14.304   3.196  -9.842  1.00142.77     0.171 HD
HETATM   17  C21 MIQ B 502      15.820   4.591  -9.278  1.00142.22     0.224 C 
HETATM   18  C22 MIQ B 502      17.308   4.722  -9.540  1.00139.52     0.106 C 
HETATM   19  O24 MIQ B 502      15.169   5.508  -8.912  1.00146.13    -0.273 OA
HETATM   20  C23 MIQ B 502      17.993   3.696  -8.655  1.00139.15     0.045 C 
ENDBRANCH  10  12
BRANCH   5  21
HETATM   21  N6  MIQ B 502      22.428  -2.548 -11.785  1.00140.95    -0.377 N 
HETATM   22  C7  MIQ B 502      22.814  -2.992 -13.113  1.00142.12     0.149 C 
HETATM   23  C8  MIQ B 502      23.348  -4.418 -13.104  1.00144.10     0.187 C 
HETATM   24  O9  MIQ B 502      24.297  -4.636 -12.103  1.00148.65    -0.388 OA
HETATM   25  C10 MIQ B 502      24.510  -3.678 -11.109  1.00147.44     0.187 C 
HETATM   26  C11 MIQ B 502      23.340  -2.797 -10.682  1.00144.08     0.149 C 
ENDBRANCH   5  21
TORSDOF 2
ENDMDL
MODEL 8
REMARK VINA RESULT:      -6.1     13.803     16.027
REMARK  2 active torsions:
REMARK  status: ('A' for Active; 'I' for Inactive)
REMARK    1  A    between atoms: C5_5  and  N6_21 
REMARK    2  A    between atoms: C18_14  and  N17_19 
ROOT
HETATM    1  O1  MIQ B 502      18.677   0.577 -13.086  1.00142.91    -0.171 OA
HETATM    2  C2  MIQ B 502      19.051   0.422 -11.750  1.00141.17     0.195 A 
HETATM    3  C3  MIQ B 502      20.230  -0.454 -11.218  1.00141.71     0.035 A 
HETATM    4  C4  MIQ B 502      21.238  -1.316 -11.879  1.00142.86     0.046 A 
HETATM    5  C5  MIQ B 502      22.210  -2.003 -11.109  1.00139.53     0.031 A 
HETATM    6  C12 MIQ B 502      22.218  -1.859  -9.660  1.00139.38     0.030 A 
HETATM    7  C13 MIQ B 502      21.252  -1.031  -9.026  1.00141.18     0.019 A 
HETATM    8  C14 MIQ B 502      20.235  -0.311  -9.840  1.00138.77     0.033 A 
HETATM    9  C15 MIQ B 502      19.054   0.660  -9.515  1.00142.10     0.195 A 
HETATM   10  N17 MIQ B 502      18.507   0.972 -10.678  1.00139.42    -0.288 N 
HETATM   11  O16 MIQ B 502      18.659   1.102  -8.251  1.00148.93    -0.171 OA
ENDROOT
BRANCH  10  12
HETATM   12  C18 MIQ B 502      17.358   1.854 -10.762  1.00139.82     0.187 C 
HETATM   13  C19 MIQ B 502      17.685   3.126  -9.970  1.00140.06     0.247 C 
HETATM   14  O25 MIQ B 502      18.694   3.696 -10.188  1.00143.95    -0.271 OA
HETATM   15  N20 MIQ B 502      16.785   3.652  -8.964  1.00140.02    -0.296 N 
HETATM   16  H13 MIQ B 502      17.014   4.479  -8.449  1.00142.77     0.171 HD
HETATM   17  C21 MIQ B 502      15.564   2.932  -8.709  1.00142.22     0.224 C 
HETATM   18  C22 MIQ B 502      15.620   1.424  -8.851  1.00139.52     0.106 C 
HETATM   19  O24 MIQ B 502      14.568   3.493  -8.409  1.00146.13    -0.273 OA
HETATM   20  C23 MIQ B 502      16.102   1.141 -10.262  1.00139.15     0.045 C 
ENDBRANCH  10  12
BRANCH   5  21
HETATM   21  N6  MIQ B 502      23.182  -2.856 -11.768  1.00140.95    -0.377 N 
HETATM   22  C7  MIQ B 502      24.248  -3.438 -10.972  1.00142.12     0.149 C 
HETATM   23  C8  MIQ B 502      25.487  -3.733 -11.809  1.00144.10     0.187 C 
HETATM   24  O9  MIQ B 502      25.192  -4.406 -12.997  1.00148.65    -0.388 OA
HETATM   25  C10 MIQ B 502      23.868  -4.550 -13.419  1.00147.44     0.187 C 
HETATM   26  C11 MIQ B 502      22.862  -3.466 -13.047  1.00144.08     0.149 C 
ENDBRANCH   5  21
TORSDOF 2
ENDMDL
MODEL 9
REMARK VINA RESULT:      -6.1     21.156     22.298
REMARK  2 active torsions:
REMARK  status: ('A' for Active; 'I' for Inactive)
REMARK    1  A    between atoms: C5_5  and  N6_21 
REMARK    2  A    between atoms: C18_14  and  N17_19 
ROOT
HETATM    1  O1  MIQ B 502       9.482  -4.943 -16.614  1.00142.91    -0.171 OA
HETATM    2  C2  MIQ B 502      10.440  -4.530 -17.543  1.00141.17     0.195 A 
HETATM    3  C3  MIQ B 502      10.791  -3.053 -17.911  1.00141.71     0.035 A 
HETATM    4  C4  MIQ B 502      10.283  -1.739 -17.449  1.00142.86     0.046 A 
HETATM    5  C5  MIQ B 502      10.814  -0.538 -17.983  1.00139.53     0.031 A 
HETATM    6  C12 MIQ B 502      11.863  -0.596 -18.991  1.00139.38     0.030 A 
HETATM    7  C13 MIQ B 502      12.351  -1.855 -19.433  1.00141.18     0.019 A 
HETATM    8  C14 MIQ B 502      11.792  -3.114 -18.867  1.00138.77     0.033 A 
HETATM    9  C15 MIQ B 502      12.064  -4.637 -19.093  1.00142.10     0.195 A 
HETATM   10  N17 MIQ B 502      11.238  -5.279 -18.284  1.00139.42    -0.288 N 
HETATM   11  O16 MIQ B 502      12.991  -5.198 -19.972  1.00148.93    -0.171 OA
ENDROOT
BRANCH  10  12
HETATM   12  C18 MIQ B 502      11.200  -6.729 -18.236  1.00139.82     0.187 C 
HETATM   13  C19 MIQ B 502       9.749  -7.167 -18.465  1.00140.06     0.247 C 
HETATM   14  O25 MIQ B 502       9.159  -6.742 -19.394  1.00143.95    -0.271 OA
HETATM   15  N20 MIQ B 502       9.081  -8.095 -17.575  1.00140.02    -0.296 N 
HETATM   16  H13 MIQ B 502       8.131  -8.368 -17.733  1.00142.77     0.171 HD
HETATM   17  C21 MIQ B 502       9.819  -8.592 -16.442  1.00142.22     0.224 C 
HETATM   18  C22 MIQ B 502      10.819  -7.642 -15.811  1.00139.52     0.106 C 
HETATM   19  O24 MIQ B 502       9.654  -9.687 -16.030  1.00146.13    -0.273 OA
HETATM   20  C23 MIQ B 502      11.778  -7.232 -16.914  1.00139.15     0.045 C 
ENDBRANCH  10  12
BRANCH   5  21
HETATM   21  N6  MIQ B 502      10.297   0.741 -17.532  1.00140.95    -0.377 N 
HETATM   22  C7  MIQ B 502       9.411   0.766 -16.381  1.00142.12     0.149 C 
HETATM   23  C8  MIQ B 502       8.473   1.966 -16.410  1.00144.10     0.187 C 
HETATM   24  O9  MIQ B 502       9.134   3.166 -16.680  1.00148.65    -0.388 OA
HETATM   25  C10 MIQ B 502      10.467   3.160 -17.100  1.00147.44     0.187 C 
HETATM   26  C11 MIQ B 502      10.972   1.971 -17.910  1.00144.08     0.149 C 
ENDBRANCH   5  21
TORSDOF 2
ENDMDL
