MODEL 1
REMARK VINA RESULT:      -6.9      0.000      0.000
REMARK  2 active torsions:
REMARK  status: ('A' for Active; 'I' for Inactive)
REMARK    1  A    between atoms: C5_5  and  N6_21 
REMARK    2  A    between atoms: C18_14  and  N17_19 
ROOT
HETATM    1  O1  MIQ B 502       3.471   9.912  16.785  1.00142.91    -0.171 OA
HETATM    2  C2  MIQ B 502       2.271  10.534  16.433  1.00141.17     0.195 A 
HETATM    3  C3  MIQ B 502       1.075  10.839  17.391  1.00141.71     0.035 A 
HETATM    4  C4  MIQ B 502       0.839  10.600  18.834  1.00142.86     0.046 A 
HETATM    5  C5  MIQ B 502      -0.380  11.001  19.437  1.00139.53     0.031 A 
HETATM    6  C12 MIQ B 502      -1.404  11.652  18.633  1.00139.38     0.030 A 
HETATM    7  C13 MIQ B 502      -1.178  11.882  17.249  1.00141.18     0.019 A 
HETATM    8  C14 MIQ B 502       0.105  11.461  16.622  1.00138.77     0.033 A 
HETATM    9  C15 MIQ B 502       0.702  11.544  15.179  1.00142.10     0.195 A 
HETATM   10  N17 MIQ B 502       1.902  10.991  15.249  1.00139.42    -0.288 N 
HETATM   11  O16 MIQ B 502       0.088  12.089  14.050  1.00148.93    -0.171 OA
ENDROOT
BRANCH  10  12
HETATM   12  C18 MIQ B 502       2.752  10.877  14.079  1.00139.82     0.187 C 
HETATM   13  C19 MIQ B 502       3.381   9.478  14.092  1.00140.06     0.247 C 
HETATM   14  O25 MIQ B 502       2.685   8.535  14.224  1.00143.95    -0.271 OA
HETATM   15  N20 MIQ B 502       4.808   9.281  13.940  1.00140.02    -0.296 N 
HETATM   16  H13 MIQ B 502       5.207   8.363  13.957  1.00142.77     0.171 HD
HETATM   17  C21 MIQ B 502       5.639  10.448  13.791  1.00142.22     0.224 C 
HETATM   18  C22 MIQ B 502       5.198  11.697  14.531  1.00139.52     0.106 C 
HETATM   19  O24 MIQ B 502       6.611  10.433  13.120  1.00146.13    -0.273 OA
HETATM   20  C23 MIQ B 502       3.787  12.001  14.061  1.00139.15     0.045 C 
ENDBRANCH  10  12
BRANCH   5  21
HETATM   21  N6  MIQ B 502      -0.604  10.747  20.849  1.00140.95    -0.377 N 
HETATM   22  C7  MIQ B 502      -1.850  11.195  21.446  1.00142.12     0.149 C 
HETATM   23  C8  MIQ B 502      -1.703  11.460  22.938  1.00144.10     0.187 C 
HETATM   24  O9  MIQ B 502      -1.057  10.423  23.613  1.00148.65    -0.388 OA
HETATM   25  C10 MIQ B 502      -0.431   9.397  22.901  1.00147.44     0.187 C 
HETATM   26  C11 MIQ B 502       0.155   9.713  21.529  1.00144.08     0.149 C 
ENDBRANCH   5  21
TORSDOF 2
ENDMDL
MODEL 2
REMARK VINA RESULT:      -6.1     25.978     27.457
REMARK  2 active torsions:
REMARK  status: ('A' for Active; 'I' for Inactive)
REMARK    1  A    between atoms: C5_5  and  N6_21 
REMARK    2  A    between atoms: C18_14  and  N17_19 
ROOT
HETATM    1  O1  MIQ B 502      25.274   5.304   3.363  1.00142.91    -0.171 OA
HETATM    2  C2  MIQ B 502      24.388   4.252   3.118  1.00141.17     0.195 A 
HETATM    3  C3  MIQ B 502      23.896   3.199   4.161  1.00141.71     0.035 A 
HETATM    4  C4  MIQ B 502      24.170   2.987   5.602  1.00142.86     0.046 A 
HETATM    5  C5  MIQ B 502      23.557   1.916   6.299  1.00139.53     0.031 A 
HETATM    6  C12 MIQ B 502      22.652   1.019   5.593  1.00139.38     0.030 A 
HETATM    7  C13 MIQ B 502      22.388   1.223   4.212  1.00141.18     0.019 A 
HETATM    8  C14 MIQ B 502      23.033   2.351   3.486  1.00138.77     0.033 A 
HETATM    9  C15 MIQ B 502      22.989   2.881   2.016  1.00142.10     0.195 A 
HETATM   10  N17 MIQ B 502      23.789   3.934   1.983  1.00139.42    -0.288 N 
HETATM   11  O16 MIQ B 502      22.255   2.346   0.956  1.00148.93    -0.171 OA
ENDROOT
BRANCH  10  12
HETATM   12  C18 MIQ B 502      24.008   4.681   0.759  1.00139.82     0.187 C 
HETATM   13  C19 MIQ B 502      25.516   4.696   0.483  1.00140.06     0.247 C 
HETATM   14  O25 MIQ B 502      26.113   3.678   0.490  1.00143.95    -0.271 OA
HETATM   15  N20 MIQ B 502      26.231   5.925   0.207  1.00140.02    -0.296 N 
HETATM   16  H13 MIQ B 502      27.217   5.922   0.035  1.00142.77     0.171 HD
HETATM   17  C21 MIQ B 502      25.482   7.156   0.213  1.00142.22     0.224 C 
HETATM   18  C22 MIQ B 502      24.326   7.244   1.190  1.00139.52     0.106 C 
HETATM   19  O24 MIQ B 502      25.755   8.049  -0.511  1.00146.13    -0.273 OA
HETATM   20  C23 MIQ B 502      23.404   6.080   0.874  1.00139.15     0.045 C 
ENDBRANCH  10  12
BRANCH   5  21
HETATM   21  N6  MIQ B 502      23.846   1.711   7.706  1.00140.95    -0.377 N 
HETATM   22  C7  MIQ B 502      23.939   0.350   8.206  1.00142.12     0.149 C 
HETATM   23  C8  MIQ B 502      23.600   0.264   9.688  1.00144.10     0.187 C 
HETATM   24  O9  MIQ B 502      24.260   1.227  10.454  1.00148.65    -0.388 OA
HETATM   25  C10 MIQ B 502      24.953   2.270   9.834  1.00147.44     0.187 C 
HETATM   26  C11 MIQ B 502      24.456   2.775   8.484  1.00144.08     0.149 C 
ENDBRANCH   5  21
TORSDOF 2
ENDMDL
MODEL 3
REMARK VINA RESULT:      -6.0     26.077     27.864
REMARK  2 active torsions:
REMARK  status: ('A' for Active; 'I' for Inactive)
REMARK    1  A    between atoms: C5_5  and  N6_21 
REMARK    2  A    between atoms: C18_14  and  N17_19 
ROOT
HETATM    1  O1  MIQ B 502      26.468   0.079   3.580  1.00142.91    -0.171 OA
HETATM    2  C2  MIQ B 502      25.188   0.567   3.854  1.00141.17     0.195 A 
HETATM    3  C3  MIQ B 502      24.370   0.326   5.162  1.00141.71     0.035 A 
HETATM    4  C4  MIQ B 502      24.647  -0.416   6.415  1.00142.86     0.046 A 
HETATM    5  C5  MIQ B 502      23.683  -0.453   7.454  1.00139.53     0.031 A 
HETATM    6  C12 MIQ B 502      22.414   0.242   7.288  1.00139.38     0.030 A 
HETATM    7  C13 MIQ B 502      22.149   0.955   6.088  1.00141.18     0.019 A 
HETATM    8  C14 MIQ B 502      23.166   0.993   5.001  1.00138.77     0.033 A 
HETATM    9  C15 MIQ B 502      23.238   1.652   3.585  1.00142.10     0.195 A 
HETATM   10  N17 MIQ B 502      24.418   1.322   3.088  1.00139.42    -0.288 N 
HETATM   11  O16 MIQ B 502      22.251   2.427   2.974  1.00148.93    -0.171 OA
ENDROOT
BRANCH  10  12
HETATM   12  C18 MIQ B 502      24.830   1.751   1.765  1.00139.82     0.187 C 
HETATM   13  C19 MIQ B 502      24.581   3.261   1.664  1.00140.06     0.247 C 
HETATM   14  O25 MIQ B 502      25.001   3.971   2.508  1.00143.95    -0.271 OA
HETATM   15  N20 MIQ B 502      23.849   3.843   0.558  1.00140.02    -0.296 N 
HETATM   16  H13 MIQ B 502      23.688   4.829   0.508  1.00142.77     0.171 HD
HETATM   17  C21 MIQ B 502      23.337   2.954  -0.454  1.00142.22     0.224 C 
HETATM   18  C22 MIQ B 502      22.895   1.579   0.008  1.00139.52     0.106 C 
HETATM   19  O24 MIQ B 502      23.271   3.282  -1.587  1.00146.13    -0.273 OA
HETATM   20  C23 MIQ B 502      24.094   0.948   0.693  1.00139.15     0.045 C 
ENDBRANCH  10  12
BRANCH   5  21
HETATM   21  N6  MIQ B 502      23.961  -1.196   8.669  1.00140.95    -0.377 N 
HETATM   22  C7  MIQ B 502      24.795  -2.383   8.583  1.00142.12     0.149 C 
HETATM   23  C8  MIQ B 502      24.489  -3.376   9.696  1.00144.10     0.187 C 
HETATM   24  O9  MIQ B 502      24.431  -2.778  10.957  1.00148.65    -0.388 OA
HETATM   25  C10 MIQ B 502      24.428  -1.386  11.080  1.00147.44     0.187 C 
HETATM   26  C11 MIQ B 502      23.803  -0.556   9.964  1.00144.08     0.149 C 
ENDBRANCH   5  21
TORSDOF 2
ENDMDL
MODEL 4
REMARK VINA RESULT:      -5.9     26.011     27.841
REMARK  2 active torsions:
REMARK  status: ('A' for Active; 'I' for Inactive)
REMARK    1  A    between atoms: C5_5  and  N6_21 
REMARK    2  A    between atoms: C18_14  and  N17_19 
ROOT
HETATM    1  O1  MIQ B 502      26.144   3.470   7.684  1.00142.91    -0.171 OA
HETATM    2  C2  MIQ B 502      25.213   2.642   7.053  1.00141.17     0.195 A 
HETATM    3  C3  MIQ B 502      24.529   2.907   5.674  1.00141.71     0.035 A 
HETATM    4  C4  MIQ B 502      24.630   4.002   4.680  1.00142.86     0.046 A 
HETATM    5  C5  MIQ B 502      23.863   3.960   3.488  1.00139.53     0.031 A 
HETATM    6  C12 MIQ B 502      22.974   2.835   3.240  1.00139.38     0.030 A 
HETATM    7  C13 MIQ B 502      22.878   1.785   4.192  1.00141.18     0.019 A 
HETATM    8  C14 MIQ B 502      23.686   1.832   5.441  1.00138.77     0.033 A 
HETATM    9  C15 MIQ B 502      23.848   0.895   6.681  1.00142.10     0.195 A 
HETATM   10  N17 MIQ B 502      24.727   1.487   7.474  1.00139.42    -0.288 N 
HETATM   11  O16 MIQ B 502      23.194  -0.317   6.904  1.00148.93    -0.171 OA
ENDROOT
BRANCH  10  12
HETATM   12  C18 MIQ B 502      25.116   0.902   8.743  1.00139.82     0.187 C 
HETATM   13  C19 MIQ B 502      25.569  -0.539   8.476  1.00140.06     0.247 C 
HETATM   14  O25 MIQ B 502      26.369  -0.744   7.634  1.00143.95    -0.271 OA
HETATM   15  N20 MIQ B 502      25.046  -1.657   9.234  1.00140.02    -0.296 N 
HETATM   16  H13 MIQ B 502      25.346  -2.593   9.045  1.00142.77     0.171 HD
HETATM   17  C21 MIQ B 502      24.063  -1.382  10.250  1.00142.22     0.224 C 
HETATM   18  C22 MIQ B 502      23.108  -0.235   9.981  1.00139.52     0.106 C 
HETATM   19  O24 MIQ B 502      24.009  -2.017  11.245  1.00146.13    -0.273 OA
HETATM   20  C23 MIQ B 502      23.967   0.994   9.745  1.00139.15     0.045 C 
ENDBRANCH  10  12
BRANCH   5  21
HETATM   21  N6  MIQ B 502      23.961   5.047   2.530  1.00140.95    -0.377 N 
HETATM   22  C7  MIQ B 502      25.069   5.979   2.647  1.00142.12     0.149 C 
HETATM   23  C8  MIQ B 502      24.727   7.345   2.067  1.00144.10     0.187 C 
HETATM   24  O9  MIQ B 502      24.144   7.267   0.801  1.00148.65    -0.388 OA
HETATM   25  C10 MIQ B 502      23.732   6.036   0.286  1.00147.44     0.187 C 
HETATM   26  C11 MIQ B 502      23.265   4.958   1.259  1.00144.08     0.149 C 
ENDBRANCH   5  21
TORSDOF 2
ENDMDL
MODEL 5
REMARK VINA RESULT:      -5.9      1.904      7.978
REMARK  2 active torsions:
REMARK  status: ('A' for Active; 'I' for Inactive)
REMARK    1  A    between atoms: C5_5  and  N6_21 
REMARK    2  A    between atoms: C18_14  and  N17_19 
ROOT
HETATM    1  O1  MIQ B 502       1.310   9.678  20.354  1.00142.91    -0.171 OA
HETATM    2  C2  MIQ B 502       0.678  10.626  19.546  1.00141.17     0.195 A 
HETATM    3  C3  MIQ B 502       1.082  11.010  18.086  1.00141.71     0.035 A 
HETATM    4  C4  MIQ B 502       2.150  10.547  17.169  1.00142.86     0.046 A 
HETATM    5  C5  MIQ B 502       2.266  11.097  15.868  1.00139.53     0.031 A 
HETATM    6  C12 MIQ B 502       1.329  12.123  15.431  1.00139.38     0.030 A 
HETATM    7  C13 MIQ B 502       0.304  12.567  16.310  1.00141.18     0.019 A 
HETATM    8  C14 MIQ B 502       0.186  11.983  17.674  1.00138.77     0.033 A 
HETATM    9  C15 MIQ B 502      -0.779  12.205  18.884  1.00142.10     0.195 A 
HETATM   10  N17 MIQ B 502      -0.371  11.377  19.832  1.00139.42    -0.288 N 
HETATM   11  O16 MIQ B 502      -1.850  13.097  18.946  1.00148.93    -0.171 OA
ENDROOT
BRANCH  10  12
HETATM   12  C18 MIQ B 502      -1.033  11.319  21.123  1.00139.82     0.187 C 
HETATM   13  C19 MIQ B 502       0.037  11.506  22.205  1.00140.06     0.247 C 
HETATM   14  O25 MIQ B 502       0.778  12.421  22.131  1.00143.95    -0.271 OA
HETATM   15  N20 MIQ B 502       0.161  10.593  23.323  1.00140.02    -0.296 N 
HETATM   16  H13 MIQ B 502       0.868  10.722  24.020  1.00142.77     0.171 HD
HETATM   17  C21 MIQ B 502      -0.748   9.478  23.386  1.00142.22     0.224 C 
HETATM   18  C22 MIQ B 502      -1.187   8.880  22.063  1.00139.52     0.106 C 
HETATM   19  O24 MIQ B 502      -1.136   9.054  24.419  1.00146.13    -0.273 OA
HETATM   20  C23 MIQ B 502      -1.809  10.011  21.264  1.00139.15     0.045 C 
ENDBRANCH  10  12
BRANCH   5  21
HETATM   21  N6  MIQ B 502       3.326  10.645  14.985  1.00140.95    -0.377 N 
HETATM   22  C7  MIQ B 502       4.702  10.934  15.348  1.00142.12     0.149 C 
HETATM   23  C8  MIQ B 502       5.609  11.006  14.127  1.00144.10     0.187 C 
HETATM   24  O9  MIQ B 502       5.435   9.929  13.256  1.00148.65    -0.388 OA
HETATM   25  C10 MIQ B 502       4.366   9.046  13.427  1.00147.44     0.187 C 
HETATM   26  C11 MIQ B 502       3.072   9.577  14.034  1.00144.08     0.149 C 
ENDBRANCH   5  21
TORSDOF 2
ENDMDL
MODEL 6
REMARK VINA RESULT:      -5.9     22.293     24.484
REMARK  2 active torsions:
REMARK  status: ('A' for Active; 'I' for Inactive)
REMARK    1  A    between atoms: C5_5  and  N6_21 
REMARK    2  A    between atoms: C18_14  and  N17_19 
ROOT
HETATM    1  O1  MIQ B 502      18.179  -5.057  22.830  1.00142.91    -0.171 OA
HETATM    2  C2  MIQ B 502      17.260  -5.652  21.962  1.00141.17     0.195 A 
HETATM    3  C3  MIQ B 502      17.417  -5.805  20.416  1.00141.71     0.035 A 
HETATM    4  C4  MIQ B 502      18.478  -5.416  19.456  1.00142.86     0.046 A 
HETATM    5  C5  MIQ B 502      18.332  -5.698  18.074  1.00139.53     0.031 A 
HETATM    6  C12 MIQ B 502      17.134  -6.374  17.597  1.00139.38     0.030 A 
HETATM    7  C13 MIQ B 502      16.118  -6.748  18.517  1.00141.18     0.019 A 
HETATM    8  C14 MIQ B 502      16.277  -6.451  19.967  1.00138.77     0.033 A 
HETATM    9  C15 MIQ B 502      15.408  -6.702  21.242  1.00142.10     0.195 A 
HETATM   10  N17 MIQ B 502      16.095  -6.204  22.256  1.00139.42    -0.288 N 
HETATM   11  O16 MIQ B 502      14.159  -7.324  21.293  1.00148.93    -0.171 OA
ENDROOT
BRANCH  10  12
HETATM   12  C18 MIQ B 502      15.581  -6.245  23.613  1.00139.82     0.187 C 
HETATM   13  C19 MIQ B 502      15.625  -4.818  24.173  1.00140.06     0.247 C 
HETATM   14  O25 MIQ B 502      15.148  -3.939  23.547  1.00143.95    -0.271 OA
HETATM   15  N20 MIQ B 502      16.231  -4.518  25.454  1.00140.02    -0.296 N 
HETATM   16  H13 MIQ B 502      16.259  -3.581  25.805  1.00142.77     0.171 HD
HETATM   17  C21 MIQ B 502      16.816  -5.607  26.194  1.00142.22     0.224 C 
HETATM   18  C22 MIQ B 502      17.453  -6.718  25.382  1.00139.52     0.106 C 
HETATM   19  O24 MIQ B 502      16.795  -5.632  27.375  1.00146.13    -0.273 OA
HETATM   20  C23 MIQ B 502      16.374  -7.245  24.452  1.00139.15     0.045 C 
ENDBRANCH  10  12
BRANCH   5  21
HETATM   21  N6  MIQ B 502      19.372  -5.298  17.143  1.00140.95    -0.377 N 
HETATM   22  C7  MIQ B 502      19.540  -3.884  16.856  1.00142.12     0.149 C 
HETATM   23  C8  MIQ B 502      20.148  -3.652  15.478  1.00144.10     0.187 C 
HETATM   24  O9  MIQ B 502      21.270  -4.448  15.239  1.00148.65    -0.388 OA
HETATM   25  C10 MIQ B 502      21.601  -5.486  16.113  1.00147.44     0.187 C 
HETATM   26  C11 MIQ B 502      20.477  -6.197  16.860  1.00144.08     0.149 C 
ENDBRANCH   5  21
TORSDOF 2
ENDMDL
MODEL 7
REMARK VINA RESULT:      -5.9     25.862     27.504
REMARK  2 active torsions:
REMARK  status: ('A' for Active; 'I' for Inactive)
REMARK    1  A    between atoms: C5_5  and  N6_21 
REMARK    2  A    between atoms: C18_14  and  N17_19 
ROOT
HETATM    1  O1  MIQ B 502      26.021   3.001   5.192  1.00142.91    -0.171 OA
HETATM    2  C2  MIQ B 502      25.103   2.431   6.077  1.00141.17     0.195 A 
HETATM    3  C3  MIQ B 502      25.220   2.399   7.634  1.00141.71     0.035 A 
HETATM    4  C4  MIQ B 502      26.231   2.910   8.590  1.00142.86     0.046 A 
HETATM    5  C5  MIQ B 502      26.056   2.725   9.985  1.00139.53     0.031 A 
HETATM    6  C12 MIQ B 502      24.876   2.030  10.479  1.00139.38     0.030 A 
HETATM    7  C13 MIQ B 502      23.906   1.542   9.563  1.00141.18     0.019 A 
HETATM    8  C14 MIQ B 502      24.094   1.741   8.100  1.00138.77     0.033 A 
HETATM    9  C15 MIQ B 502      23.272   1.362   6.824  1.00142.10     0.195 A 
HETATM   10  N17 MIQ B 502      23.967   1.817   5.794  1.00139.42    -0.288 N 
HETATM   11  O16 MIQ B 502      22.056   0.679   6.786  1.00148.93    -0.171 OA
ENDROOT
BRANCH  10  12
HETATM   12  C18 MIQ B 502      23.509   1.629   4.430  1.00139.82     0.187 C 
HETATM   13  C19 MIQ B 502      24.653   0.987   3.637  1.00140.06     0.247 C 
HETATM   14  O25 MIQ B 502      25.177   0.019   4.062  1.00143.95    -0.271 OA
HETATM   15  N20 MIQ B 502      25.107   1.532   2.374  1.00140.02    -0.296 N 
HETATM   16  H13 MIQ B 502      25.860   1.107   1.869  1.00142.77     0.171 HD
HETATM   17  C21 MIQ B 502      24.459   2.720   1.880  1.00142.22     0.224 C 
HETATM   18  C22 MIQ B 502      23.978   3.715   2.918  1.00139.52     0.106 C 
HETATM   19  O24 MIQ B 502      24.306   2.905   0.723  1.00146.13    -0.273 OA
HETATM   20  C23 MIQ B 502      23.039   2.958   3.839  1.00139.15     0.045 C 
ENDBRANCH  10  12
BRANCH   5  21
HETATM   21  N6  MIQ B 502      27.061   3.217  10.909  1.00140.95    -0.377 N 
HETATM   22  C7  MIQ B 502      28.334   3.670  10.375  1.00142.12     0.149 C 
HETATM   23  C8  MIQ B 502      29.458   3.537  11.394  1.00144.10     0.187 C 
HETATM   24  O9  MIQ B 502      29.120   4.052  12.647  1.00148.65    -0.388 OA
HETATM   25  C10 MIQ B 502      27.801   4.417  12.929  1.00147.44     0.187 C 
HETATM   26  C11 MIQ B 502      26.671   3.663  12.235  1.00144.08     0.149 C 
ENDBRANCH   5  21
TORSDOF 2
ENDMDL
MODEL 8
REMARK VINA RESULT:      -5.8     19.284     20.909
REMARK  2 active torsions:
REMARK  status: ('A' for Active; 'I' for Inactive)
REMARK    1  A    between atoms: C5_5  and  N6_21 
REMARK    2  A    between atoms: C18_14  and  N17_19 
ROOT
HETATM    1  O1  MIQ B 502      17.104   4.896  26.183  1.00142.91    -0.171 OA
HETATM    2  C2  MIQ B 502      18.026   4.021  26.763  1.00141.17     0.195 A 
HETATM    3  C3  MIQ B 502      17.780   3.120  28.015  1.00141.71     0.035 A 
HETATM    4  C4  MIQ B 502      16.615   2.912  28.908  1.00142.86     0.046 A 
HETATM    5  C5  MIQ B 502      16.697   2.002  29.992  1.00139.53     0.031 A 
HETATM    6  C12 MIQ B 502      17.931   1.267  30.227  1.00139.38     0.030 A 
HETATM    7  C13 MIQ B 502      19.048   1.466  29.371  1.00141.18     0.019 A 
HETATM    8  C14 MIQ B 502      18.956   2.421  28.234  1.00138.77     0.033 A 
HETATM    9  C15 MIQ B 502      19.937   2.890  27.110  1.00142.10     0.195 A 
HETATM   10  N17 MIQ B 502      19.267   3.770  26.384  1.00139.42    -0.288 N 
HETATM   11  O16 MIQ B 502      21.253   2.465  26.919  1.00148.93    -0.171 OA
ENDROOT
BRANCH  10  12
HETATM   12  C18 MIQ B 502      19.877   4.435  25.248  1.00139.82     0.187 C 
HETATM   13  C19 MIQ B 502      19.637   5.942  25.403  1.00140.06     0.247 C 
HETATM   14  O25 MIQ B 502      19.915   6.467  26.422  1.00143.95    -0.271 OA
HETATM   15  N20 MIQ B 502      19.082   6.742  24.331  1.00140.02    -0.296 N 
HETATM   16  H13 MIQ B 502      18.924   7.723  24.447  1.00142.77     0.171 HD
HETATM   17  C21 MIQ B 502      18.740   6.076  23.100  1.00142.22     0.224 C 
HETATM   18  C22 MIQ B 502      18.241   4.648  23.214  1.00139.52     0.106 C 
HETATM   19  O24 MIQ B 502      18.849   6.616  22.054  1.00146.13    -0.273 OA
HETATM   20  C23 MIQ B 502      19.323   3.870  23.941  1.00139.15     0.045 C 
ENDBRANCH  10  12
BRANCH   5  21
HETATM   21  N6  MIQ B 502      15.553   1.818  30.867  1.00140.95    -0.377 N 
HETATM   22  C7  MIQ B 502      14.350   2.590  30.608  1.00142.12     0.149 C 
HETATM   23  C8  MIQ B 502      13.528   2.805  31.872  1.00144.10     0.187 C 
HETATM   24  O9  MIQ B 502      13.339   1.630  32.603  1.00148.65    -0.388 OA
HETATM   25  C10 MIQ B 502      14.049   0.472  32.278  1.00147.44     0.187 C 
HETATM   26  C11 MIQ B 502      15.442   0.616  31.674  1.00144.08     0.149 C 
ENDBRANCH   5  21
TORSDOF 2
ENDMDL
MODEL 9
REMARK VINA RESULT:      -5.8     18.446     19.868
REMARK  2 active torsions:
REMARK  status: ('A' for Active; 'I' for Inactive)
REMARK    1  A    between atoms: C5_5  and  N6_21 
REMARK    2  A    between atoms: C18_14  and  N17_19 
ROOT
HETATM    1  O1  MIQ B 502      18.791   8.317  25.585  1.00142.91    -0.171 OA
HETATM    2  C2  MIQ B 502      18.197   8.240  26.847  1.00141.17     0.195 A 
HETATM    3  C3  MIQ B 502      17.524   9.418  27.622  1.00141.71     0.035 A 
HETATM    4  C4  MIQ B 502      17.311  10.851  27.313  1.00142.86     0.046 A 
HETATM    5  C5  MIQ B 502      16.647  11.693  28.241  1.00139.53     0.031 A 
HETATM    6  C12 MIQ B 502      16.173  11.145  29.504  1.00139.38     0.030 A 
HETATM    7  C13 MIQ B 502      16.377   9.771  29.800  1.00141.18     0.019 A 
HETATM    8  C14 MIQ B 502      17.072   8.891  28.821  1.00138.77     0.033 A 
HETATM    9  C15 MIQ B 502      17.466   7.378  28.789  1.00142.10     0.195 A 
HETATM   10  N17 MIQ B 502      18.076   7.184  27.632  1.00139.42    -0.288 N 
HETATM   11  O16 MIQ B 502      17.223   6.430  29.785  1.00148.93    -0.171 OA
ENDROOT
BRANCH  10  12
HETATM   12  C18 MIQ B 502      18.599   5.882  27.260  1.00139.82     0.187 C 
HETATM   13  C19 MIQ B 502      20.064   6.068  26.846  1.00140.06     0.247 C 
HETATM   14  O25 MIQ B 502      20.797   6.648  27.565  1.00143.95    -0.271 OA
HETATM   15  N20 MIQ B 502      20.576   5.545  25.596  1.00140.02    -0.296 N 
HETATM   16  H13 MIQ B 502      21.533   5.679  25.333  1.00142.77     0.171 HD
HETATM   17  C21 MIQ B 502      19.659   4.849  24.730  1.00142.22     0.224 C 
HETATM   18  C22 MIQ B 502      18.222   5.334  24.727  1.00139.52     0.106 C 
HETATM   19  O24 MIQ B 502      20.011   3.941  24.059  1.00146.13    -0.273 OA
HETATM   20  C23 MIQ B 502      17.739   5.256  26.164  1.00139.15     0.045 C 
ENDBRANCH  10  12
BRANCH   5  21
HETATM   21  N6  MIQ B 502      16.458  13.099  27.932  1.00140.95    -0.377 N 
HETATM   22  C7  MIQ B 502      15.603  13.892  28.798  1.00142.12     0.149 C 
HETATM   23  C8  MIQ B 502      14.987  15.074  28.061  1.00144.10     0.187 C 
HETATM   24  O9  MIQ B 502      15.922  15.799  27.320  1.00148.65    -0.388 OA
HETATM   25  C10 MIQ B 502      17.213  15.302  27.129  1.00147.44     0.187 C 
HETATM   26  C11 MIQ B 502      17.413  13.790  27.084  1.00144.08     0.149 C 
ENDBRANCH   5  21
TORSDOF 2
ENDMDL
