MODEL 1
REMARK VINA RESULT:      -7.4      0.000      0.000
REMARK  2 active torsions:
REMARK  status: ('A' for Active; 'I' for Inactive)
REMARK    1  A    between atoms: C5_5  and  N6_21 
REMARK    2  A    between atoms: C18_14  and  N17_19 
ROOT
HETATM    1  O1  MIQ B 502      -7.190  17.563  -0.089  1.00142.91    -0.171 OA
HETATM    2  C2  MIQ B 502      -8.205  18.504  -0.276  1.00141.17     0.195 A 
HETATM    3  C3  MIQ B 502      -8.255  19.941   0.336  1.00141.71     0.035 A 
HETATM    4  C4  MIQ B 502      -7.343  20.704   1.220  1.00142.86     0.046 A 
HETATM    5  C5  MIQ B 502      -7.668  22.026   1.615  1.00139.53     0.031 A 
HETATM    6  C12 MIQ B 502      -8.905  22.636   1.150  1.00139.38     0.030 A 
HETATM    7  C13 MIQ B 502      -9.779  21.905   0.301  1.00141.18     0.019 A 
HETATM    8  C14 MIQ B 502      -9.432  20.518  -0.113  1.00138.77     0.033 A 
HETATM    9  C15 MIQ B 502     -10.115  19.435  -1.009  1.00142.10     0.195 A 
HETATM   10  N17 MIQ B 502      -9.308  18.387  -0.995  1.00139.42    -0.288 N 
HETATM   11  O16 MIQ B 502     -11.333  19.553  -1.682  1.00148.93    -0.171 OA
ENDROOT
BRANCH  10  12
HETATM   12  C18 MIQ B 502      -9.633  17.171  -1.717  1.00139.82     0.187 C 
HETATM   13  C19 MIQ B 502      -9.876  17.547  -3.183  1.00140.06     0.247 C 
HETATM   14  O25 MIQ B 502      -9.072  18.195  -3.753  1.00143.95    -0.271 OA
HETATM   15  N20 MIQ B 502     -11.066  17.125  -3.893  1.00140.02    -0.296 N 
HETATM   16  H13 MIQ B 502     -11.217  17.383  -4.849  1.00142.77     0.171 HD
HETATM   17  C21 MIQ B 502     -12.039  16.344  -3.174  1.00142.22     0.224 C 
HETATM   18  C22 MIQ B 502     -12.199  16.648  -1.696  1.00139.52     0.106 C 
HETATM   19  O24 MIQ B 502     -12.677  15.505  -3.709  1.00146.13    -0.273 OA
HETATM   20  C23 MIQ B 502     -10.828  16.472  -1.069  1.00139.15     0.045 C 
ENDBRANCH  10  12
BRANCH   5  21
HETATM   21  N6  MIQ B 502      -6.772  22.757   2.493  1.00140.95    -0.377 N 
HETATM   22  C7  MIQ B 502      -5.340  22.560   2.345  1.00142.12     0.149 C 
HETATM   23  C8  MIQ B 502      -4.592  22.827   3.645  1.00144.10     0.187 C 
HETATM   24  O9  MIQ B 502      -4.969  24.026   4.253  1.00148.65    -0.388 OA
HETATM   25  C10 MIQ B 502      -6.082  24.733   3.791  1.00147.44     0.187 C 
HETATM   26  C11 MIQ B 502      -7.238  23.953   3.173  1.00144.08     0.149 C 
ENDBRANCH   5  21
TORSDOF 2
ENDMDL
MODEL 2
REMARK VINA RESULT:      -7.1     19.183     20.258
REMARK  2 active torsions:
REMARK  status: ('A' for Active; 'I' for Inactive)
REMARK    1  A    between atoms: C5_5  and  N6_21 
REMARK    2  A    between atoms: C18_14  and  N17_19 
ROOT
HETATM    1  O1  MIQ B 502       5.909  16.882 -11.911  1.00142.91    -0.171 OA
HETATM    2  C2  MIQ B 502       6.904  16.150 -11.260  1.00141.17     0.195 A 
HETATM    3  C3  MIQ B 502       8.208  16.730 -10.625  1.00141.71     0.035 A 
HETATM    4  C4  MIQ B 502       8.765  18.098 -10.511  1.00142.86     0.046 A 
HETATM    5  C5  MIQ B 502      10.005  18.315  -9.859  1.00139.53     0.031 A 
HETATM    6  C12 MIQ B 502      10.734  17.187  -9.298  1.00139.38     0.030 A 
HETATM    7  C13 MIQ B 502      10.200  15.874  -9.407  1.00141.18     0.019 A 
HETATM    8  C14 MIQ B 502       8.897  15.653 -10.090  1.00138.77     0.033 A 
HETATM    9  C15 MIQ B 502       8.014  14.398 -10.394  1.00142.10     0.195 A 
HETATM   10  N17 MIQ B 502       6.952  14.848 -11.041  1.00139.42    -0.288 N 
HETATM   11  O16 MIQ B 502       8.297  13.075 -10.052  1.00148.93    -0.171 OA
ENDROOT
BRANCH  10  12
HETATM   12  C18 MIQ B 502       5.910  13.949 -11.502  1.00139.82     0.187 C 
HETATM   13  C19 MIQ B 502       5.686  14.218 -12.995  1.00140.06     0.247 C 
HETATM   14  O25 MIQ B 502       6.614  14.227 -13.724  1.00143.95    -0.271 OA
HETATM   15  N20 MIQ B 502       4.365  14.457 -13.539  1.00140.02    -0.296 N 
HETATM   16  H13 MIQ B 502       4.234  14.638 -14.515  1.00142.77     0.171 HD
HETATM   17  C21 MIQ B 502       3.250  14.451 -12.628  1.00142.22     0.224 C 
HETATM   18  C22 MIQ B 502       3.513  14.966 -11.226  1.00139.52     0.106 C 
HETATM   19  O24 MIQ B 502       2.185  14.059 -12.958  1.00146.13    -0.273 OA
HETATM   20  C23 MIQ B 502       4.645  14.127 -10.663  1.00139.15     0.045 C 
ENDBRANCH  10  12
BRANCH   5  21
HETATM   21  N6  MIQ B 502      10.546  19.659  -9.767  1.00140.95    -0.377 N 
HETATM   22  C7  MIQ B 502      11.866  19.839  -9.188  1.00142.12     0.149 C 
HETATM   23  C8  MIQ B 502      12.034  21.223  -8.573  1.00144.10     0.187 C 
HETATM   24  O9  MIQ B 502      11.609  22.248  -9.419  1.00148.65    -0.388 OA
HETATM   25  C10 MIQ B 502      10.901  21.955 -10.587  1.00147.44     0.187 C 
HETATM   26  C11 MIQ B 502      10.012  20.715 -10.609  1.00144.08     0.149 C 
ENDBRANCH   5  21
TORSDOF 2
ENDMDL
MODEL 3
REMARK VINA RESULT:      -6.6      4.012      5.746
REMARK  2 active torsions:
REMARK  status: ('A' for Active; 'I' for Inactive)
REMARK    1  A    between atoms: C5_5  and  N6_21 
REMARK    2  A    between atoms: C18_14  and  N17_19 
ROOT
HETATM    1  O1  MIQ B 502      -9.132  17.843   1.466  1.00142.91    -0.171 OA
HETATM    2  C2  MIQ B 502      -8.791  17.792   0.112  1.00141.17     0.195 A 
HETATM    3  C3  MIQ B 502      -7.397  17.397  -0.473  1.00141.71     0.035 A 
HETATM    4  C4  MIQ B 502      -6.113  16.986   0.142  1.00142.86     0.046 A 
HETATM    5  C5  MIQ B 502      -4.993  16.681  -0.673  1.00139.53     0.031 A 
HETATM    6  C12 MIQ B 502      -5.108  16.771  -2.121  1.00139.38     0.030 A 
HETATM    7  C13 MIQ B 502      -6.339  17.164  -2.711  1.00141.18     0.019 A 
HETATM    8  C14 MIQ B 502      -7.512  17.481  -1.851  1.00138.77     0.033 A 
HETATM    9  C15 MIQ B 502      -8.985  17.930  -2.123  1.00142.10     0.195 A 
HETATM   10  N17 MIQ B 502      -9.554  18.054  -0.935  1.00139.42    -0.288 N 
HETATM   11  O16 MIQ B 502      -9.574  18.155  -3.368  1.00148.93    -0.171 OA
ENDROOT
BRANCH  10  12
HETATM   12  C18 MIQ B 502     -10.935  18.476  -0.797  1.00139.82     0.187 C 
HETATM   13  C19 MIQ B 502     -10.956  19.722   0.097  1.00140.06     0.247 C 
HETATM   14  O25 MIQ B 502     -10.242  20.626  -0.157  1.00143.95    -0.271 OA
HETATM   15  N20 MIQ B 502     -11.833  19.823   1.246  1.00140.02    -0.296 N 
HETATM   16  H13 MIQ B 502     -11.833  20.639   1.826  1.00142.77     0.171 HD
HETATM   17  C21 MIQ B 502     -12.688  18.702   1.542  1.00142.22     0.224 C 
HETATM   18  C22 MIQ B 502     -12.140  17.325   1.223  1.00139.52     0.106 C 
HETATM   19  O24 MIQ B 502     -13.764  18.852   2.007  1.00146.13    -0.273 OA
HETATM   20  C23 MIQ B 502     -11.790  17.332  -0.254  1.00139.15     0.045 C 
ENDBRANCH  10  12
BRANCH   5  21
HETATM   21  N6  MIQ B 502      -3.737  16.295  -0.056  1.00140.95    -0.377 N 
HETATM   22  C7  MIQ B 502      -2.506  16.504  -0.799  1.00142.12     0.149 C 
HETATM   23  C8  MIQ B 502      -1.415  15.527  -0.378  1.00144.10     0.187 C 
HETATM   24  O9  MIQ B 502      -1.269  15.440   1.008  1.00148.65    -0.388 OA
HETATM   25  C10 MIQ B 502      -2.209  16.029   1.857  1.00147.44     0.187 C 
HETATM   26  C11 MIQ B 502      -3.656  16.132   1.385  1.00144.08     0.149 C 
ENDBRANCH   5  21
TORSDOF 2
ENDMDL
MODEL 4
REMARK VINA RESULT:      -6.5      7.343      9.767
REMARK  2 active torsions:
REMARK  status: ('A' for Active; 'I' for Inactive)
REMARK    1  A    between atoms: C5_5  and  N6_21 
REMARK    2  A    between atoms: C18_14  and  N17_19 
ROOT
HETATM    1  O1  MIQ B 502      -4.572  14.324   1.411  1.00142.91    -0.171 OA
HETATM    2  C2  MIQ B 502      -4.519  15.021   2.620  1.00141.17     0.195 A 
HETATM    3  C3  MIQ B 502      -5.443  14.789   3.859  1.00141.71     0.035 A 
HETATM    4  C4  MIQ B 502      -6.559  13.855   4.137  1.00142.86     0.046 A 
HETATM    5  C5  MIQ B 502      -7.222  13.883   5.390  1.00139.53     0.031 A 
HETATM    6  C12 MIQ B 502      -6.801  14.834   6.409  1.00139.38     0.030 A 
HETATM    7  C13 MIQ B 502      -5.730  15.730   6.143  1.00141.18     0.019 A 
HETATM    8  C14 MIQ B 502      -5.037  15.694   4.826  1.00138.77     0.033 A 
HETATM    9  C15 MIQ B 502      -3.855  16.491   4.185  1.00142.10     0.195 A 
HETATM   10  N17 MIQ B 502      -3.696  15.994   2.969  1.00139.42    -0.288 N 
HETATM   11  O16 MIQ B 502      -3.121  17.520   4.778  1.00148.93    -0.171 OA
ENDROOT
BRANCH  10  12
HETATM   12  C18 MIQ B 502      -2.684  16.510   2.066  1.00139.82     0.187 C 
HETATM   13  C19 MIQ B 502      -3.365  16.816   0.727  1.00140.06     0.247 C 
HETATM   14  O25 MIQ B 502      -4.343  17.475   0.715  1.00143.95    -0.271 OA
HETATM   15  N20 MIQ B 502      -2.837  16.322  -0.529  1.00140.02    -0.296 N 
HETATM   16  H13 MIQ B 502      -3.295  16.523  -1.396  1.00142.77     0.171 HD
HETATM   17  C21 MIQ B 502      -1.648  15.511  -0.488  1.00142.22     0.224 C 
HETATM   18  C22 MIQ B 502      -1.476  14.614   0.723  1.00139.52     0.106 C 
HETATM   19  O24 MIQ B 502      -0.844  15.548  -1.354  1.00146.13    -0.273 OA
HETATM   20  C23 MIQ B 502      -1.528  15.519   1.941  1.00139.15     0.045 C 
ENDBRANCH  10  12
BRANCH   5  21
HETATM   21  N6  MIQ B 502      -8.323  12.972   5.644  1.00140.95    -0.377 N 
HETATM   22  C7  MIQ B 502      -8.560  11.890   4.704  1.00142.12     0.149 C 
HETATM   23  C8  MIQ B 502     -10.018  11.449   4.700  1.00144.10     0.187 C 
HETATM   24  O9  MIQ B 502     -10.528  11.246   5.984  1.00148.65    -0.388 OA
HETATM   25  C10 MIQ B 502      -9.801  11.651   7.106  1.00147.44     0.187 C 
HETATM   26  C11 MIQ B 502      -8.878  12.859   6.981  1.00144.08     0.149 C 
ENDBRANCH   5  21
TORSDOF 2
ENDMDL
MODEL 5
REMARK VINA RESULT:      -6.5     20.198     23.389
REMARK  2 active torsions:
REMARK  status: ('A' for Active; 'I' for Inactive)
REMARK    1  A    between atoms: C5_5  and  N6_21 
REMARK    2  A    between atoms: C18_14  and  N17_19 
ROOT
HETATM    1  O1  MIQ B 502      11.664  18.467   9.414  1.00142.91    -0.171 OA
HETATM    2  C2  MIQ B 502      11.777  17.892   8.146  1.00141.17     0.195 A 
HETATM    3  C3  MIQ B 502      13.001  18.014   7.184  1.00141.71     0.035 A 
HETATM    4  C4  MIQ B 502      14.310  18.701   7.283  1.00142.86     0.046 A 
HETATM    5  C5  MIQ B 502      15.241  18.627   6.216  1.00139.53     0.031 A 
HETATM    6  C12 MIQ B 502      14.908  17.871   5.018  1.00139.38     0.030 A 
HETATM    7  C13 MIQ B 502      13.653  17.211   4.923  1.00141.18     0.019 A 
HETATM    8  C14 MIQ B 502      12.681  17.291   6.047  1.00138.77     0.033 A 
HETATM    9  C15 MIQ B 502      11.250  16.715   6.305  1.00142.10     0.195 A 
HETATM   10  N17 MIQ B 502      10.898  17.138   7.508  1.00139.42    -0.288 N 
HETATM   11  O16 MIQ B 502      10.500  15.920   5.437  1.00148.93    -0.171 OA
ENDROOT
BRANCH  10  12
HETATM   12  C18 MIQ B 502       9.606  16.806   8.080  1.00139.82     0.187 C 
HETATM   13  C19 MIQ B 502       8.947  18.113   8.538  1.00140.06     0.247 C 
HETATM   14  O25 MIQ B 502       8.875  19.017   7.783  1.00143.95    -0.271 OA
HETATM   15  N20 MIQ B 502       8.404  18.268   9.871  1.00140.02    -0.296 N 
HETATM   16  H13 MIQ B 502       7.982  19.129  10.160  1.00142.77     0.171 HD
HETATM   17  C21 MIQ B 502       8.513  17.154  10.778  1.00142.22     0.224 C 
HETATM   18  C22 MIQ B 502       9.747  16.284  10.642  1.00139.52     0.106 C 
HETATM   19  O24 MIQ B 502       7.678  16.929  11.583  1.00146.13    -0.273 OA
HETATM   20  C23 MIQ B 502       9.770  15.788   9.207  1.00139.15     0.045 C 
ENDBRANCH  10  12
BRANCH   5  21
HETATM   21  N6  MIQ B 502      16.514  19.317   6.321  1.00140.95    -0.377 N 
HETATM   22  C7  MIQ B 502      17.523  18.781   7.217  1.00142.12     0.149 C 
HETATM   23  C8  MIQ B 502      18.473  19.862   7.717  1.00144.10     0.187 C 
HETATM   24  O9  MIQ B 502      18.957  20.676   6.691  1.00148.65    -0.388 OA
HETATM   25  C10 MIQ B 502      18.408  20.602   5.409  1.00147.44     0.187 C 
HETATM   26  C11 MIQ B 502      16.937  20.222   5.267  1.00144.08     0.149 C 
ENDBRANCH   5  21
TORSDOF 2
ENDMDL
MODEL 6
REMARK VINA RESULT:      -6.5     20.011     20.998
REMARK  2 active torsions:
REMARK  status: ('A' for Active; 'I' for Inactive)
REMARK    1  A    between atoms: C5_5  and  N6_21 
REMARK    2  A    between atoms: C18_14  and  N17_19 
ROOT
HETATM    1  O1  MIQ B 502      10.383  14.740 -10.192  1.00142.91    -0.171 OA
HETATM    2  C2  MIQ B 502       9.498  15.774 -10.504  1.00141.17     0.195 A 
HETATM    3  C3  MIQ B 502       9.758  17.301 -10.304  1.00141.71     0.035 A 
HETATM    4  C4  MIQ B 502      10.904  18.080  -9.777  1.00142.86     0.046 A 
HETATM    5  C5  MIQ B 502      10.843  19.495  -9.720  1.00139.53     0.031 A 
HETATM    6  C12 MIQ B 502       9.648  20.186 -10.182  1.00139.38     0.030 A 
HETATM    7  C13 MIQ B 502       8.549  19.440 -10.687  1.00141.18     0.019 A 
HETATM    8  C14 MIQ B 502       8.620  17.955 -10.747  1.00138.77     0.033 A 
HETATM    9  C15 MIQ B 502       7.648  16.827 -11.226  1.00142.10     0.195 A 
HETATM   10  N17 MIQ B 502       8.287  15.686 -11.026  1.00139.42    -0.288 N 
HETATM   11  O16 MIQ B 502       6.367  16.996 -11.754  1.00148.93    -0.171 OA
ENDROOT
BRANCH  10  12
HETATM   12  C18 MIQ B 502       7.675  14.409 -11.344  1.00139.82     0.187 C 
HETATM   13  C19 MIQ B 502       7.159  14.485 -12.787  1.00140.06     0.247 C 
HETATM   14  O25 MIQ B 502       7.887  14.850 -13.640  1.00143.95    -0.271 OA
HETATM   15  N20 MIQ B 502       5.802  14.115 -13.133  1.00140.02    -0.296 N 
HETATM   16  H13 MIQ B 502       5.475  14.176 -14.077  1.00142.77     0.171 HD
HETATM   17  C21 MIQ B 502       4.929  13.683 -12.071  1.00142.22     0.224 C 
HETATM   18  C22 MIQ B 502       5.134  14.329 -10.715  1.00139.52     0.106 C 
HETATM   19  O24 MIQ B 502       4.099  12.862 -12.250  1.00146.13    -0.273 OA
HETATM   20  C23 MIQ B 502       6.581  14.076 -10.331  1.00139.15     0.045 C 
ENDBRANCH  10  12
BRANCH   5  21
HETATM   21  N6  MIQ B 502      11.967  20.244  -9.188  1.00140.95    -0.377 N 
HETATM   22  C7  MIQ B 502      13.257  20.120  -9.844  1.00142.12     0.149 C 
HETATM   23  C8  MIQ B 502      14.411  20.388  -8.886  1.00144.10     0.187 C 
HETATM   24  O9  MIQ B 502      14.233  21.551  -8.134  1.00148.65    -0.388 OA
HETATM   25  C10 MIQ B 502      13.005  22.216  -8.139  1.00147.44     0.187 C 
HETATM   26  C11 MIQ B 502      11.733  21.399  -8.339  1.00144.08     0.149 C 
ENDBRANCH   5  21
TORSDOF 2
ENDMDL
MODEL 7
REMARK VINA RESULT:      -6.4      5.002      8.964
REMARK  2 active torsions:
REMARK  status: ('A' for Active; 'I' for Inactive)
REMARK    1  A    between atoms: C5_5  and  N6_21 
REMARK    2  A    between atoms: C18_14  and  N17_19 
ROOT
HETATM    1  O1  MIQ B 502      -4.146  14.486   0.956  1.00142.91    -0.171 OA
HETATM    2  C2  MIQ B 502      -4.525  15.711   1.511  1.00141.17     0.195 A 
HETATM    3  C3  MIQ B 502      -5.530  16.733   0.890  1.00141.71     0.035 A 
HETATM    4  C4  MIQ B 502      -6.332  16.745  -0.356  1.00142.86     0.046 A 
HETATM    5  C5  MIQ B 502      -7.178  17.843  -0.654  1.00139.53     0.031 A 
HETATM    6  C12 MIQ B 502      -7.258  18.964   0.271  1.00139.38     0.030 A 
HETATM    7  C13 MIQ B 502      -6.490  18.953   1.467  1.00141.18     0.019 A 
HETATM    8  C14 MIQ B 502      -5.605  17.796   1.775  1.00138.77     0.033 A 
HETATM    9  C15 MIQ B 502      -4.643  17.431   2.952  1.00142.10     0.195 A 
HETATM   10  N17 MIQ B 502      -4.130  16.250   2.652  1.00139.42    -0.288 N 
HETATM   11  O16 MIQ B 502      -4.380  18.202   4.086  1.00148.93    -0.171 OA
ENDROOT
BRANCH  10  12
HETATM   12  C18 MIQ B 502      -3.169  15.598   3.522  1.00139.82     0.187 C 
HETATM   13  C19 MIQ B 502      -3.771  15.553   4.932  1.00140.06     0.247 C 
HETATM   14  O25 MIQ B 502      -4.860  15.126   5.080  1.00143.95    -0.271 OA
HETATM   15  N20 MIQ B 502      -3.035  16.017   6.091  1.00140.02    -0.296 N 
HETATM   16  H13 MIQ B 502      -3.441  15.988   7.005  1.00142.77     0.171 HD
HETATM   17  C21 MIQ B 502      -1.711  16.543   5.883  1.00142.22     0.224 C 
HETATM   18  C22 MIQ B 502      -1.469  17.284   4.582  1.00139.52     0.106 C 
HETATM   19  O24 MIQ B 502      -0.856  16.400   6.686  1.00146.13    -0.273 OA
HETATM   20  C23 MIQ B 502      -1.824  16.320   3.465  1.00139.15     0.045 C 
ENDBRANCH  10  12
BRANCH   5  21
HETATM   21  N6  MIQ B 502      -7.946  17.848  -1.885  1.00140.95    -0.377 N 
HETATM   22  C7  MIQ B 502      -9.355  18.197  -1.823  1.00142.12     0.149 C 
HETATM   23  C8  MIQ B 502     -10.148  17.566  -2.960  1.00144.10     0.187 C 
HETATM   24  O9  MIQ B 502      -9.544  17.741  -4.206  1.00148.65    -0.388 OA
HETATM   25  C10 MIQ B 502      -8.243  18.241  -4.298  1.00147.44     0.187 C 
HETATM   26  C11 MIQ B 502      -7.266  17.946  -3.164  1.00144.08     0.149 C 
ENDBRANCH   5  21
TORSDOF 2
ENDMDL
MODEL 8
REMARK VINA RESULT:      -6.3     20.213     22.444
REMARK  2 active torsions:
REMARK  status: ('A' for Active; 'I' for Inactive)
REMARK    1  A    between atoms: C5_5  and  N6_21 
REMARK    2  A    between atoms: C18_14  and  N17_19 
ROOT
HETATM    1  O1  MIQ B 502       9.649  18.064 -12.251  1.00142.91    -0.171 OA
HETATM    2  C2  MIQ B 502       9.521  16.980 -11.380  1.00141.17     0.195 A 
HETATM    3  C3  MIQ B 502       8.288  16.029 -11.266  1.00141.71     0.035 A 
HETATM    4  C4  MIQ B 502       6.984  15.961 -11.968  1.00142.86     0.046 A 
HETATM    5  C5  MIQ B 502       6.043  14.954 -11.637  1.00139.53     0.031 A 
HETATM    6  C12 MIQ B 502       6.360  13.981 -10.602  1.00139.38     0.030 A 
HETATM    7  C13 MIQ B 502       7.610  14.044  -9.929  1.00141.18     0.019 A 
HETATM    8  C14 MIQ B 502       8.595  15.103 -10.282  1.00138.77     0.033 A 
HETATM    9  C15 MIQ B 502      10.028  15.481  -9.783  1.00142.10     0.195 A 
HETATM   10  N17 MIQ B 502      10.395  16.536 -10.493  1.00139.42    -0.288 N 
HETATM   11  O16 MIQ B 502      10.764  14.835  -8.789  1.00148.93    -0.171 OA
ENDROOT
BRANCH  10  12
HETATM   12  C18 MIQ B 502      11.680  17.177 -10.286  1.00139.82     0.187 C 
HETATM   13  C19 MIQ B 502      11.423  18.666 -10.025  1.00140.06     0.247 C 
HETATM   14  O25 MIQ B 502      10.637  18.980  -9.203  1.00143.95    -0.271 OA
HETATM   15  N20 MIQ B 502      12.123  19.702 -10.757  1.00140.02    -0.296 N 
HETATM   16  H13 MIQ B 502      11.941  20.671 -10.582  1.00142.77     0.171 HD
HETATM   17  C21 MIQ B 502      13.069  19.294 -11.763  1.00142.22     0.224 C 
HETATM   18  C22 MIQ B 502      12.751  18.020 -12.522  1.00139.52     0.106 C 
HETATM   19  O24 MIQ B 502      14.047  19.921 -11.981  1.00146.13    -0.273 OA
HETATM   20  C23 MIQ B 502      12.597  16.926 -11.482  1.00139.15     0.045 C 
ENDBRANCH  10  12
BRANCH   5  21
HETATM   21  N6  MIQ B 502       4.764  14.909 -12.323  1.00140.95    -0.377 N 
HETATM   22  C7  MIQ B 502       4.482  15.915 -13.333  1.00142.12     0.149 C 
HETATM   23  C8  MIQ B 502       2.987  16.162 -13.487  1.00144.10     0.187 C 
HETATM   24  O9  MIQ B 502       2.249  14.981 -13.598  1.00148.65    -0.388 OA
HETATM   25  C10 MIQ B 502       2.851  13.745 -13.348  1.00147.44     0.187 C 
HETATM   26  C11 MIQ B 502       3.991  13.680 -12.337  1.00144.08     0.149 C 
ENDBRANCH   5  21
TORSDOF 2
ENDMDL
MODEL 9
REMARK VINA RESULT:      -6.3      4.101      5.417
REMARK  2 active torsions:
REMARK  status: ('A' for Active; 'I' for Inactive)
REMARK    1  A    between atoms: C5_5  and  N6_21 
REMARK    2  A    between atoms: C18_14  and  N17_19 
ROOT
HETATM    1  O1  MIQ B 502      -7.362  19.883   1.861  1.00142.91    -0.171 OA
HETATM    2  C2  MIQ B 502      -6.724  18.827   1.207  1.00141.17     0.195 A 
HETATM    3  C3  MIQ B 502      -5.385  18.149   1.639  1.00141.71     0.035 A 
HETATM    4  C4  MIQ B 502      -4.447  18.373   2.765  1.00142.86     0.046 A 
HETATM    5  C5  MIQ B 502      -3.282  17.575   2.896  1.00139.53     0.031 A 
HETATM    6  C12 MIQ B 502      -3.008  16.530   1.920  1.00139.38     0.030 A 
HETATM    7  C13 MIQ B 502      -3.908  16.314   0.842  1.00141.18     0.019 A 
HETATM    8  C14 MIQ B 502      -5.130  17.154   0.710  1.00138.77     0.033 A 
HETATM    9  C15 MIQ B 502      -6.319  17.213  -0.304  1.00142.10     0.195 A 
HETATM   10  N17 MIQ B 502      -7.109  18.187   0.116  1.00139.42    -0.288 N 
HETATM   11  O16 MIQ B 502      -6.502  16.402  -1.425  1.00148.93    -0.171 OA
ENDROOT
BRANCH  10  12
HETATM   12  C18 MIQ B 502      -8.320  18.543  -0.600  1.00139.82     0.187 C 
HETATM   13  C19 MIQ B 502      -9.177  17.277  -0.727  1.00140.06     0.247 C 
HETATM   14  O25 MIQ B 502      -9.407  16.639   0.238  1.00143.95    -0.271 OA
HETATM   15  N20 MIQ B 502      -9.718  16.845  -1.999  1.00140.02    -0.296 N 
HETATM   16  H13 MIQ B 502     -10.270  16.013  -2.070  1.00142.77     0.171 HD
HETATM   17  C21 MIQ B 502      -9.414  17.635  -3.165  1.00142.22     0.224 C 
HETATM   18  C22 MIQ B 502      -8.056  18.310  -3.195  1.00139.52     0.106 C 
HETATM   19  O24 MIQ B 502     -10.188  17.755  -4.049  1.00146.13    -0.273 OA
HETATM   20  C23 MIQ B 502      -7.975  19.172  -1.949  1.00139.15     0.045 C 
ENDBRANCH  10  12
BRANCH   5  21
HETATM   21  N6  MIQ B 502      -2.364  17.814   3.995  1.00140.95    -0.377 N 
HETATM   22  C7  MIQ B 502      -2.535  19.016   4.793  1.00142.12     0.149 C 
HETATM   23  C8  MIQ B 502      -1.225  19.469   5.427  1.00144.10     0.187 C 
HETATM   24  O9  MIQ B 502      -0.538  18.428   6.055  1.00148.65    -0.388 OA
HETATM   25  C10 MIQ B 502      -0.944  17.103   5.878  1.00147.44     0.187 C 
HETATM   26  C11 MIQ B 502      -1.605  16.712   4.560  1.00144.08     0.149 C 
ENDBRANCH   5  21
TORSDOF 2
ENDMDL
