MODEL 1
REMARK VINA RESULT:      -6.5      0.000      0.000
REMARK  2 active torsions:
REMARK  status: ('A' for Active; 'I' for Inactive)
REMARK    1  A    between atoms: C5_5  and  N6_21 
REMARK    2  A    between atoms: C18_14  and  N17_19 
ROOT
HETATM    1  O1  MIQ B 502      18.077   4.346  -0.042  1.00142.91    -0.171 OA
HETATM    2  C2  MIQ B 502      18.615   4.638   1.213  1.00141.17     0.195 A 
HETATM    3  C3  MIQ B 502      18.561   3.720   2.476  1.00141.71     0.035 A 
HETATM    4  C4  MIQ B 502      17.988   2.378   2.736  1.00142.86     0.046 A 
HETATM    5  C5  MIQ B 502      18.102   1.787   4.019  1.00139.53     0.031 A 
HETATM    6  C12 MIQ B 502      18.786   2.503   5.087  1.00139.38     0.030 A 
HETATM    7  C13 MIQ B 502      19.336   3.789   4.837  1.00141.18     0.019 A 
HETATM    8  C14 MIQ B 502      19.216   4.404   3.487  1.00138.77     0.033 A 
HETATM    9  C15 MIQ B 502      19.680   5.754   2.849  1.00142.10     0.195 A 
HETATM   10  N17 MIQ B 502      19.271   5.722   1.591  1.00139.42    -0.288 N 
HETATM   11  O16 MIQ B 502      20.380   6.781   3.483  1.00148.93    -0.171 OA
ENDROOT
BRANCH  10  12
HETATM   12  C18 MIQ B 502      19.515   6.831   0.687  1.00139.82     0.187 C 
HETATM   13  C19 MIQ B 502      18.174   7.221   0.053  1.00140.06     0.247 C 
HETATM   14  O25 MIQ B 502      17.243   7.418   0.750  1.00143.95    -0.271 OA
HETATM   15  N20 MIQ B 502      18.020   7.361  -1.380  1.00140.02    -0.296 N 
HETATM   16  H13 MIQ B 502      17.138   7.610  -1.783  1.00142.77     0.171 HD
HETATM   17  C21 MIQ B 502      19.168   7.106  -2.211  1.00142.22     0.224 C 
HETATM   18  C22 MIQ B 502      20.132   6.038  -1.731  1.00139.52     0.106 C 
HETATM   19  O24 MIQ B 502      19.351   7.704  -3.214  1.00146.13    -0.273 OA
HETATM   20  C23 MIQ B 502      20.580   6.454  -0.341  1.00139.15     0.045 C 
ENDBRANCH  10  12
BRANCH   5  21
HETATM   21  N6  MIQ B 502      17.523   0.479   4.264  1.00140.95    -0.377 N 
HETATM   22  C7  MIQ B 502      17.764  -0.580   3.299  1.00142.12     0.149 C 
HETATM   23  C8  MIQ B 502      16.652  -1.620   3.305  1.00144.10     0.187 C 
HETATM   24  O9  MIQ B 502      16.317  -2.050   4.590  1.00148.65    -0.388 OA
HETATM   25  C10 MIQ B 502      16.820  -1.386   5.712  1.00147.44     0.187 C 
HETATM   26  C11 MIQ B 502      17.110   0.107   5.606  1.00144.08     0.149 C 
ENDBRANCH   5  21
TORSDOF 2
ENDMDL
MODEL 2
REMARK VINA RESULT:      -6.2     21.508     23.360
REMARK  2 active torsions:
REMARK  status: ('A' for Active; 'I' for Inactive)
REMARK    1  A    between atoms: C5_5  and  N6_21 
REMARK    2  A    between atoms: C18_14  and  N17_19 
ROOT
HETATM    1  O1  MIQ B 502      25.962  -8.915 -14.796  1.00142.91    -0.171 OA
HETATM    2  C2  MIQ B 502      24.900  -9.646 -14.261  1.00141.17     0.195 A 
HETATM    3  C3  MIQ B 502      23.570 -10.012 -14.994  1.00141.71     0.035 A 
HETATM    4  C4  MIQ B 502      23.049  -9.740 -16.355  1.00142.86     0.046 A 
HETATM    5  C5  MIQ B 502      21.771 -10.217 -16.741  1.00139.53     0.031 A 
HETATM    6  C12 MIQ B 502      20.968 -10.980 -15.796  1.00139.38     0.030 A 
HETATM    7  C13 MIQ B 502      21.468 -11.242 -14.492  1.00141.18     0.019 A 
HETATM    8  C14 MIQ B 502      22.811 -10.740 -14.092  1.00138.77     0.033 A 
HETATM    9  C15 MIQ B 502      23.675 -10.826 -12.792  1.00142.10     0.195 A 
HETATM   10  N17 MIQ B 502      24.796 -10.175 -13.053  1.00139.42    -0.288 N 
HETATM   11  O16 MIQ B 502      23.327 -11.461 -11.598  1.00148.93    -0.171 OA
ENDROOT
BRANCH  10  12
HETATM   12  C18 MIQ B 502      25.841 -10.035 -12.057  1.00139.82     0.187 C 
HETATM   13  C19 MIQ B 502      26.180  -8.544 -11.941  1.00140.06     0.247 C 
HETATM   14  O25 MIQ B 502      25.308  -7.766 -11.777  1.00143.95    -0.271 OA
HETATM   15  N20 MIQ B 502      27.543  -8.062 -12.021  1.00140.02    -0.296 N 
HETATM   16  H13 MIQ B 502      27.751  -7.085 -11.950  1.00142.77     0.171 HD
HETATM   17  C21 MIQ B 502      28.589  -9.029 -12.231  1.00142.22     0.224 C 
HETATM   18  C22 MIQ B 502      28.241 -10.234 -13.084  1.00139.52     0.106 C 
HETATM   19  O24 MIQ B 502      29.663  -8.891 -11.757  1.00146.13    -0.273 OA
HETATM   20  C23 MIQ B 502      27.046 -10.898 -12.425  1.00139.15     0.045 C 
ENDBRANCH  10  12
BRANCH   5  21
HETATM   21  N6  MIQ B 502      21.267  -9.931 -18.072  1.00140.95    -0.377 N 
HETATM   22  C7  MIQ B 502      21.425  -8.587 -18.600  1.00142.12     0.149 C 
HETATM   23  C8  MIQ B 502      20.354  -8.251 -19.630  1.00144.10     0.187 C 
HETATM   24  O9  MIQ B 502      20.187  -9.253 -20.588  1.00148.65    -0.388 OA
HETATM   25  C10 MIQ B 502      20.799 -10.498 -20.423  1.00147.44     0.187 C 
HETATM   26  C11 MIQ B 502      21.027 -11.017 -19.006  1.00144.08     0.149 C 
ENDBRANCH   5  21
TORSDOF 2
ENDMDL
MODEL 3
REMARK VINA RESULT:      -6.1     22.649     25.249
REMARK  2 active torsions:
REMARK  status: ('A' for Active; 'I' for Inactive)
REMARK    1  A    between atoms: C5_5  and  N6_21 
REMARK    2  A    between atoms: C18_14  and  N17_19 
ROOT
HETATM    1  O1  MIQ B 502      22.579  -8.894 -15.983  1.00142.91    -0.171 OA
HETATM    2  C2  MIQ B 502      21.978  -9.538 -17.066  1.00141.17     0.195 A 
HETATM    3  C3  MIQ B 502      21.505  -8.864 -18.393  1.00141.71     0.035 A 
HETATM    4  C4  MIQ B 502      21.534  -7.469 -18.894  1.00142.86     0.046 A 
HETATM    5  C5  MIQ B 502      21.016  -7.157 -20.177  1.00139.53     0.031 A 
HETATM    6  C12 MIQ B 502      20.454  -8.214 -21.005  1.00139.38     0.030 A 
HETATM    7  C13 MIQ B 502      20.426  -9.551 -20.526  1.00141.18     0.019 A 
HETATM    8  C14 MIQ B 502      20.974  -9.873 -19.179  1.00138.77     0.033 A 
HETATM    9  C15 MIQ B 502      21.119 -11.182 -18.336  1.00142.10     0.195 A 
HETATM   10  N17 MIQ B 502      21.694 -10.822 -17.200  1.00139.42    -0.288 N 
HETATM   11  O16 MIQ B 502      20.718 -12.466 -18.710  1.00148.93    -0.171 OA
ENDROOT
BRANCH  10  12
HETATM   12  C18 MIQ B 502      21.973 -11.788 -16.154  1.00139.82     0.187 C 
HETATM   13  C19 MIQ B 502      21.298 -11.294 -14.869  1.00140.06     0.247 C 
HETATM   14  O25 MIQ B 502      20.157 -10.994 -14.897  1.00143.95    -0.271 OA
HETATM   15  N20 MIQ B 502      22.020 -11.192 -13.617  1.00140.02    -0.296 N 
HETATM   16  H13 MIQ B 502      21.569 -10.863 -12.787  1.00142.77     0.171 HD
HETATM   17  C21 MIQ B 502      23.413 -11.556 -13.611  1.00142.22     0.224 C 
HETATM   18  C22 MIQ B 502      24.198 -11.266 -14.876  1.00139.52     0.106 C 
HETATM   19  O24 MIQ B 502      23.916 -12.059 -12.667  1.00146.13    -0.273 OA
HETATM   20  C23 MIQ B 502      23.481 -11.986 -16.003  1.00139.15     0.045 C 
ENDBRANCH  10  12
BRANCH   5  21
HETATM   21  N6  MIQ B 502      21.038  -5.785 -20.649  1.00140.95    -0.377 N 
HETATM   22  C7  MIQ B 502      19.939  -5.318 -21.477  1.00142.12     0.149 C 
HETATM   23  C8  MIQ B 502      20.363  -4.178 -22.394  1.00144.10     0.187 C 
HETATM   24  O9  MIQ B 502      21.074  -3.178 -21.726  1.00148.65    -0.388 OA
HETATM   25  C10 MIQ B 502      21.517  -3.380 -20.416  1.00147.44     0.187 C 
HETATM   26  C11 MIQ B 502      21.861  -4.798 -19.973  1.00144.08     0.149 C 
ENDBRANCH   5  21
TORSDOF 2
ENDMDL
MODEL 4
REMARK VINA RESULT:      -6.0     24.150     25.983
REMARK  2 active torsions:
REMARK  status: ('A' for Active; 'I' for Inactive)
REMARK    1  A    between atoms: C5_5  and  N6_21 
REMARK    2  A    between atoms: C18_14  and  N17_19 
ROOT
HETATM    1  O1  MIQ B 502      22.449 -12.496 -15.997  1.00142.91    -0.171 OA
HETATM    2  C2  MIQ B 502      22.274 -11.314 -16.720  1.00141.17     0.195 A 
HETATM    3  C3  MIQ B 502      21.548 -11.174 -18.096  1.00141.71     0.035 A 
HETATM    4  C4  MIQ B 502      20.873 -12.140 -18.995  1.00142.86     0.046 A 
HETATM    5  C5  MIQ B 502      20.289 -11.701 -20.210  1.00139.53     0.031 A 
HETATM    6  C12 MIQ B 502      20.354 -10.293 -20.575  1.00139.38     0.030 A 
HETATM    7  C13 MIQ B 502      21.000  -9.366 -19.713  1.00141.18     0.019 A 
HETATM    8  C14 MIQ B 502      21.609  -9.833 -18.437  1.00138.77     0.033 A 
HETATM    9  C15 MIQ B 502      22.377  -9.136 -17.267  1.00142.10     0.195 A 
HETATM   10  N17 MIQ B 502      22.670 -10.093 -16.402  1.00139.42    -0.288 N 
HETATM   11  O16 MIQ B 502      22.689  -7.780 -17.162  1.00148.93    -0.171 OA
ENDROOT
BRANCH  10  12
HETATM   12  C18 MIQ B 502      23.405  -9.813 -15.183  1.00139.82     0.187 C 
HETATM   13  C19 MIQ B 502      24.659 -10.696 -15.179  1.00140.06     0.247 C 
HETATM   14  O25 MIQ B 502      25.362 -10.702 -16.126  1.00143.95    -0.271 OA
HETATM   15  N20 MIQ B 502      25.008 -11.522 -14.041  1.00140.02    -0.296 N 
HETATM   16  H13 MIQ B 502      25.826 -12.099 -14.054  1.00142.77     0.171 HD
HETATM   17  C21 MIQ B 502      24.128 -11.506 -12.901  1.00142.22     0.224 C 
HETATM   18  C22 MIQ B 502      22.649 -11.328 -13.184  1.00139.52     0.106 C 
HETATM   19  O24 MIQ B 502      24.541 -11.622 -11.800  1.00146.13    -0.273 OA
HETATM   20  C23 MIQ B 502      22.512 -10.031 -13.962  1.00139.15     0.045 C 
ENDBRANCH  10  12
BRANCH   5  21
HETATM   21  N6  MIQ B 502      19.644 -12.660 -21.088  1.00140.95    -0.377 N 
HETATM   22  C7  MIQ B 502      19.605 -12.381 -22.513  1.00142.12     0.149 C 
HETATM   23  C8  MIQ B 502      18.419 -13.053 -23.192  1.00144.10     0.187 C 
HETATM   24  O9  MIQ B 502      18.285 -14.399 -22.844  1.00148.65    -0.388 OA
HETATM   25  C10 MIQ B 502      19.044 -14.939 -21.802  1.00147.44     0.187 C 
HETATM   26  C11 MIQ B 502      19.449 -14.030 -20.647  1.00144.08     0.149 C 
ENDBRANCH   5  21
TORSDOF 2
ENDMDL
MODEL 5
REMARK VINA RESULT:      -6.0     23.423     25.208
REMARK  2 active torsions:
REMARK  status: ('A' for Active; 'I' for Inactive)
REMARK    1  A    between atoms: C5_5  and  N6_21 
REMARK    2  A    between atoms: C18_14  and  N17_19 
ROOT
HETATM    1  O1  MIQ B 502      23.433 -13.533 -15.857  1.00142.91    -0.171 OA
HETATM    2  C2  MIQ B 502      23.208 -12.170 -16.063  1.00141.17     0.195 A 
HETATM    3  C3  MIQ B 502      22.383 -11.537 -17.228  1.00141.71     0.035 A 
HETATM    4  C4  MIQ B 502      21.640 -12.107 -18.378  1.00142.86     0.046 A 
HETATM    5  C5  MIQ B 502      20.970 -11.254 -19.291  1.00139.53     0.031 A 
HETATM    6  C12 MIQ B 502      21.012  -9.812 -19.098  1.00139.38     0.030 A 
HETATM    7  C13 MIQ B 502      21.723  -9.266 -17.995  1.00141.18     0.019 A 
HETATM    8  C14 MIQ B 502      22.423 -10.165 -17.038  1.00138.77     0.033 A 
HETATM    9  C15 MIQ B 502      23.277  -9.946 -15.747  1.00142.10     0.195 A 
HETATM   10  N17 MIQ B 502      23.630 -11.152 -15.333  1.00139.42    -0.288 N 
HETATM   11  O16 MIQ B 502      23.600  -8.723 -15.157  1.00148.93    -0.171 OA
ENDROOT
BRANCH  10  12
HETATM   12  C18 MIQ B 502      24.454 -11.336 -14.153  1.00139.82     0.187 C 
HETATM   13  C19 MIQ B 502      23.733 -10.676 -12.972  1.00140.06     0.247 C 
HETATM   14  O25 MIQ B 502      22.602 -10.943 -12.765  1.00143.95    -0.271 OA
HETATM   15  N20 MIQ B 502      24.404  -9.738 -12.095  1.00140.02    -0.296 N 
HETATM   16  H13 MIQ B 502      23.920  -9.309 -11.331  1.00142.77     0.171 HD
HETATM   17  C21 MIQ B 502      25.781  -9.421 -12.374  1.00142.22     0.224 C 
HETATM   18  C22 MIQ B 502      26.195  -9.406 -13.833  1.00139.52     0.106 C 
HETATM   19  O24 MIQ B 502      26.549  -9.189 -11.506  1.00146.13    -0.273 OA
HETATM   20  C23 MIQ B 502      25.856 -10.777 -14.391  1.00139.15     0.045 C 
ENDBRANCH  10  12
BRANCH   5  21
HETATM   21  N6  MIQ B 502      20.259 -11.825 -20.421  1.00140.95    -0.377 N 
HETATM   22  C7  MIQ B 502      20.620 -11.392 -21.759  1.00142.12     0.149 C 
HETATM   23  C8  MIQ B 502      19.458 -11.530 -22.735  1.00144.10     0.187 C 
HETATM   24  O9  MIQ B 502      18.830 -12.775 -22.659  1.00148.65    -0.388 OA
HETATM   25  C10 MIQ B 502      19.133 -13.658 -21.620  1.00147.44     0.187 C 
HETATM   26  C11 MIQ B 502      19.547 -13.082 -20.270  1.00144.08     0.149 C 
ENDBRANCH   5  21
TORSDOF 2
ENDMDL
MODEL 6
REMARK VINA RESULT:      -6.0     23.722     26.165
REMARK  2 active torsions:
REMARK  status: ('A' for Active; 'I' for Inactive)
REMARK    1  A    between atoms: C5_5  and  N6_21 
REMARK    2  A    between atoms: C18_14  and  N17_19 
ROOT
HETATM    1  O1  MIQ B 502      20.570 -12.603 -18.813  1.00142.91    -0.171 OA
HETATM    2  C2  MIQ B 502      21.037 -11.339 -18.447  1.00141.17     0.195 A 
HETATM    3  C3  MIQ B 502      21.029 -10.059 -19.342  1.00141.71     0.035 A 
HETATM    4  C4  MIQ B 502      20.571  -9.785 -20.725  1.00142.86     0.046 A 
HETATM    5  C5  MIQ B 502      20.697  -8.485 -21.278  1.00139.53     0.031 A 
HETATM    6  C12 MIQ B 502      21.279  -7.415 -20.481  1.00139.38     0.030 A 
HETATM    7  C13 MIQ B 502      21.717  -7.677 -19.155  1.00141.18     0.019 A 
HETATM    8  C14 MIQ B 502      21.580  -9.042 -18.579  1.00138.77     0.033 A 
HETATM    9  C15 MIQ B 502      21.931  -9.695 -17.203  1.00142.10     0.195 A 
HETATM   10  N17 MIQ B 502      21.566 -10.963 -17.296  1.00139.42    -0.288 N 
HETATM   11  O16 MIQ B 502      22.515  -9.064 -16.103  1.00148.93    -0.171 OA
ENDROOT
BRANCH  10  12
HETATM   12  C18 MIQ B 502      21.759 -11.890 -16.196  1.00139.82     0.187 C 
HETATM   13  C19 MIQ B 502      21.094 -11.285 -14.953  1.00140.06     0.247 C 
HETATM   14  O25 MIQ B 502      19.978 -10.910 -15.022  1.00143.95    -0.271 OA
HETATM   15  N20 MIQ B 502      21.797 -11.167 -13.692  1.00140.02    -0.296 N 
HETATM   16  H13 MIQ B 502      21.354 -10.765 -12.890  1.00142.77     0.171 HD
HETATM   17  C21 MIQ B 502      23.162 -11.622 -13.636  1.00142.22     0.224 C 
HETATM   18  C22 MIQ B 502      23.990 -11.453 -14.895  1.00139.52     0.106 C 
HETATM   19  O24 MIQ B 502      23.612 -12.109 -12.657  1.00146.13    -0.273 OA
HETATM   20  C23 MIQ B 502      23.246 -12.181 -16.001  1.00139.15     0.045 C 
ENDBRANCH  10  12
BRANCH   5  21
HETATM   21  N6  MIQ B 502      20.258  -8.235 -22.638  1.00140.95    -0.377 N 
HETATM   22  C7  MIQ B 502      18.875  -8.515 -22.985  1.00142.12     0.149 C 
HETATM   23  C8  MIQ B 502      18.713  -8.833 -24.466  1.00144.10     0.187 C 
HETATM   24  O9  MIQ B 502      19.361  -7.913 -25.293  1.00148.65    -0.388 OA
HETATM   25  C10 MIQ B 502      20.238  -6.970 -24.752  1.00147.44     0.187 C 
HETATM   26  C11 MIQ B 502      21.015  -7.335 -23.491  1.00144.08     0.149 C 
ENDBRANCH   5  21
TORSDOF 2
ENDMDL
MODEL 7
REMARK VINA RESULT:      -6.0     12.907     17.075
REMARK  2 active torsions:
REMARK  status: ('A' for Active; 'I' for Inactive)
REMARK    1  A    between atoms: C5_5  and  N6_21 
REMARK    2  A    between atoms: C18_14  and  N17_19 
ROOT
HETATM    1  O1  MIQ B 502      20.013   4.529 -12.766  1.00142.91    -0.171 OA
HETATM    2  C2  MIQ B 502      19.325   3.316 -12.696  1.00141.17     0.195 A 
HETATM    3  C3  MIQ B 502      18.947   2.399 -13.903  1.00141.71     0.035 A 
HETATM    4  C4  MIQ B 502      19.170   2.496 -15.365  1.00142.86     0.046 A 
HETATM    5  C5  MIQ B 502      18.697   1.477 -16.231  1.00139.53     0.031 A 
HETATM    6  C12 MIQ B 502      17.990   0.331 -15.680  1.00139.38     0.030 A 
HETATM    7  C13 MIQ B 502      17.777   0.237 -14.278  1.00141.18     0.019 A 
HETATM    8  C14 MIQ B 502      18.277   1.308 -13.374  1.00138.77     0.033 A 
HETATM    9  C15 MIQ B 502      18.240   1.549 -11.829  1.00142.10     0.195 A 
HETATM   10  N17 MIQ B 502      18.862   2.697 -11.623  1.00139.42    -0.288 N 
HETATM   11  O16 MIQ B 502      17.662   0.718 -10.867  1.00148.93    -0.171 OA
ENDROOT
BRANCH  10  12
HETATM   12  C18 MIQ B 502      19.007   3.252 -10.290  1.00139.82     0.187 C 
HETATM   13  C19 MIQ B 502      18.539   4.712 -10.338  1.00140.06     0.247 C 
HETATM   14  O25 MIQ B 502      17.486   4.964 -10.808  1.00143.95    -0.271 OA
HETATM   15  N20 MIQ B 502      19.350   5.792  -9.816  1.00140.02    -0.296 N 
HETATM   16  H13 MIQ B 502      19.036   6.741  -9.859  1.00142.77     0.171 HD
HETATM   17  C21 MIQ B 502      20.635   5.460  -9.256  1.00142.22     0.224 C 
HETATM   18  C22 MIQ B 502      21.374   4.297  -9.890  1.00139.52     0.106 C 
HETATM   19  O24 MIQ B 502      21.087   6.063  -8.345  1.00146.13    -0.273 OA
HETATM   20  C23 MIQ B 502      20.447   3.099  -9.804  1.00139.15     0.045 C 
ENDBRANCH  10  12
BRANCH   5  21
HETATM   21  N6  MIQ B 502      18.910   1.592 -17.663  1.00140.95    -0.377 N 
HETATM   22  C7  MIQ B 502      19.316   2.878 -18.203  1.00142.12     0.149 C 
HETATM   23  C8  MIQ B 502      18.888   3.045 -19.656  1.00144.10     0.187 C 
HETATM   24  O9  MIQ B 502      19.203   1.938 -20.446  1.00148.65    -0.388 OA
HETATM   25  C10 MIQ B 502      19.646   0.751 -19.857  1.00147.44     0.187 C 
HETATM   26  C11 MIQ B 502      19.149   0.401 -18.459  1.00144.08     0.149 C 
ENDBRANCH   5  21
TORSDOF 2
ENDMDL
MODEL 8
REMARK VINA RESULT:      -6.0     27.654     28.942
REMARK  2 active torsions:
REMARK  status: ('A' for Active; 'I' for Inactive)
REMARK    1  A    between atoms: C5_5  and  N6_21 
REMARK    2  A    between atoms: C18_14  and  N17_19 
ROOT
HETATM    1  O1  MIQ B 502       7.657 -11.629 -22.507  1.00142.91    -0.171 OA
HETATM    2  C2  MIQ B 502       8.749 -11.017 -21.889  1.00141.17     0.195 A 
HETATM    3  C3  MIQ B 502       9.838 -11.729 -21.025  1.00141.71     0.035 A 
HETATM    4  C4  MIQ B 502      10.056 -13.138 -20.619  1.00142.86     0.046 A 
HETATM    5  C5  MIQ B 502      11.167 -13.487 -19.809  1.00139.53     0.031 A 
HETATM    6  C12 MIQ B 502      12.097 -12.455 -19.375  1.00139.38     0.030 A 
HETATM    7  C13 MIQ B 502      11.889 -11.105 -19.765  1.00141.18     0.019 A 
HETATM    8  C14 MIQ B 502      10.723 -10.744 -20.617  1.00138.77     0.033 A 
HETATM    9  C15 MIQ B 502      10.181  -9.413 -21.232  1.00142.10     0.195 A 
HETATM   10  N17 MIQ B 502       9.089  -9.740 -21.905  1.00139.42    -0.288 N 
HETATM   11  O16 MIQ B 502      10.737  -8.141 -21.093  1.00148.93    -0.171 OA
ENDROOT
BRANCH  10  12
HETATM   12  C18 MIQ B 502       8.303  -8.740 -22.603  1.00139.82     0.187 C 
HETATM   13  C19 MIQ B 502       9.259  -7.915 -23.472  1.00140.06     0.247 C 
HETATM   14  O25 MIQ B 502      10.005  -8.473 -24.196  1.00143.95    -0.271 OA
HETATM   15  N20 MIQ B 502       9.269  -6.467 -23.434  1.00140.02    -0.296 N 
HETATM   16  H13 MIQ B 502       9.903  -5.940 -24.002  1.00142.77     0.171 HD
HETATM   17  C21 MIQ B 502       8.357  -5.810 -22.534  1.00142.22     0.224 C 
HETATM   18  C22 MIQ B 502       8.052  -6.523 -21.232  1.00139.52     0.106 C 
HETATM   19  O24 MIQ B 502       7.867  -4.768 -22.803  1.00146.13    -0.273 OA
HETATM   20  C23 MIQ B 502       7.514  -7.892 -21.605  1.00139.15     0.045 C 
ENDBRANCH  10  12
BRANCH   5  21
HETATM   21  N6  MIQ B 502      11.360 -14.869 -19.407  1.00140.95    -0.377 N 
HETATM   22  C7  MIQ B 502      10.207 -15.752 -19.380  1.00142.12     0.149 C 
HETATM   23  C8  MIQ B 502      10.385 -16.889 -18.382  1.00144.10     0.187 C 
HETATM   24  O9  MIQ B 502      11.622 -17.526 -18.500  1.00148.65    -0.388 OA
HETATM   25  C10 MIQ B 502      12.627 -16.978 -19.302  1.00147.44     0.187 C 
HETATM   26  C11 MIQ B 502      12.684 -15.463 -19.466  1.00144.08     0.149 C 
ENDBRANCH   5  21
TORSDOF 2
ENDMDL
MODEL 9
REMARK VINA RESULT:      -6.0     22.801     26.050
REMARK  2 active torsions:
REMARK  status: ('A' for Active; 'I' for Inactive)
REMARK    1  A    between atoms: C5_5  and  N6_21 
REMARK    2  A    between atoms: C18_14  and  N17_19 
ROOT
HETATM    1  O1  MIQ B 502      16.527 -19.606  -0.074  1.00142.91    -0.171 OA
HETATM    2  C2  MIQ B 502      15.798 -20.658   0.483  1.00141.17     0.195 A 
HETATM    3  C3  MIQ B 502      14.677 -21.482  -0.227  1.00141.71     0.035 A 
HETATM    4  C4  MIQ B 502      14.079 -21.432  -1.582  1.00142.86     0.046 A 
HETATM    5  C5  MIQ B 502      13.049 -22.336  -1.945  1.00139.53     0.031 A 
HETATM    6  C12 MIQ B 502      12.578 -23.320  -0.980  1.00139.38     0.030 A 
HETATM    7  C13 MIQ B 502      13.152 -23.369   0.319  1.00141.18     0.019 A 
HETATM    8  C14 MIQ B 502      14.234 -22.418   0.693  1.00138.77     0.033 A 
HETATM    9  C15 MIQ B 502      15.086 -22.175   1.982  1.00142.10     0.195 A 
HETATM   10  N17 MIQ B 502      15.901 -21.173   1.697  1.00139.42    -0.288 N 
HETATM   11  O16 MIQ B 502      14.998 -22.875   3.186  1.00148.93    -0.171 OA
ENDROOT
BRANCH  10  12
HETATM   12  C18 MIQ B 502      16.839 -20.657   2.677  1.00139.82     0.187 C 
HETATM   13  C19 MIQ B 502      16.591 -19.150   2.815  1.00140.06     0.247 C 
HETATM   14  O25 MIQ B 502      15.493 -18.763   3.009  1.00143.95    -0.271 OA
HETATM   15  N20 MIQ B 502      17.668 -18.187   2.719  1.00140.02    -0.296 N 
HETATM   16  H13 MIQ B 502      17.491 -17.205   2.804  1.00142.77     0.171 HD
HETATM   17  C21 MIQ B 502      18.997 -18.683   2.470  1.00142.22     0.224 C 
HETATM   18  C22 MIQ B 502      19.110 -19.921   1.601  1.00139.52     0.106 C 
HETATM   19  O24 MIQ B 502      19.950 -18.154   2.927  1.00146.13    -0.273 OA
HETATM   20  C23 MIQ B 502      18.272 -20.996   2.270  1.00139.15     0.045 C 
ENDBRANCH  10  12
BRANCH   5  21
HETATM   21  N6  MIQ B 502      12.462 -22.266  -3.271  1.00140.95    -0.377 N 
HETATM   22  C7  MIQ B 502      11.837 -23.458  -3.818  1.00142.12     0.149 C 
HETATM   23  C8  MIQ B 502      11.858 -23.463  -5.341  1.00144.10     0.187 C 
HETATM   24  O9  MIQ B 502      11.427 -22.255  -5.894  1.00148.65    -0.388 OA
HETATM   25  C10 MIQ B 502      11.240 -21.132  -5.084  1.00147.44     0.187 C 
HETATM   26  C11 MIQ B 502      12.109 -20.977  -3.840  1.00144.08     0.149 C 
ENDBRANCH   5  21
TORSDOF 2
ENDMDL
