MODEL 1
REMARK VINA RESULT:      -6.1      0.000      0.000
REMARK  2 active torsions:
REMARK  status: ('A' for Active; 'I' for Inactive)
REMARK    1  A    between atoms: C5_5  and  N6_21 
REMARK    2  A    between atoms: C18_14  and  N17_19 
ROOT
HETATM    1  O1  MIQ B 502     -19.135   5.899 -12.221  1.00142.91    -0.171 OA
HETATM    2  C2  MIQ B 502     -19.847   7.036 -12.609  1.00141.17     0.195 A 
HETATM    3  C3  MIQ B 502     -21.010   7.085 -13.650  1.00141.71     0.035 A 
HETATM    4  C4  MIQ B 502     -21.677   6.056 -14.482  1.00142.86     0.046 A 
HETATM    5  C5  MIQ B 502     -22.734   6.416 -15.356  1.00139.53     0.031 A 
HETATM    6  C12 MIQ B 502     -23.166   7.804 -15.435  1.00139.38     0.030 A 
HETATM    7  C13 MIQ B 502     -22.528   8.791 -14.637  1.00141.18     0.019 A 
HETATM    8  C14 MIQ B 502     -21.420   8.407 -13.719  1.00138.77     0.033 A 
HETATM    9  C15 MIQ B 502     -20.507   9.182 -12.714  1.00142.10     0.195 A 
HETATM   10  N17 MIQ B 502     -19.698   8.280 -12.185  1.00139.42    -0.288 N 
HETATM   11  O16 MIQ B 502     -20.541  10.550 -12.438  1.00148.93    -0.171 OA
ENDROOT
BRANCH  10  12
HETATM   12  C18 MIQ B 502     -18.689   8.646 -11.208  1.00139.82     0.187 C 
HETATM   13  C19 MIQ B 502     -17.351   8.063 -11.677  1.00140.06     0.247 C 
HETATM   14  O25 MIQ B 502     -16.989   8.267 -12.781  1.00143.95    -0.271 OA
HETATM   15  N20 MIQ B 502     -16.513   7.273 -10.798  1.00140.02    -0.296 N 
HETATM   16  H13 MIQ B 502     -15.644   6.892 -11.118  1.00142.77     0.171 HD
HETATM   17  C21 MIQ B 502     -16.981   7.030  -9.458  1.00142.22     0.224 C 
HETATM   18  C22 MIQ B 502     -18.480   6.893  -9.275  1.00139.52     0.106 C 
HETATM   19  O24 MIQ B 502     -16.232   6.947  -8.548  1.00146.13    -0.273 OA
HETATM   20  C23 MIQ B 502     -19.099   8.169  -9.816  1.00139.15     0.045 C 
ENDBRANCH  10  12
BRANCH   5  21
HETATM   21  N6  MIQ B 502     -23.368   5.400 -16.176  1.00140.95    -0.377 N 
HETATM   22  C7  MIQ B 502     -24.283   5.823 -17.223  1.00142.12     0.149 C 
HETATM   23  C8  MIQ B 502     -25.317   4.751 -17.543  1.00144.10     0.187 C 
HETATM   24  O9  MIQ B 502     -24.752   3.487 -17.719  1.00148.65    -0.388 OA
HETATM   25  C10 MIQ B 502     -23.414   3.257 -17.390  1.00147.44     0.187 C 
HETATM   26  C11 MIQ B 502     -22.790   4.070 -16.261  1.00144.08     0.149 C 
ENDBRANCH   5  21
TORSDOF 2
ENDMDL
MODEL 2
REMARK VINA RESULT:      -6.0     17.831     21.046
REMARK  2 active torsions:
REMARK  status: ('A' for Active; 'I' for Inactive)
REMARK    1  A    between atoms: C5_5  and  N6_21 
REMARK    2  A    between atoms: C18_14  and  N17_19 
ROOT
HETATM    1  O1  MIQ B 502      -4.945  23.136 -12.910  1.00142.91    -0.171 OA
HETATM    2  C2  MIQ B 502      -5.104  21.780 -13.204  1.00141.17     0.195 A 
HETATM    3  C3  MIQ B 502      -6.388  20.926 -12.953  1.00141.71     0.035 A 
HETATM    4  C4  MIQ B 502      -7.722  21.235 -12.386  1.00142.86     0.046 A 
HETATM    5  C5  MIQ B 502      -8.710  20.222 -12.287  1.00139.53     0.031 A 
HETATM    6  C12 MIQ B 502      -8.411  18.873 -12.746  1.00139.38     0.030 A 
HETATM    7  C13 MIQ B 502      -7.132  18.578 -13.290  1.00141.18     0.019 A 
HETATM    8  C14 MIQ B 502      -6.100  19.645 -13.394  1.00138.77     0.033 A 
HETATM    9  C15 MIQ B 502      -4.629  19.704 -13.922  1.00142.10     0.195 A 
HETATM   10  N17 MIQ B 502      -4.228  20.952 -13.746  1.00139.42    -0.288 N 
HETATM   11  O16 MIQ B 502      -3.893  18.649 -14.464  1.00148.93    -0.171 OA
ENDROOT
BRANCH  10  12
HETATM   12  C18 MIQ B 502      -2.889  21.376 -14.113  1.00139.82     0.187 C 
HETATM   13  C19 MIQ B 502      -2.230  21.976 -12.865  1.00140.06     0.247 C 
HETATM   14  O25 MIQ B 502      -2.237  21.361 -11.858  1.00143.95    -0.271 OA
HETATM   15  N20 MIQ B 502      -1.593  23.277 -12.888  1.00140.02    -0.296 N 
HETATM   16  H13 MIQ B 502      -1.172  23.660 -12.065  1.00142.77     0.171 HD
HETATM   17  C21 MIQ B 502      -1.607  24.013 -14.126  1.00142.22     0.224 C 
HETATM   18  C22 MIQ B 502      -2.826  23.836 -15.010  1.00139.52     0.106 C 
HETATM   19  O24 MIQ B 502      -0.709  24.715 -14.437  1.00146.13    -0.273 OA
HETATM   20  C23 MIQ B 502      -2.943  22.349 -15.290  1.00139.15     0.045 C 
ENDBRANCH  10  12
BRANCH   5  21
HETATM   21  N6  MIQ B 502     -10.007  20.535 -11.716  1.00140.95    -0.377 N 
HETATM   22  C7  MIQ B 502     -10.058  21.132 -10.392  1.00142.12     0.149 C 
HETATM   23  C8  MIQ B 502     -11.365  20.817  -9.676  1.00144.10     0.187 C 
HETATM   24  O9  MIQ B 502     -12.489  21.039 -10.475  1.00148.65    -0.388 OA
HETATM   25  C10 MIQ B 502     -12.347  21.292 -11.841  1.00147.44     0.187 C 
HETATM   26  C11 MIQ B 502     -11.167  20.671 -12.580  1.00144.08     0.149 C 
ENDBRANCH   5  21
TORSDOF 2
ENDMDL
MODEL 3
REMARK VINA RESULT:      -6.0     24.892     26.819
REMARK  2 active torsions:
REMARK  status: ('A' for Active; 'I' for Inactive)
REMARK    1  A    between atoms: C5_5  and  N6_21 
REMARK    2  A    between atoms: C18_14  and  N17_19 
ROOT
HETATM    1  O1  MIQ B 502       5.349  13.361 -17.071  1.00142.91    -0.171 OA
HETATM    2  C2  MIQ B 502       4.910  14.668 -17.291  1.00141.17     0.195 A 
HETATM    3  C3  MIQ B 502       4.073  15.167 -18.512  1.00141.71     0.035 A 
HETATM    4  C4  MIQ B 502       3.520  14.495 -19.712  1.00142.86     0.046 A 
HETATM    5  C5  MIQ B 502       2.780  15.232 -20.670  1.00139.53     0.031 A 
HETATM    6  C12 MIQ B 502       2.562  16.658 -20.472  1.00139.38     0.030 A 
HETATM    7  C13 MIQ B 502       3.090  17.303 -19.322  1.00141.18     0.019 A 
HETATM    8  C14 MIQ B 502       3.864  16.523 -18.318  1.00138.77     0.033 A 
HETATM    9  C15 MIQ B 502       4.576  16.868 -16.969  1.00142.10     0.195 A 
HETATM   10  N17 MIQ B 502       5.100  15.734 -16.532  1.00139.42    -0.288 N 
HETATM   11  O16 MIQ B 502       4.644  18.120 -16.357  1.00148.93    -0.171 OA
ENDROOT
BRANCH  10  12
HETATM   12  C18 MIQ B 502       5.858  15.677 -15.297  1.00139.82     0.187 C 
HETATM   13  C19 MIQ B 502       4.974  16.240 -14.178  1.00140.06     0.247 C 
HETATM   14  O25 MIQ B 502       3.879  15.821 -14.043  1.00143.95    -0.271 OA
HETATM   15  N20 MIQ B 502       5.446  17.271 -13.277  1.00140.02    -0.296 N 
HETATM   16  H13 MIQ B 502       4.856  17.636 -12.555  1.00142.77     0.171 HD
HETATM   17  C21 MIQ B 502       6.782  17.775 -13.469  1.00142.22     0.224 C 
HETATM   18  C22 MIQ B 502       7.289  17.833 -14.897  1.00139.52     0.106 C 
HETATM   19  O24 MIQ B 502       7.449  18.119 -12.557  1.00146.13    -0.273 OA
HETATM   20  C23 MIQ B 502       7.182  16.424 -15.451  1.00139.15     0.045 C 
ENDBRANCH  10  12
BRANCH   5  21
HETATM   21  N6  MIQ B 502       2.258  14.564 -21.848  1.00140.95    -0.377 N 
HETATM   22  C7  MIQ B 502       1.167  15.190 -22.575  1.00142.12     0.149 C 
HETATM   23  C8  MIQ B 502       0.321  14.167 -23.323  1.00144.10     0.187 C 
HETATM   24  O9  MIQ B 502       1.089  13.263 -24.060  1.00148.65    -0.388 OA
HETATM   25  C10 MIQ B 502       2.475  13.211 -23.895  1.00147.44     0.187 C 
HETATM   26  C11 MIQ B 502       3.061  13.566 -22.532  1.00144.08     0.149 C 
ENDBRANCH   5  21
TORSDOF 2
ENDMDL
MODEL 4
REMARK VINA RESULT:      -6.0     24.978     26.898
REMARK  2 active torsions:
REMARK  status: ('A' for Active; 'I' for Inactive)
REMARK    1  A    between atoms: C5_5  and  N6_21 
REMARK    2  A    between atoms: C18_14  and  N17_19 
ROOT
HETATM    1  O1  MIQ B 502       1.699  13.951 -22.950  1.00142.91    -0.171 OA
HETATM    2  C2  MIQ B 502       1.964  15.290 -22.655  1.00141.17     0.195 A 
HETATM    3  C3  MIQ B 502       2.404  15.859 -21.268  1.00141.71     0.035 A 
HETATM    4  C4  MIQ B 502       2.663  15.239 -19.947  1.00142.86     0.046 A 
HETATM    5  C5  MIQ B 502       3.062  16.037 -18.846  1.00139.53     0.031 A 
HETATM    6  C12 MIQ B 502       3.219  17.475 -19.015  1.00139.38     0.030 A 
HETATM    7  C13 MIQ B 502       2.972  18.070 -20.282  1.00141.18     0.019 A 
HETATM    8  C14 MIQ B 502       2.555  17.226 -21.435  1.00138.77     0.033 A 
HETATM    9  C15 MIQ B 502       2.208  17.507 -22.933  1.00142.10     0.195 A 
HETATM   10  N17 MIQ B 502       1.907  16.333 -23.464  1.00139.42    -0.288 N 
HETATM   11  O16 MIQ B 502       2.214  18.747 -23.575  1.00148.93    -0.171 OA
ENDROOT
BRANCH  10  12
HETATM   12  C18 MIQ B 502       1.514  16.210 -24.856  1.00139.82     0.187 C 
HETATM   13  C19 MIQ B 502       0.167  15.477 -24.898  1.00140.06     0.247 C 
HETATM   14  O25 MIQ B 502      -0.720  15.863 -24.223  1.00143.95    -0.271 OA
HETATM   15  N20 MIQ B 502      -0.050  14.326 -25.751  1.00140.02    -0.296 N 
HETATM   16  H13 MIQ B 502      -0.932  13.853 -25.764  1.00142.77     0.171 HD
HETATM   17  C21 MIQ B 502       1.051  13.868 -26.558  1.00142.22     0.224 C 
HETATM   18  C22 MIQ B 502       2.440  14.029 -25.971  1.00139.52     0.106 C 
HETATM   19  O24 MIQ B 502       0.879  13.396 -27.628  1.00146.13    -0.273 OA
HETATM   20  C23 MIQ B 502       2.607  15.505 -25.657  1.00139.15     0.045 C 
ENDBRANCH  10  12
BRANCH   5  21
HETATM   21  N6  MIQ B 502       3.298  15.418 -17.554  1.00140.95    -0.377 N 
HETATM   22  C7  MIQ B 502       3.767  14.044 -17.518  1.00142.12     0.149 C 
HETATM   23  C8  MIQ B 502       3.364  13.339 -16.229  1.00144.10     0.187 C 
HETATM   24  O9  MIQ B 502       3.641  14.095 -15.088  1.00148.65    -0.388 OA
HETATM   25  C10 MIQ B 502       4.025  15.433 -15.201  1.00147.44     0.187 C 
HETATM   26  C11 MIQ B 502       3.495  16.247 -16.378  1.00144.08     0.149 C 
ENDBRANCH   5  21
TORSDOF 2
ENDMDL
MODEL 5
REMARK VINA RESULT:      -5.9     16.164     17.546
REMARK  2 active torsions:
REMARK  status: ('A' for Active; 'I' for Inactive)
REMARK    1  A    between atoms: C5_5  and  N6_21 
REMARK    2  A    between atoms: C18_14  and  N17_19 
ROOT
HETATM    1  O1  MIQ B 502      -8.756  21.454 -13.854  1.00142.91    -0.171 OA
HETATM    2  C2  MIQ B 502     -10.008  21.210 -13.285  1.00141.17     0.195 A 
HETATM    3  C3  MIQ B 502     -11.377  21.199 -14.037  1.00141.71     0.035 A 
HETATM    4  C4  MIQ B 502     -11.764  21.416 -15.451  1.00142.86     0.046 A 
HETATM    5  C5  MIQ B 502     -13.125  21.338 -15.841  1.00139.53     0.031 A 
HETATM    6  C12 MIQ B 502     -14.146  21.042 -14.846  1.00139.38     0.030 A 
HETATM    7  C13 MIQ B 502     -13.775  20.833 -13.491  1.00141.18     0.019 A 
HETATM    8  C14 MIQ B 502     -12.344  20.914 -13.087  1.00138.77     0.033 A 
HETATM    9  C15 MIQ B 502     -11.572  20.747 -11.738  1.00142.10     0.195 A 
HETATM   10  N17 MIQ B 502     -10.294  20.939 -12.023  1.00139.42    -0.288 N 
HETATM   11  O16 MIQ B 502     -12.124  20.456 -10.490  1.00148.93    -0.171 OA
ENDROOT
BRANCH  10  12
HETATM   12  C18 MIQ B 502      -9.271  20.875 -10.996  1.00139.82     0.187 C 
HETATM   13  C19 MIQ B 502      -8.462  22.175 -11.060  1.00140.06     0.247 C 
HETATM   14  O25 MIQ B 502      -9.030  23.209 -11.051  1.00143.95    -0.271 OA
HETATM   15  N20 MIQ B 502      -7.015  22.172 -11.125  1.00140.02    -0.296 N 
HETATM   16  H13 MIQ B 502      -6.498  23.028 -11.174  1.00142.77     0.171 HD
HETATM   17  C21 MIQ B 502      -6.344  20.898 -11.146  1.00142.22     0.224 C 
HETATM   18  C22 MIQ B 502      -7.060  19.761 -11.849  1.00139.52     0.106 C 
HETATM   19  O24 MIQ B 502      -5.289  20.746 -10.634  1.00146.13    -0.273 OA
HETATM   20  C23 MIQ B 502      -8.414  19.623 -11.176  1.00139.15     0.045 C 
ENDBRANCH  10  12
BRANCH   5  21
HETATM   21  N6  MIQ B 502     -13.492  21.568 -17.226  1.00140.95    -0.377 N 
HETATM   22  C7  MIQ B 502     -14.472  22.598 -17.524  1.00142.12     0.149 C 
HETATM   23  C8  MIQ B 502     -15.218  22.316 -18.821  1.00144.10     0.187 C 
HETATM   24  O9  MIQ B 502     -14.367  21.979 -19.876  1.00148.65    -0.388 OA
HETATM   25  C10 MIQ B 502     -13.015  21.717 -19.638  1.00147.44     0.187 C 
HETATM   26  C11 MIQ B 502     -12.613  21.121 -18.293  1.00144.08     0.149 C 
ENDBRANCH   5  21
TORSDOF 2
ENDMDL
MODEL 6
REMARK VINA RESULT:      -5.9     22.860     25.293
REMARK  2 active torsions:
REMARK  status: ('A' for Active; 'I' for Inactive)
REMARK    1  A    between atoms: C5_5  and  N6_21 
REMARK    2  A    between atoms: C18_14  and  N17_19 
ROOT
HETATM    1  O1  MIQ B 502       0.463   2.741 -26.175  1.00142.91    -0.171 OA
HETATM    2  C2  MIQ B 502      -0.138   2.390 -24.965  1.00141.17     0.195 A 
HETATM    3  C3  MIQ B 502       0.447   1.417 -23.892  1.00141.71     0.035 A 
HETATM    4  C4  MIQ B 502       1.699   0.628 -23.806  1.00142.86     0.046 A 
HETATM    5  C5  MIQ B 502       1.957  -0.185 -22.674  1.00139.53     0.031 A 
HETATM    6  C12 MIQ B 502       0.987  -0.245 -21.591  1.00139.38     0.030 A 
HETATM    7  C13 MIQ B 502      -0.213   0.512 -21.672  1.00141.18     0.019 A 
HETATM    8  C14 MIQ B 502      -0.478   1.366 -22.862  1.00138.77     0.033 A 
HETATM    9  C15 MIQ B 502      -1.643   2.314 -23.297  1.00142.10     0.195 A 
HETATM   10  N17 MIQ B 502      -1.297   2.800 -24.478  1.00139.42    -0.288 N 
HETATM   11  O16 MIQ B 502      -2.811   2.586 -22.582  1.00148.93    -0.171 OA
ENDROOT
BRANCH  10  12
HETATM   12  C18 MIQ B 502      -2.159   3.716 -25.202  1.00139.82     0.187 C 
HETATM   13  C19 MIQ B 502      -2.408   3.122 -26.594  1.00140.06     0.247 C 
HETATM   14  O25 MIQ B 502      -2.776   2.005 -26.686  1.00143.95    -0.271 OA
HETATM   15  N20 MIQ B 502      -2.209   3.896 -27.801  1.00140.02    -0.296 N 
HETATM   16  H13 MIQ B 502      -2.369   3.495 -28.704  1.00142.77     0.171 HD
HETATM   17  C21 MIQ B 502      -1.749   5.254 -27.664  1.00142.22     0.224 C 
HETATM   18  C22 MIQ B 502      -0.810   5.542 -26.508  1.00139.52     0.106 C 
HETATM   19  O24 MIQ B 502      -2.092   6.102 -28.412  1.00146.13    -0.273 OA
HETATM   20  C23 MIQ B 502      -1.535   5.110 -25.246  1.00139.15     0.045 C 
ENDBRANCH  10  12
BRANCH   5  21
HETATM   21  N6  MIQ B 502       3.181  -0.964 -22.610  1.00140.95    -0.377 N 
HETATM   22  C7  MIQ B 502       3.730  -1.287 -21.305  1.00142.12     0.149 C 
HETATM   23  C8  MIQ B 502       5.238  -1.501 -21.360  1.00144.10     0.187 C 
HETATM   24  O9  MIQ B 502       5.629  -2.347 -22.399  1.00148.65    -0.388 OA
HETATM   25  C10 MIQ B 502       4.715  -2.728 -23.384  1.00147.44     0.187 C 
HETATM   26  C11 MIQ B 502       3.593  -1.763 -23.751  1.00144.08     0.149 C 
ENDBRANCH   5  21
TORSDOF 2
ENDMDL
MODEL 7
REMARK VINA RESULT:      -5.9     25.036     29.081
REMARK  2 active torsions:
REMARK  status: ('A' for Active; 'I' for Inactive)
REMARK    1  A    between atoms: C5_5  and  N6_21 
REMARK    2  A    between atoms: C18_14  and  N17_19 
ROOT
HETATM    1  O1  MIQ B 502       3.782  16.724 -15.824  1.00142.91    -0.171 OA
HETATM    2  C2  MIQ B 502       4.895  16.748 -14.980  1.00141.17     0.195 A 
HETATM    3  C3  MIQ B 502       5.550  18.020 -14.354  1.00141.71     0.035 A 
HETATM    4  C4  MIQ B 502       5.244  19.468 -14.434  1.00142.86     0.046 A 
HETATM    5  C5  MIQ B 502       6.041  20.408 -13.734  1.00139.53     0.031 A 
HETATM    6  C12 MIQ B 502       7.166  19.948 -12.932  1.00139.38     0.030 A 
HETATM    7  C13 MIQ B 502       7.459  18.560 -12.855  1.00141.18     0.019 A 
HETATM    8  C14 MIQ B 502       6.617  17.576 -13.590  1.00138.77     0.033 A 
HETATM    9  C15 MIQ B 502       6.624  16.020 -13.742  1.00142.10     0.195 A 
HETATM   10  N17 MIQ B 502       5.609  15.727 -14.538  1.00139.42    -0.288 N 
HETATM   11  O16 MIQ B 502       7.522  15.127 -13.156  1.00148.93    -0.171 OA
ENDROOT
BRANCH  10  12
HETATM   12  C18 MIQ B 502       5.315  14.357 -14.917  1.00139.82     0.187 C 
HETATM   13  C19 MIQ B 502       5.289  14.292 -16.449  1.00140.06     0.247 C 
HETATM   14  O25 MIQ B 502       6.196  14.733 -17.060  1.00143.95    -0.271 OA
HETATM   15  N20 MIQ B 502       4.182  13.697 -17.169  1.00140.02    -0.296 N 
HETATM   16  H13 MIQ B 502       4.173  13.666 -18.170  1.00142.77     0.171 HD
HETATM   17  C21 MIQ B 502       3.081  13.174 -16.401  1.00142.22     0.224 C 
HETATM   18  C22 MIQ B 502       2.744  13.899 -15.113  1.00139.52     0.106 C 
HETATM   19  O24 MIQ B 502       2.475  12.225 -16.758  1.00146.13    -0.273 OA
HETATM   20  C23 MIQ B 502       4.009  13.896 -14.273  1.00139.15     0.045 C 
ENDBRANCH  10  12
BRANCH   5  21
HETATM   21  N6  MIQ B 502       5.739  21.825 -13.833  1.00140.95    -0.377 N 
HETATM   22  C7  MIQ B 502       6.811  22.741 -14.184  1.00142.12     0.149 C 
HETATM   23  C8  MIQ B 502       6.562  24.142 -13.642  1.00144.10     0.187 C 
HETATM   24  O9  MIQ B 502       5.271  24.605 -13.905  1.00148.65    -0.388 OA
HETATM   25  C10 MIQ B 502       4.296  23.737 -14.403  1.00147.44     0.187 C 
HETATM   26  C11 MIQ B 502       4.367  22.263 -14.020  1.00144.08     0.149 C 
ENDBRANCH   5  21
TORSDOF 2
ENDMDL
MODEL 8
REMARK VINA RESULT:      -5.8     25.297     27.141
REMARK  2 active torsions:
REMARK  status: ('A' for Active; 'I' for Inactive)
REMARK    1  A    between atoms: C5_5  and  N6_21 
REMARK    2  A    between atoms: C18_14  and  N17_19 
ROOT
HETATM    1  O1  MIQ B 502       3.738  12.117 -21.849  1.00142.91    -0.171 OA
HETATM    2  C2  MIQ B 502       3.232  13.418 -21.828  1.00141.17     0.195 A 
HETATM    3  C3  MIQ B 502       3.249  14.395 -20.610  1.00141.71     0.035 A 
HETATM    4  C4  MIQ B 502       3.755  14.283 -19.221  1.00142.86     0.046 A 
HETATM    5  C5  MIQ B 502       3.624  15.370 -18.321  1.00139.53     0.031 A 
HETATM    6  C12 MIQ B 502       2.990  16.604 -18.764  1.00139.38     0.030 A 
HETATM    7  C13 MIQ B 502       2.505  16.712 -20.096  1.00141.18     0.019 A 
HETATM    8  C14 MIQ B 502       2.648  15.568 -21.037  1.00138.77     0.033 A 
HETATM    9  C15 MIQ B 502       2.256  15.318 -22.530  1.00142.10     0.195 A 
HETATM   10  N17 MIQ B 502       2.650  14.086 -22.810  1.00139.42    -0.288 N 
HETATM   11  O16 MIQ B 502       1.616  16.214 -23.388  1.00148.93    -0.171 OA
ENDROOT
BRANCH  10  12
HETATM   12  C18 MIQ B 502       2.433  13.501 -24.120  1.00139.82     0.187 C 
HETATM   13  C19 MIQ B 502       2.983  14.478 -25.166  1.00140.06     0.247 C 
HETATM   14  O25 MIQ B 502       4.081  14.892 -25.045  1.00143.95    -0.271 OA
HETATM   15  N20 MIQ B 502       2.194  14.903 -26.304  1.00140.02    -0.296 N 
HETATM   16  H13 MIQ B 502       2.563  15.546 -26.976  1.00142.77     0.171 HD
HETATM   17  C21 MIQ B 502       0.853  14.391 -26.423  1.00142.22     0.224 C 
HETATM   18  C22 MIQ B 502       0.103  14.138 -25.130  1.00139.52     0.106 C 
HETATM   19  O24 MIQ B 502       0.366  14.175 -27.478  1.00146.13    -0.273 OA
HETATM   20  C23 MIQ B 502       0.953  13.177 -24.319  1.00139.15     0.045 C 
ENDBRANCH  10  12
BRANCH   5  21
HETATM   21  N6  MIQ B 502       4.111  15.242 -16.959  1.00140.95    -0.377 N 
HETATM   22  C7  MIQ B 502       3.228  15.617 -15.868  1.00142.12     0.149 C 
HETATM   23  C8  MIQ B 502       4.006  16.049 -14.631  1.00144.10     0.187 C 
HETATM   24  O9  MIQ B 502       5.028  15.159 -14.293  1.00148.65    -0.388 OA
HETATM   25  C10 MIQ B 502       5.393  14.135 -15.171  1.00147.44     0.187 C 
HETATM   26  C11 MIQ B 502       5.234  14.367 -16.670  1.00144.08     0.149 C 
ENDBRANCH   5  21
TORSDOF 2
ENDMDL
MODEL 9
REMARK VINA RESULT:      -5.8     25.199     27.097
REMARK  2 active torsions:
REMARK  status: ('A' for Active; 'I' for Inactive)
REMARK    1  A    between atoms: C5_5  and  N6_21 
REMARK    2  A    between atoms: C18_14  and  N17_19 
ROOT
HETATM    1  O1  MIQ B 502       3.101  12.962 -22.447  1.00142.91    -0.171 OA
HETATM    2  C2  MIQ B 502       2.815  14.314 -22.241  1.00141.17     0.195 A 
HETATM    3  C3  MIQ B 502       2.963  15.093 -20.895  1.00141.71     0.035 A 
HETATM    4  C4  MIQ B 502       3.409  14.704 -19.537  1.00142.86     0.046 A 
HETATM    5  C5  MIQ B 502       3.437  15.660 -18.490  1.00139.53     0.031 A 
HETATM    6  C12 MIQ B 502       3.025  17.032 -18.753  1.00139.38     0.030 A 
HETATM    7  C13 MIQ B 502       2.598  17.405 -20.056  1.00141.18     0.019 A 
HETATM    8  C14 MIQ B 502       2.573  16.397 -21.151  1.00138.77     0.033 A 
HETATM    9  C15 MIQ B 502       2.182  16.428 -22.665  1.00142.10     0.195 A 
HETATM   10  N17 MIQ B 502       2.375  15.201 -23.117  1.00139.42    -0.288 N 
HETATM   11  O16 MIQ B 502       1.720  17.531 -23.386  1.00148.93    -0.171 OA
ENDROOT
BRANCH  10  12
HETATM   12  C18 MIQ B 502       2.097  14.849 -24.497  1.00139.82     0.187 C 
HETATM   13  C19 MIQ B 502       1.193  13.610 -24.492  1.00140.06     0.247 C 
HETATM   14  O25 MIQ B 502       0.215  13.614 -23.832  1.00143.95    -0.271 OA
HETATM   15  N20 MIQ B 502       1.504  12.435 -25.279  1.00140.02    -0.296 N 
HETATM   16  H13 MIQ B 502       0.909  11.630 -25.261  1.00142.77     0.171 HD
HETATM   17  C21 MIQ B 502       2.709  12.450 -26.068  1.00142.22     0.224 C 
HETATM   18  C22 MIQ B 502       3.885  13.220 -25.499  1.00139.52     0.106 C 
HETATM   19  O24 MIQ B 502       2.773  11.895 -27.109  1.00146.13    -0.273 OA
HETATM   20  C23 MIQ B 502       3.400  14.639 -25.266  1.00139.15     0.045 C 
ENDBRANCH  10  12
BRANCH   5  21
HETATM   21  N6  MIQ B 502       3.863  15.262 -17.161  1.00140.95    -0.377 N 
HETATM   22  C7  MIQ B 502       2.996  15.563 -16.035  1.00142.12     0.149 C 
HETATM   23  C8  MIQ B 502       3.778  15.699 -14.735  1.00144.10     0.187 C 
HETATM   24  O9  MIQ B 502       4.680  14.653 -14.531  1.00148.65    -0.388 OA
HETATM   25  C10 MIQ B 502       4.953  13.744 -15.556  1.00147.44     0.187 C 
HETATM   26  C11 MIQ B 502       4.869  14.227 -17.001  1.00144.08     0.149 C 
ENDBRANCH   5  21
TORSDOF 2
ENDMDL
