MODEL 1
REMARK VINA RESULT:      -5.9      0.000      0.000
REMARK  2 active torsions:
REMARK  status: ('A' for Active; 'I' for Inactive)
REMARK    1  A    between atoms: C5_5  and  N6_21 
REMARK    2  A    between atoms: C18_14  and  N17_19 
ROOT
HETATM    1  O1  MIQ B 502      20.936   2.572 -11.826  1.00142.91    -0.171 OA
HETATM    2  C2  MIQ B 502      22.312   2.573 -12.065  1.00141.17     0.195 A 
HETATM    3  C3  MIQ B 502      23.249   1.323 -12.066  1.00141.71     0.035 A 
HETATM    4  C4  MIQ B 502      23.018  -0.124 -11.842  1.00142.86     0.046 A 
HETATM    5  C5  MIQ B 502      24.096  -1.041 -11.911  1.00139.53     0.031 A 
HETATM    6  C12 MIQ B 502      25.438  -0.558 -12.205  1.00139.38     0.030 A 
HETATM    7  C13 MIQ B 502      25.660   0.829 -12.421  1.00141.18     0.019 A 
HETATM    8  C14 MIQ B 502      24.523   1.787 -12.349  1.00138.77     0.033 A 
HETATM    9  C15 MIQ B 502      24.376   3.334 -12.526  1.00142.10     0.195 A 
HETATM   10  N17 MIQ B 502      23.094   3.602 -12.339  1.00139.42    -0.288 N 
HETATM   11  O16 MIQ B 502      25.395   4.242 -12.818  1.00148.93    -0.171 OA
ENDROOT
BRANCH  10  12
HETATM   12  C18 MIQ B 502      22.586   4.960 -12.412  1.00139.82     0.187 C 
HETATM   13  C19 MIQ B 502      21.829   5.247 -11.110  1.00140.06     0.247 C 
HETATM   14  O25 MIQ B 502      22.355   5.029 -10.077  1.00143.95    -0.271 OA
HETATM   15  N20 MIQ B 502      20.484   5.784 -11.112  1.00140.02    -0.296 N 
HETATM   16  H13 MIQ B 502      19.997   5.961 -10.255  1.00142.77     0.171 HD
HETATM   17  C21 MIQ B 502      19.858   6.032 -12.385  1.00142.22     0.224 C 
HETATM   18  C22 MIQ B 502      20.215   5.086 -13.515  1.00139.52     0.106 C 
HETATM   19  O24 MIQ B 502      19.108   6.933 -12.540  1.00146.13    -0.273 OA
HETATM   20  C23 MIQ B 502      21.725   5.138 -13.661  1.00139.15     0.045 C 
ENDBRANCH  10  12
BRANCH   5  21
HETATM   21  N6  MIQ B 502      23.858  -2.453 -11.675  1.00140.95    -0.377 N 
HETATM   22  C7  MIQ B 502      22.701  -3.076 -12.294  1.00142.12     0.149 C 
HETATM   23  C8  MIQ B 502      22.212  -4.282 -11.503  1.00144.10     0.187 C 
HETATM   24  O9  MIQ B 502      23.243  -5.156 -11.151  1.00148.65    -0.388 OA
HETATM   25  C10 MIQ B 502      24.578  -4.784 -11.331  1.00147.44     0.187 C 
HETATM   26  C11 MIQ B 502      24.944  -3.307 -11.226  1.00144.08     0.149 C 
ENDBRANCH   5  21
TORSDOF 2
ENDMDL
MODEL 2
REMARK VINA RESULT:      -5.9     20.759     21.871
REMARK  2 active torsions:
REMARK  status: ('A' for Active; 'I' for Inactive)
REMARK    1  A    between atoms: C5_5  and  N6_21 
REMARK    2  A    between atoms: C18_14  and  N17_19 
ROOT
HETATM    1  O1  MIQ B 502      20.464   6.737   8.219  1.00142.91    -0.171 OA
HETATM    2  C2  MIQ B 502      21.609   7.038   8.960  1.00141.17     0.195 A 
HETATM    3  C3  MIQ B 502      22.634   6.007   9.533  1.00141.71     0.035 A 
HETATM    4  C4  MIQ B 502      22.727   4.529   9.484  1.00142.86     0.046 A 
HETATM    5  C5  MIQ B 502      23.806   3.858  10.115  1.00139.53     0.031 A 
HETATM    6  C12 MIQ B 502      24.827   4.627  10.812  1.00139.38     0.030 A 
HETATM    7  C13 MIQ B 502      24.738   6.044  10.857  1.00141.18     0.019 A 
HETATM    8  C14 MIQ B 502      23.605   6.743  10.192  1.00138.77     0.033 A 
HETATM    9  C15 MIQ B 502      23.180   8.239  10.027  1.00142.10     0.195 A 
HETATM   10  N17 MIQ B 502      22.062   8.226   9.322  1.00139.42    -0.288 N 
HETATM   11  O16 MIQ B 502      23.849   9.358  10.528  1.00148.93    -0.171 OA
ENDROOT
BRANCH  10  12
HETATM   12  C18 MIQ B 502      21.364   9.453   8.985  1.00139.82     0.187 C 
HETATM   13  C19 MIQ B 502      19.893   9.279   9.383  1.00140.06     0.247 C 
HETATM   14  O25 MIQ B 502      19.630   8.907  10.471  1.00143.95    -0.271 OA
HETATM   15  N20 MIQ B 502      18.813   9.563   8.459  1.00140.02    -0.296 N 
HETATM   16  H13 MIQ B 502      17.857   9.439   8.729  1.00142.77     0.171 HD
HETATM   17  C21 MIQ B 502      19.159  10.005   7.133  1.00142.22     0.224 C 
HETATM   18  C22 MIQ B 502      20.434   9.440   6.537  1.00139.52     0.106 C 
HETATM   19  O24 MIQ B 502      18.484  10.775   6.543  1.00146.13    -0.273 OA
HETATM   20  C23 MIQ B 502      21.552   9.783   7.505  1.00139.15     0.045 C 
ENDBRANCH  10  12
BRANCH   5  21
HETATM   21  N6  MIQ B 502      23.877   2.409  10.072  1.00140.95    -0.377 N 
HETATM   22  C7  MIQ B 502      22.755   1.674   9.513  1.00142.12     0.149 C 
HETATM   23  C8  MIQ B 502      22.652   0.268  10.089  1.00144.10     0.187 C 
HETATM   24  O9  MIQ B 502      23.872  -0.412  10.084  1.00148.65    -0.388 OA
HETATM   25  C10 MIQ B 502      25.058   0.266   9.791  1.00147.44     0.187 C 
HETATM   26  C11 MIQ B 502      25.164   1.743  10.158  1.00144.08     0.149 C 
ENDBRANCH   5  21
TORSDOF 2
ENDMDL
MODEL 3
REMARK VINA RESULT:      -5.9     14.728     15.916
REMARK  2 active torsions:
REMARK  status: ('A' for Active; 'I' for Inactive)
REMARK    1  A    between atoms: C5_5  and  N6_21 
REMARK    2  A    between atoms: C18_14  and  N17_19 
ROOT
HETATM    1  O1  MIQ B 502      17.761  14.467  -7.257  1.00142.91    -0.171 OA
HETATM    2  C2  MIQ B 502      17.138  14.390  -6.009  1.00141.17     0.195 A 
HETATM    3  C3  MIQ B 502      17.832  14.046  -4.652  1.00141.71     0.035 A 
HETATM    4  C4  MIQ B 502      19.228  13.723  -4.275  1.00142.86     0.046 A 
HETATM    5  C5  MIQ B 502      19.560  13.449  -2.924  1.00139.53     0.031 A 
HETATM    6  C12 MIQ B 502      18.523  13.486  -1.903  1.00139.38     0.030 A 
HETATM    7  C13 MIQ B 502      17.184  13.796  -2.264  1.00141.18     0.019 A 
HETATM    8  C14 MIQ B 502      16.842  14.085  -3.684  1.00138.77     0.033 A 
HETATM    9  C15 MIQ B 502      15.527  14.457  -4.443  1.00142.10     0.195 A 
HETATM   10  N17 MIQ B 502      15.865  14.593  -5.715  1.00139.42    -0.288 N 
HETATM   11  O16 MIQ B 502      14.256  14.611  -3.887  1.00148.93    -0.171 OA
ENDROOT
BRANCH  10  12
HETATM   12  C18 MIQ B 502      14.882  14.925  -6.729  1.00139.82     0.187 C 
HETATM   13  C19 MIQ B 502      14.975  13.866  -7.835  1.00140.06     0.247 C 
HETATM   14  O25 MIQ B 502      14.938  12.724  -7.543  1.00143.95    -0.271 OA
HETATM   15  N20 MIQ B 502      15.102  14.230  -9.231  1.00140.02    -0.296 N 
HETATM   16  H13 MIQ B 502      15.168  13.529  -9.943  1.00142.77     0.171 HD
HETATM   17  C21 MIQ B 502      15.155  15.631  -9.561  1.00142.22     0.224 C 
HETATM   18  C22 MIQ B 502      15.833  16.542  -8.556  1.00139.52     0.106 C 
HETATM   19  O24 MIQ B 502      14.689  16.048 -10.564  1.00146.13    -0.273 OA
HETATM   20  C23 MIQ B 502      15.104  16.348  -7.239  1.00139.15     0.045 C 
ENDBRANCH  10  12
BRANCH   5  21
HETATM   21  N6  MIQ B 502      20.929  13.120  -2.571  1.00140.95    -0.377 N 
HETATM   22  C7  MIQ B 502      21.160  12.140  -1.523  1.00142.12     0.149 C 
HETATM   23  C8  MIQ B 502      22.498  12.355  -0.828  1.00144.10     0.187 C 
HETATM   24  O9  MIQ B 502      23.554  12.530  -1.724  1.00148.65    -0.388 OA
HETATM   25  C10 MIQ B 502      23.304  12.714  -3.086  1.00147.44     0.187 C 
HETATM   26  C11 MIQ B 502      22.007  13.401  -3.503  1.00144.08     0.149 C 
ENDBRANCH   5  21
TORSDOF 2
ENDMDL
MODEL 4
REMARK VINA RESULT:      -5.9     15.295     17.182
REMARK  2 active torsions:
REMARK  status: ('A' for Active; 'I' for Inactive)
REMARK    1  A    between atoms: C5_5  and  N6_21 
REMARK    2  A    between atoms: C18_14  and  N17_19 
ROOT
HETATM    1  O1  MIQ B 502      22.332  13.929  -3.086  1.00142.91    -0.171 OA
HETATM    2  C2  MIQ B 502      21.618  14.004  -1.888  1.00141.17     0.195 A 
HETATM    3  C3  MIQ B 502      20.091  13.731  -1.706  1.00141.71     0.035 A 
HETATM    4  C4  MIQ B 502      19.008  13.340  -2.638  1.00142.86     0.046 A 
HETATM    5  C5  MIQ B 502      17.684  13.160  -2.164  1.00139.53     0.031 A 
HETATM    6  C12 MIQ B 502      17.389  13.360  -0.752  1.00139.38     0.030 A 
HETATM    7  C13 MIQ B 502      18.428  13.733   0.143  1.00141.18     0.019 A 
HETATM    8  C14 MIQ B 502      19.816  13.919  -0.361  1.00138.77     0.033 A 
HETATM    9  C15 MIQ B 502      21.180  14.310   0.295  1.00142.10     0.195 A 
HETATM   10  N17 MIQ B 502      22.070  14.309  -0.683  1.00139.42    -0.288 N 
HETATM   11  O16 MIQ B 502      21.406  14.603   1.641  1.00148.93    -0.171 OA
ENDROOT
BRANCH  10  12
HETATM   12  C18 MIQ B 502      23.461  14.647  -0.443  1.00139.82     0.187 C 
HETATM   13  C19 MIQ B 502      23.840  15.780  -1.404  1.00140.06     0.247 C 
HETATM   14  O25 MIQ B 502      23.157  16.741  -1.460  1.00143.95    -0.271 OA
HETATM   15  N20 MIQ B 502      25.018  15.708  -2.243  1.00140.02    -0.296 N 
HETATM   16  H13 MIQ B 502      25.251  16.452  -2.871  1.00142.77     0.171 HD
HETATM   17  C21 MIQ B 502      25.830  14.521  -2.165  1.00142.22     0.224 C 
HETATM   18  C22 MIQ B 502      25.106  13.217  -1.894  1.00139.52     0.106 C 
HETATM   19  O24 MIQ B 502      27.003  14.565  -2.300  1.00146.13    -0.273 OA
HETATM   20  C23 MIQ B 502      24.342  13.409  -0.596  1.00139.15     0.045 C 
ENDBRANCH  10  12
BRANCH   5  21
HETATM   21  N6  MIQ B 502      16.629  12.792  -3.091  1.00140.95    -0.377 N 
HETATM   22  C7  MIQ B 502      16.565  13.470  -4.374  1.00142.12     0.149 C 
HETATM   23  C8  MIQ B 502      15.149  13.489  -4.936  1.00144.10     0.187 C 
HETATM   24  O9  MIQ B 502      14.529  12.239  -4.890  1.00148.65    -0.388 OA
HETATM   25  C10 MIQ B 502      15.110  11.186  -4.178  1.00147.44     0.187 C 
HETATM   26  C11 MIQ B 502      15.953  11.514  -2.950  1.00144.08     0.149 C 
ENDBRANCH   5  21
TORSDOF 2
ENDMDL
MODEL 5
REMARK VINA RESULT:      -5.7     22.094     24.232
REMARK  2 active torsions:
REMARK  status: ('A' for Active; 'I' for Inactive)
REMARK    1  A    between atoms: C5_5  and  N6_21 
REMARK    2  A    between atoms: C18_14  and  N17_19 
ROOT
HETATM    1  O1  MIQ B 502      24.790   0.718   8.439  1.00142.91    -0.171 OA
HETATM    2  C2  MIQ B 502      25.186   1.235   9.674  1.00141.17     0.195 A 
HETATM    3  C3  MIQ B 502      25.037   2.717  10.144  1.00141.71     0.035 A 
HETATM    4  C4  MIQ B 502      24.483   3.936   9.509  1.00142.86     0.046 A 
HETATM    5  C5  MIQ B 502      24.486   5.171  10.205  1.00139.53     0.031 A 
HETATM    6  C12 MIQ B 502      25.034   5.240  11.552  1.00139.38     0.030 A 
HETATM    7  C13 MIQ B 502      25.563   4.071  12.162  1.00141.18     0.019 A 
HETATM    8  C14 MIQ B 502      25.556   2.777  11.427  1.00138.77     0.033 A 
HETATM    9  C15 MIQ B 502      26.030   1.324  11.756  1.00142.10     0.195 A 
HETATM   10  N17 MIQ B 502      25.751   0.598  10.685  1.00139.42    -0.288 N 
HETATM   11  O16 MIQ B 502      26.629   0.887  12.939  1.00148.93    -0.171 OA
ENDROOT
BRANCH  10  12
HETATM   12  C18 MIQ B 502      26.071  -0.816  10.625  1.00139.82     0.187 C 
HETATM   13  C19 MIQ B 502      25.405  -1.499  11.826  1.00140.06     0.247 C 
HETATM   14  O25 MIQ B 502      24.257  -1.315  12.029  1.00143.95    -0.271 OA
HETATM   15  N20 MIQ B 502      26.144  -2.369  12.717  1.00140.02    -0.296 N 
HETATM   16  H13 MIQ B 502      25.699  -2.803  13.502  1.00142.77     0.171 HD
HETATM   17  C21 MIQ B 502      27.546  -2.569  12.455  1.00142.22     0.224 C 
HETATM   18  C22 MIQ B 502      28.303  -1.394  11.866  1.00139.52     0.106 C 
HETATM   19  O24 MIQ B 502      28.076  -3.600  12.684  1.00146.13    -0.273 OA
HETATM   20  C23 MIQ B 502      27.585  -1.018  10.583  1.00139.15     0.045 C 
ENDBRANCH  10  12
BRANCH   5  21
HETATM   21  N6  MIQ B 502      23.954   6.361   9.566  1.00140.95    -0.377 N 
HETATM   22  C7  MIQ B 502      24.886   7.365   9.082  1.00142.12     0.149 C 
HETATM   23  C8  MIQ B 502      24.260   8.753   9.047  1.00144.10     0.187 C 
HETATM   24  O9  MIQ B 502      23.001   8.766   8.441  1.00148.65    -0.388 OA
HETATM   25  C10 MIQ B 502      22.349   7.568   8.139  1.00147.44     0.187 C 
HETATM   26  C11 MIQ B 502      22.606   6.354   9.026  1.00144.08     0.149 C 
ENDBRANCH   5  21
TORSDOF 2
ENDMDL
MODEL 6
REMARK VINA RESULT:      -5.7     14.111     16.889
REMARK  2 active torsions:
REMARK  status: ('A' for Active; 'I' for Inactive)
REMARK    1  A    between atoms: C5_5  and  N6_21 
REMARK    2  A    between atoms: C18_14  and  N17_19 
ROOT
HETATM    1  O1  MIQ B 502      22.058  13.829  -3.029  1.00142.91    -0.171 OA
HETATM    2  C2  MIQ B 502      20.904  13.852  -2.242  1.00141.17     0.195 A 
HETATM    3  C3  MIQ B 502      19.435  13.717  -2.755  1.00141.71     0.035 A 
HETATM    4  C4  MIQ B 502      18.837  13.537  -4.099  1.00142.86     0.046 A 
HETATM    5  C5  MIQ B 502      17.431  13.443  -4.251  1.00139.53     0.031 A 
HETATM    6  C12 MIQ B 502      16.570  13.525  -3.080  1.00139.38     0.030 A 
HETATM    7  C13 MIQ B 502      17.143  13.696  -1.791  1.00141.18     0.019 A 
HETATM    8  C14 MIQ B 502      18.620  13.791  -1.637  1.00138.77     0.033 A 
HETATM    9  C15 MIQ B 502      19.589  13.973  -0.423  1.00142.10     0.195 A 
HETATM   10  N17 MIQ B 502      20.811  13.983  -0.930  1.00139.42    -0.288 N 
HETATM   11  O16 MIQ B 502      19.232  14.100   0.920  1.00148.93    -0.171 OA
ENDROOT
BRANCH  10  12
HETATM   12  C18 MIQ B 502      21.980  14.151  -0.086  1.00139.82     0.187 C 
HETATM   13  C19 MIQ B 502      22.771  15.352  -0.617  1.00140.06     0.247 C 
HETATM   14  O25 MIQ B 502      22.212  16.374  -0.803  1.00143.95    -0.271 OA
HETATM   15  N20 MIQ B 502      24.191  15.270  -0.892  1.00140.02    -0.296 N 
HETATM   16  H13 MIQ B 502      24.695  16.059  -1.245  1.00142.77     0.171 HD
HETATM   17  C21 MIQ B 502      24.850  14.009  -0.667  1.00142.22     0.224 C 
HETATM   18  C22 MIQ B 502      24.032  12.758  -0.925  1.00139.52     0.106 C 
HETATM   19  O24 MIQ B 502      25.970  13.955  -0.295  1.00146.13    -0.273 OA
HETATM   20  C23 MIQ B 502      22.798  12.861  -0.047  1.00139.15     0.045 C 
ENDBRANCH  10  12
BRANCH   5  21
HETATM   21  N6  MIQ B 502      16.858  13.282  -5.575  1.00140.95    -0.377 N 
HETATM   22  C7  MIQ B 502      17.553  12.440  -6.534  1.00142.12     0.149 C 
HETATM   23  C8  MIQ B 502      17.255  12.849  -7.971  1.00144.10     0.187 C 
HETATM   24  O9  MIQ B 502      15.892  13.030  -8.213  1.00148.65    -0.388 OA
HETATM   25  C10 MIQ B 502      14.981  13.050  -7.153  1.00147.44     0.187 C 
HETATM   26  C11 MIQ B 502      15.451  13.566  -5.797  1.00144.08     0.149 C 
ENDBRANCH   5  21
TORSDOF 2
ENDMDL
MODEL 7
REMARK VINA RESULT:      -5.7     14.832     15.875
REMARK  2 active torsions:
REMARK  status: ('A' for Active; 'I' for Inactive)
REMARK    1  A    between atoms: C5_5  and  N6_21 
REMARK    2  A    between atoms: C18_14  and  N17_19 
ROOT
HETATM    1  O1  MIQ B 502      18.170  13.806  -5.496  1.00142.91    -0.171 OA
HETATM    2  C2  MIQ B 502      18.310  13.562  -4.128  1.00141.17     0.195 A 
HETATM    3  C3  MIQ B 502      19.655  13.481  -3.338  1.00141.71     0.035 A 
HETATM    4  C4  MIQ B 502      21.077  13.624  -3.731  1.00142.86     0.046 A 
HETATM    5  C5  MIQ B 502      22.105  13.496  -2.762  1.00139.53     0.031 A 
HETATM    6  C12 MIQ B 502      21.759  13.223  -1.375  1.00139.38     0.030 A 
HETATM    7  C13 MIQ B 502      20.396  13.087  -0.998  1.00141.18     0.019 A 
HETATM    8  C14 MIQ B 502      19.322  13.225  -2.019  1.00138.77     0.033 A 
HETATM    9  C15 MIQ B 502      17.760  13.147  -1.988  1.00142.10     0.195 A 
HETATM   10  N17 MIQ B 502      17.360  13.358  -3.232  1.00139.42    -0.288 N 
HETATM   11  O16 MIQ B 502      16.957  12.902  -0.873  1.00148.93    -0.171 OA
ENDROOT
BRANCH  10  12
HETATM   12  C18 MIQ B 502      15.953  13.342  -3.587  1.00139.82     0.187 C 
HETATM   13  C19 MIQ B 502      15.775  12.354  -4.747  1.00140.06     0.247 C 
HETATM   14  O25 MIQ B 502      16.217  11.265  -4.648  1.00143.95    -0.271 OA
HETATM   15  N20 MIQ B 502      15.074  12.720  -5.960  1.00140.02    -0.296 N 
HETATM   16  H13 MIQ B 502      14.970  12.068  -6.713  1.00142.77     0.171 HD
HETATM   17  C21 MIQ B 502      14.553  14.059  -6.061  1.00142.22     0.224 C 
HETATM   18  C22 MIQ B 502      15.351  15.153  -5.380  1.00139.52     0.106 C 
HETATM   19  O24 MIQ B 502      13.550  14.289  -6.642  1.00146.13    -0.273 OA
HETATM   20  C23 MIQ B 502      15.474  14.753  -3.921  1.00139.15     0.045 C 
ENDBRANCH  10  12
BRANCH   5  21
HETATM   21  N6  MIQ B 502      23.494  13.623  -3.164  1.00140.95    -0.377 N 
HETATM   22  C7  MIQ B 502      23.837  14.606  -4.177  1.00142.12     0.149 C 
HETATM   23  C8  MIQ B 502      25.096  14.219  -4.942  1.00144.10     0.187 C 
HETATM   24  O9  MIQ B 502      26.145  13.835  -4.104  1.00148.65    -0.388 OA
HETATM   25  C10 MIQ B 502      25.920  13.625  -2.741  1.00147.44     0.187 C 
HETATM   26  C11 MIQ B 502      24.548  13.130  -2.295  1.00144.08     0.149 C 
ENDBRANCH   5  21
TORSDOF 2
ENDMDL
MODEL 8
REMARK VINA RESULT:      -5.7     16.006     18.330
REMARK  2 active torsions:
REMARK  status: ('A' for Active; 'I' for Inactive)
REMARK    1  A    between atoms: C5_5  and  N6_21 
REMARK    2  A    between atoms: C18_14  and  N17_19 
ROOT
HETATM    1  O1  MIQ B 502      35.051   5.222  -0.978  1.00142.91    -0.171 OA
HETATM    2  C2  MIQ B 502      34.820   6.461  -0.377  1.00141.17     0.195 A 
HETATM    3  C3  MIQ B 502      33.854   7.573  -0.898  1.00141.71     0.035 A 
HETATM    4  C4  MIQ B 502      32.955   7.673  -2.073  1.00142.86     0.046 A 
HETATM    5  C5  MIQ B 502      32.179   8.841  -2.284  1.00139.53     0.031 A 
HETATM    6  C12 MIQ B 502      32.267   9.947  -1.341  1.00139.38     0.030 A 
HETATM    7  C13 MIQ B 502      33.128   9.850  -0.214  1.00141.18     0.019 A 
HETATM    8  C14 MIQ B 502      33.938   8.621   0.003  1.00138.77     0.033 A 
HETATM    9  C15 MIQ B 502      34.961   8.157   1.091  1.00142.10     0.195 A 
HETATM   10  N17 MIQ B 502      35.350   6.945   0.733  1.00139.42    -0.288 N 
HETATM   11  O16 MIQ B 502      35.378   8.882   2.209  1.00148.93    -0.171 OA
ENDROOT
BRANCH  10  12
HETATM   12  C18 MIQ B 502      36.323   6.201   1.511  1.00139.82     0.187 C 
HETATM   13  C19 MIQ B 502      37.392   5.676   0.545  1.00140.06     0.247 C 
HETATM   14  O25 MIQ B 502      37.908   6.425  -0.205  1.00143.95    -0.271 OA
HETATM   15  N20 MIQ B 502      37.791   4.283   0.531  1.00140.02    -0.296 N 
HETATM   16  H13 MIQ B 502      38.485   3.952  -0.109  1.00142.77     0.171 HD
HETATM   17  C21 MIQ B 502      37.139   3.385   1.449  1.00142.22     0.224 C 
HETATM   18  C22 MIQ B 502      35.684   3.674   1.766  1.00139.52     0.106 C 
HETATM   19  O24 MIQ B 502      37.712   2.473   1.933  1.00146.13    -0.273 OA
HETATM   20  C23 MIQ B 502      35.633   5.092   2.305  1.00139.15     0.045 C 
ENDBRANCH  10  12
BRANCH   5  21
HETATM   21  N6  MIQ B 502      31.314   8.931  -3.446  1.00140.95    -0.377 N 
HETATM   22  C7  MIQ B 502      31.893   9.351  -4.711  1.00142.12     0.149 C 
HETATM   23  C8  MIQ B 502      30.860  10.008  -5.618  1.00144.10     0.187 C 
HETATM   24  O9  MIQ B 502      29.677   9.273  -5.717  1.00148.65    -0.388 OA
HETATM   25  C10 MIQ B 502      29.445   8.189  -4.867  1.00147.44     0.187 C 
HETATM   26  C11 MIQ B 502      30.051   8.216  -3.468  1.00144.08     0.149 C 
ENDBRANCH   5  21
TORSDOF 2
ENDMDL
MODEL 9
REMARK VINA RESULT:      -5.7     14.952     16.757
REMARK  2 active torsions:
REMARK  status: ('A' for Active; 'I' for Inactive)
REMARK    1  A    between atoms: C5_5  and  N6_21 
REMARK    2  A    between atoms: C18_14  and  N17_19 
ROOT
HETATM    1  O1  MIQ B 502      21.746  15.117  -4.756  1.00142.91    -0.171 OA
HETATM    2  C2  MIQ B 502      21.035  14.416  -3.778  1.00141.17     0.195 A 
HETATM    3  C3  MIQ B 502      19.528  14.010  -3.846  1.00141.71     0.035 A 
HETATM    4  C4  MIQ B 502      18.465  14.208  -4.860  1.00142.86     0.046 A 
HETATM    5  C5  MIQ B 502      17.157  13.711  -4.632  1.00139.53     0.031 A 
HETATM    6  C12 MIQ B 502      16.858  13.001  -3.396  1.00139.38     0.030 A 
HETATM    7  C13 MIQ B 502      17.878  12.810  -2.425  1.00141.18     0.019 A 
HETATM    8  C14 MIQ B 502      19.250  13.333  -2.671  1.00138.77     0.033 A 
HETATM    9  C15 MIQ B 502      20.592  13.317  -1.868  1.00142.10     0.195 A 
HETATM   10  N17 MIQ B 502      21.475  13.953  -2.621  1.00139.42    -0.288 N 
HETATM   11  O16 MIQ B 502      20.808  12.748  -0.612  1.00148.93    -0.171 OA
ENDROOT
BRANCH  10  12
HETATM   12  C18 MIQ B 502      22.844  14.147  -2.182  1.00139.82     0.187 C 
HETATM   13  C19 MIQ B 502      23.429  12.768  -1.851  1.00140.06     0.247 C 
HETATM   14  O25 MIQ B 502      23.340  11.899  -2.643  1.00143.95    -0.271 OA
HETATM   15  N20 MIQ B 502      24.095  12.503  -0.592  1.00140.02    -0.296 N 
HETATM   16  H13 MIQ B 502      24.466  11.597  -0.385  1.00142.77     0.171 HD
HETATM   17  C21 MIQ B 502      24.182  13.577   0.364  1.00142.22     0.224 C 
HETATM   18  C22 MIQ B 502      23.023  14.554   0.399  1.00139.52     0.106 C 
HETATM   19  O24 MIQ B 502      25.114  13.692   1.081  1.00146.13    -0.273 OA
HETATM   20  C23 MIQ B 502      22.892  15.119  -1.004  1.00139.15     0.045 C 
ENDBRANCH  10  12
BRANCH   5  21
HETATM   21  N6  MIQ B 502      16.121  13.925  -5.626  1.00140.95    -0.377 N 
HETATM   22  C7  MIQ B 502      15.554  12.768  -6.298  1.00142.12     0.149 C 
HETATM   23  C8  MIQ B 502      15.014  13.121  -7.679  1.00144.10     0.187 C 
HETATM   24  O9  MIQ B 502      14.209  14.262  -7.672  1.00148.65    -0.388 OA
HETATM   25  C10 MIQ B 502      14.143  15.074  -6.538  1.00147.44     0.187 C 
HETATM   26  C11 MIQ B 502      15.367  15.166  -5.633  1.00144.08     0.149 C 
ENDBRANCH   5  21
TORSDOF 2
ENDMDL
