MODEL 1
REMARK VINA RESULT:      -6.4      0.000      0.000
REMARK  2 active torsions:
REMARK  status: ('A' for Active; 'I' for Inactive)
REMARK    1  A    between atoms: C5_5  and  N6_21 
REMARK    2  A    between atoms: C18_14  and  N17_19 
ROOT
HETATM    1  O1  MIQ B 502      -2.110  -2.693  16.985  1.00142.91    -0.171 OA
HETATM    2  C2  MIQ B 502      -2.433  -2.808  18.339  1.00141.17     0.195 A 
HETATM    3  C3  MIQ B 502      -3.817  -2.487  18.988  1.00141.71     0.035 A 
HETATM    4  C4  MIQ B 502      -5.111  -2.009  18.445  1.00142.86     0.046 A 
HETATM    5  C5  MIQ B 502      -6.219  -1.808  19.306  1.00139.53     0.031 A 
HETATM    6  C12 MIQ B 502      -6.084  -2.072  20.731  1.00139.38     0.030 A 
HETATM    7  C13 MIQ B 502      -4.844  -2.531  21.252  1.00141.18     0.019 A 
HETATM    8  C14 MIQ B 502      -3.685  -2.743  20.343  1.00138.77     0.033 A 
HETATM    9  C15 MIQ B 502      -2.210  -3.226  20.536  1.00142.10     0.195 A 
HETATM   10  N17 MIQ B 502      -1.659  -3.206  19.334  1.00139.42    -0.288 N 
HETATM   11  O16 MIQ B 502      -1.603  -3.598  21.737  1.00148.93    -0.171 OA
ENDROOT
BRANCH  10  12
HETATM   12  C18 MIQ B 502      -0.272  -3.583  19.130  1.00139.82     0.187 C 
HETATM   13  C19 MIQ B 502       0.406  -2.459  18.338  1.00140.06     0.247 C 
HETATM   14  O25 MIQ B 502       0.303  -1.346  18.714  1.00143.95    -0.271 OA
HETATM   15  N20 MIQ B 502       1.177  -2.726  17.140  1.00140.02    -0.296 N 
HETATM   16  H13 MIQ B 502       1.609  -1.983  16.628  1.00142.77     0.171 HD
HETATM   17  C21 MIQ B 502       1.279  -4.092  16.695  1.00142.22     0.224 C 
HETATM   18  C22 MIQ B 502       0.077  -4.982  16.944  1.00139.52     0.106 C 
HETATM   19  O24 MIQ B 502       2.255  -4.498  16.167  1.00146.13    -0.273 OA
HETATM   20  C23 MIQ B 502      -0.187  -4.943  18.438  1.00139.15     0.045 C 
ENDBRANCH  10  12
BRANCH   5  21
HETATM   21  N6  MIQ B 502      -7.476  -1.325  18.763  1.00140.95    -0.377 N 
HETATM   22  C7  MIQ B 502      -7.575   0.072  18.377  1.00142.12     0.149 C 
HETATM   23  C8  MIQ B 502      -9.008   0.582  18.452  1.00144.10     0.187 C 
HETATM   24  O9  MIQ B 502      -9.923  -0.274  17.835  1.00148.65    -0.388 OA
HETATM   25  C10 MIQ B 502      -9.531  -1.551  17.425  1.00147.44     0.187 C 
HETATM   26  C11 MIQ B 502      -8.435  -2.265  18.209  1.00144.08     0.149 C 
ENDBRANCH   5  21
TORSDOF 2
ENDMDL
MODEL 2
REMARK VINA RESULT:      -6.2      1.887      8.168
REMARK  2 active torsions:
REMARK  status: ('A' for Active; 'I' for Inactive)
REMARK    1  A    between atoms: C5_5  and  N6_21 
REMARK    2  A    between atoms: C18_14  and  N17_19 
ROOT
HETATM    1  O1  MIQ B 502      -6.923  -0.887  17.165  1.00142.91    -0.171 OA
HETATM    2  C2  MIQ B 502      -6.569  -1.302  18.451  1.00141.17     0.195 A 
HETATM    3  C3  MIQ B 502      -5.186  -1.885  18.884  1.00141.71     0.035 A 
HETATM    4  C4  MIQ B 502      -3.924  -2.161  18.157  1.00142.86     0.046 A 
HETATM    5  C5  MIQ B 502      -2.808  -2.707  18.840  1.00139.53     0.031 A 
HETATM    6  C12 MIQ B 502      -2.903  -2.996  20.264  1.00139.38     0.030 A 
HETATM    7  C13 MIQ B 502      -4.113  -2.731  20.961  1.00141.18     0.019 A 
HETATM    8  C14 MIQ B 502      -5.280  -2.156  20.239  1.00138.77     0.033 A 
HETATM    9  C15 MIQ B 502      -6.730  -1.737  20.650  1.00142.10     0.195 A 
HETATM   10  N17 MIQ B 502      -7.306  -1.285  19.549  1.00139.42    -0.288 N 
HETATM   11  O16 MIQ B 502      -7.296  -1.828  21.923  1.00148.93    -0.171 OA
ENDROOT
BRANCH  10  12
HETATM   12  C18 MIQ B 502      -8.679  -0.818  19.549  1.00139.82     0.187 C 
HETATM   13  C19 MIQ B 502      -9.411  -1.515  18.396  1.00140.06     0.247 C 
HETATM   14  O25 MIQ B 502      -9.346  -2.689  18.299  1.00143.95    -0.271 OA
HETATM   15  N20 MIQ B 502     -10.188  -0.773  17.424  1.00140.02    -0.296 N 
HETATM   16  H13 MIQ B 502     -10.656  -1.240  16.673  1.00142.77     0.171 HD
HETATM   17  C21 MIQ B 502     -10.244   0.660  17.558  1.00142.22     0.224 C 
HETATM   18  C22 MIQ B 502      -9.005   1.342  18.105  1.00139.52     0.106 C 
HETATM   19  O24 MIQ B 502     -11.211   1.271  17.261  1.00146.13    -0.273 OA
HETATM   20  C23 MIQ B 502      -8.722   0.707  19.454  1.00139.15     0.045 C 
ENDBRANCH  10  12
BRANCH   5  21
HETATM   21  N6  MIQ B 502      -1.583  -2.986  18.113  1.00140.95    -0.377 N 
HETATM   22  C7  MIQ B 502      -1.560  -4.117  17.201  1.00142.12     0.149 C 
HETATM   23  C8  MIQ B 502      -0.153  -4.675  17.024  1.00144.10     0.187 C 
HETATM   24  O9  MIQ B 502       0.797  -3.684  16.771  1.00148.65    -0.388 OA
HETATM   25  C10 MIQ B 502       0.467  -2.334  16.914  1.00147.44     0.187 C 
HETATM   26  C11 MIQ B 502      -0.583  -1.945  17.949  1.00144.08     0.149 C 
ENDBRANCH   5  21
TORSDOF 2
ENDMDL
MODEL 3
REMARK VINA RESULT:      -5.9     17.449     20.374
REMARK  2 active torsions:
REMARK  status: ('A' for Active; 'I' for Inactive)
REMARK    1  A    between atoms: C5_5  and  N6_21 
REMARK    2  A    between atoms: C18_14  and  N17_19 
ROOT
HETATM    1  O1  MIQ B 502       1.858 -22.818  15.164  1.00142.91    -0.171 OA
HETATM    2  C2  MIQ B 502       1.972 -21.442  14.948  1.00141.17     0.195 A 
HETATM    3  C3  MIQ B 502       2.333 -20.747  13.597  1.00141.71     0.035 A 
HETATM    4  C4  MIQ B 502       2.639 -21.257  12.239  1.00142.86     0.046 A 
HETATM    5  C5  MIQ B 502       2.936 -20.355  11.186  1.00139.53     0.031 A 
HETATM    6  C12 MIQ B 502       2.938 -18.922  11.440  1.00139.38     0.030 A 
HETATM    7  C13 MIQ B 502       2.644 -18.433  12.742  1.00141.18     0.019 A 
HETATM    8  C14 MIQ B 502       2.331 -19.384  13.843  1.00138.77     0.033 A 
HETATM    9  C15 MIQ B 502       1.965 -19.232  15.356  1.00142.10     0.195 A 
HETATM   10  N17 MIQ B 502       1.797 -20.461  15.816  1.00139.42    -0.288 N 
HETATM   11  O16 MIQ B 502       1.846 -18.039  16.071  1.00148.93    -0.171 OA
ENDROOT
BRANCH  10  12
HETATM   12  C18 MIQ B 502       1.461 -20.709  17.206  1.00139.82     0.187 C 
HETATM   13  C19 MIQ B 502       0.181 -19.927  17.525  1.00140.06     0.247 C 
HETATM   14  O25 MIQ B 502      -0.756 -20.043  16.817  1.00143.95    -0.271 OA
HETATM   15  N20 MIQ B 502       0.087 -19.052  18.675  1.00140.02    -0.296 N 
HETATM   16  H13 MIQ B 502      -0.752 -18.542  18.869  1.00142.77     0.171 HD
HETATM   17  C21 MIQ B 502       1.247 -18.919  19.518  1.00142.22     0.224 C 
HETATM   18  C22 MIQ B 502       2.599 -19.003  18.835  1.00139.52     0.106 C 
HETATM   19  O24 MIQ B 502       1.148 -18.758  20.685  1.00146.13    -0.273 OA
HETATM   20  C23 MIQ B 502       2.634 -20.338  18.112  1.00139.15     0.045 C 
ENDBRANCH  10  12
BRANCH   5  21
HETATM   21  N6  MIQ B 502       3.248 -20.868   9.864  1.00140.95    -0.377 N 
HETATM   22  C7  MIQ B 502       2.319 -21.794   9.241  1.00142.12     0.149 C 
HETATM   23  C8  MIQ B 502       3.013 -22.712   8.243  1.00144.10     0.187 C 
HETATM   24  O9  MIQ B 502       3.850 -22.024   7.363  1.00148.65    -0.388 OA
HETATM   25  C10 MIQ B 502       4.153 -20.677   7.582  1.00147.44     0.187 C 
HETATM   26  C11 MIQ B 502       4.193 -20.162   9.017  1.00144.08     0.149 C 
ENDBRANCH   5  21
TORSDOF 2
ENDMDL
MODEL 4
REMARK VINA RESULT:      -5.9      5.948     10.024
REMARK  2 active torsions:
REMARK  status: ('A' for Active; 'I' for Inactive)
REMARK    1  A    between atoms: C5_5  and  N6_21 
REMARK    2  A    between atoms: C18_14  and  N17_19 
ROOT
HETATM    1  O1  MIQ B 502     -10.175   1.549  16.485  1.00142.91    -0.171 OA
HETATM    2  C2  MIQ B 502     -10.963   1.755  17.620  1.00141.17     0.195 A 
HETATM    3  C3  MIQ B 502     -12.336   2.498  17.668  1.00141.71     0.035 A 
HETATM    4  C4  MIQ B 502     -13.173   3.159  16.639  1.00142.86     0.046 A 
HETATM    5  C5  MIQ B 502     -14.405   3.762  16.997  1.00139.53     0.031 A 
HETATM    6  C12 MIQ B 502     -14.849   3.731  18.383  1.00139.38     0.030 A 
HETATM    7  C13 MIQ B 502     -14.047   3.096  19.370  1.00141.18     0.019 A 
HETATM    8  C14 MIQ B 502     -12.756   2.462  18.988  1.00138.77     0.033 A 
HETATM    9  C15 MIQ B 502     -11.638   1.692  19.763  1.00142.10     0.195 A 
HETATM   10  N17 MIQ B 502     -10.724   1.370  18.862  1.00139.42    -0.288 N 
HETATM   11  O16 MIQ B 502     -11.612   1.408  21.130  1.00148.93    -0.171 OA
ENDROOT
BRANCH  10  12
HETATM   12  C18 MIQ B 502      -9.518   0.651  19.230  1.00139.82     0.187 C 
HETATM   13  C19 MIQ B 502      -8.320   1.446  18.698  1.00140.06     0.247 C 
HETATM   14  O25 MIQ B 502      -8.238   2.598  18.941  1.00143.95    -0.271 OA
HETATM   15  N20 MIQ B 502      -7.279   0.821  17.907  1.00140.02    -0.296 N 
HETATM   16  H13 MIQ B 502      -6.505   1.353  17.560  1.00142.77     0.171 HD
HETATM   17  C21 MIQ B 502      -7.407  -0.583  17.613  1.00142.22     0.224 C 
HETATM   18  C22 MIQ B 502      -8.815  -1.115  17.430  1.00139.52     0.106 C 
HETATM   19  O24 MIQ B 502      -6.459  -1.284  17.526  1.00146.13    -0.273 OA
HETATM   20  C23 MIQ B 502      -9.571  -0.782  18.702  1.00139.15     0.045 C 
ENDBRANCH  10  12
BRANCH   5  21
HETATM   21  N6  MIQ B 502     -15.208   4.419  15.981  1.00140.95    -0.377 N 
HETATM   22  C7  MIQ B 502     -15.006   4.051  14.591  1.00142.12     0.149 C 
HETATM   23  C8  MIQ B 502     -15.380   5.183  13.643  1.00144.10     0.187 C 
HETATM   24  O9  MIQ B 502     -16.623   5.749  13.936  1.00148.65    -0.388 OA
HETATM   25  C10 MIQ B 502     -17.286   5.424  15.122  1.00147.44     0.187 C 
HETATM   26  C11 MIQ B 502     -16.453   5.069  16.350  1.00144.08     0.149 C 
ENDBRANCH   5  21
TORSDOF 2
ENDMDL
MODEL 5
REMARK VINA RESULT:      -5.9     15.053     17.941
REMARK  2 active torsions:
REMARK  status: ('A' for Active; 'I' for Inactive)
REMARK    1  A    between atoms: C5_5  and  N6_21 
REMARK    2  A    between atoms: C18_14  and  N17_19 
ROOT
HETATM    1  O1  MIQ B 502       2.155 -20.357  18.493  1.00142.91    -0.171 OA
HETATM    2  C2  MIQ B 502       2.269 -19.226  17.682  1.00141.17     0.195 A 
HETATM    3  C3  MIQ B 502       2.706 -17.799  18.144  1.00141.71     0.035 A 
HETATM    4  C4  MIQ B 502       3.106 -17.230  19.452  1.00142.86     0.046 A 
HETATM    5  C5  MIQ B 502       3.460 -15.861  19.560  1.00139.53     0.031 A 
HETATM    6  C12 MIQ B 502       3.430 -15.012  18.378  1.00139.38     0.030 A 
HETATM    7  C13 MIQ B 502       3.048 -15.558  17.123  1.00141.18     0.019 A 
HETATM    8  C14 MIQ B 502       2.680 -16.996  17.016  1.00138.77     0.033 A 
HETATM    9  C15 MIQ B 502       2.224 -17.929  15.847  1.00142.10     0.195 A 
HETATM   10  N17 MIQ B 502       2.042 -19.124  16.383  1.00139.42    -0.288 N 
HETATM   11  O16 MIQ B 502       2.045 -17.568  14.510  1.00148.93    -0.171 OA
ENDROOT
BRANCH  10  12
HETATM   12  C18 MIQ B 502       1.596 -20.252  15.587  1.00139.82     0.187 C 
HETATM   13  C19 MIQ B 502       0.345 -20.833  16.257  1.00140.06     0.247 C 
HETATM   14  O25 MIQ B 502      -0.545 -20.112  16.537  1.00143.95    -0.271 OA
HETATM   15  N20 MIQ B 502       0.224 -22.246  16.553  1.00140.02    -0.296 N 
HETATM   16  H13 MIQ B 502      -0.595 -22.612  16.997  1.00142.77     0.171 HD
HETATM   17  C21 MIQ B 502       1.329 -23.104  16.211  1.00142.22     0.224 C 
HETATM   18  C22 MIQ B 502       2.717 -22.503  16.319  1.00139.52     0.106 C 
HETATM   19  O24 MIQ B 502       1.159 -24.220  15.859  1.00146.13    -0.273 OA
HETATM   20  C23 MIQ B 502       2.724 -21.272  15.431  1.00139.15     0.045 C 
ENDBRANCH  10  12
BRANCH   5  21
HETATM   21  N6  MIQ B 502       3.836 -15.314  20.851  1.00140.95    -0.377 N 
HETATM   22  C7  MIQ B 502       4.650 -14.111  20.885  1.00142.12     0.149 C 
HETATM   23  C8  MIQ B 502       5.478 -14.021  22.160  1.00144.10     0.187 C 
HETATM   24  O9  MIQ B 502       4.730 -14.267  23.313  1.00148.65    -0.388 OA
HETATM   25  C10 MIQ B 502       3.429 -14.768  23.218  1.00147.44     0.187 C 
HETATM   26  C11 MIQ B 502       3.078 -15.668  22.038  1.00144.08     0.149 C 
ENDBRANCH   5  21
TORSDOF 2
ENDMDL
MODEL 6
REMARK VINA RESULT:      -5.9     18.645     21.215
REMARK  2 active torsions:
REMARK  status: ('A' for Active; 'I' for Inactive)
REMARK    1  A    between atoms: C5_5  and  N6_21 
REMARK    2  A    between atoms: C18_14  and  N17_19 
ROOT
HETATM    1  O1  MIQ B 502       3.071 -22.606  10.415  1.00142.91    -0.171 OA
HETATM    2  C2  MIQ B 502       3.145 -21.240  10.698  1.00141.17     0.195 A 
HETATM    3  C3  MIQ B 502       2.813 -20.563  12.066  1.00141.71     0.035 A 
HETATM    4  C4  MIQ B 502       2.361 -21.084  13.378  1.00142.86     0.046 A 
HETATM    5  C5  MIQ B 502       2.139 -20.198  14.463  1.00139.53     0.031 A 
HETATM    6  C12 MIQ B 502       2.357 -18.770  14.286  1.00139.38     0.030 A 
HETATM    7  C13 MIQ B 502       2.792 -18.270  13.028  1.00141.18     0.019 A 
HETATM    8  C14 MIQ B 502       3.025 -19.205  11.894  1.00138.77     0.033 A 
HETATM    9  C15 MIQ B 502       3.492 -19.038  10.411  1.00142.10     0.195 A 
HETATM   10  N17 MIQ B 502       3.507 -20.256   9.894  1.00139.42    -0.288 N 
HETATM   11  O16 MIQ B 502       3.823 -17.844   9.768  1.00148.93    -0.171 OA
ENDROOT
BRANCH  10  12
HETATM   12  C18 MIQ B 502       3.881 -20.487   8.511  1.00139.82     0.187 C 
HETATM   13  C19 MIQ B 502       2.778 -21.332   7.863  1.00140.06     0.247 C 
HETATM   14  O25 MIQ B 502       1.654 -20.988   7.963  1.00143.95    -0.271 OA
HETATM   15  N20 MIQ B 502       3.077 -22.542   7.124  1.00140.02    -0.296 N 
HETATM   16  H13 MIQ B 502       2.347 -23.089   6.711  1.00142.77     0.171 HD
HETATM   17  C21 MIQ B 502       4.455 -22.948   7.024  1.00142.22     0.224 C 
HETATM   18  C22 MIQ B 502       5.344 -22.638   8.213  1.00139.52     0.106 C 
HETATM   19  O24 MIQ B 502       4.871 -23.490   6.060  1.00146.13    -0.273 OA
HETATM   20  C23 MIQ B 502       5.261 -21.139   8.435  1.00139.15     0.045 C 
ENDBRANCH  10  12
BRANCH   5  21
HETATM   21  N6  MIQ B 502       1.682 -20.721  15.738  1.00140.95    -0.377 N 
HETATM   22  C7  MIQ B 502       0.302 -20.491  16.128  1.00142.12     0.149 C 
HETATM   23  C8  MIQ B 502       0.132 -20.489  17.642  1.00144.10     0.187 C 
HETATM   24  O9  MIQ B 502       0.754 -21.575  18.260  1.00148.65    -0.388 OA
HETATM   25  C10 MIQ B 502       1.618 -22.401  17.537  1.00147.44     0.187 C 
HETATM   26  C11 MIQ B 502       2.414 -21.795  16.386  1.00144.08     0.149 C 
ENDBRANCH   5  21
TORSDOF 2
ENDMDL
MODEL 7
REMARK VINA RESULT:      -5.8      8.969      9.962
REMARK  2 active torsions:
REMARK  status: ('A' for Active; 'I' for Inactive)
REMARK    1  A    between atoms: C5_5  and  N6_21 
REMARK    2  A    between atoms: C18_14  and  N17_19 
ROOT
HETATM    1  O1  MIQ B 502       2.703   3.795  19.945  1.00142.91    -0.171 OA
HETATM    2  C2  MIQ B 502       2.472   4.513  21.121  1.00141.17     0.195 A 
HETATM    3  C3  MIQ B 502       1.408   5.639  21.320  1.00141.71     0.035 A 
HETATM    4  C4  MIQ B 502       0.396   6.254  20.428  1.00142.86     0.046 A 
HETATM    5  C5  MIQ B 502      -0.451   7.284  20.909  1.00139.53     0.031 A 
HETATM    6  C12 MIQ B 502      -0.325   7.740  22.286  1.00139.38     0.030 A 
HETATM    7  C13 MIQ B 502       0.644   7.150  23.141  1.00141.18     0.019 A 
HETATM    8  C14 MIQ B 502       1.529   6.067  22.632  1.00138.77     0.033 A 
HETATM    9  C15 MIQ B 502       2.674   5.200  23.251  1.00142.10     0.195 A 
HETATM   10  N17 MIQ B 502       3.083   4.393  22.287  1.00139.42    -0.288 N 
HETATM   11  O16 MIQ B 502       3.162   5.271  24.557  1.00148.93    -0.171 OA
ENDROOT
BRANCH  10  12
HETATM   12  C18 MIQ B 502       4.161   3.445  22.499  1.00139.82     0.187 C 
HETATM   13  C19 MIQ B 502       5.242   3.722  21.447  1.00140.06     0.247 C 
HETATM   14  O25 MIQ B 502       5.644   4.823  21.310  1.00143.95    -0.271 OA
HETATM   15  N20 MIQ B 502       5.789   2.668  20.618  1.00140.02    -0.296 N 
HETATM   16  H13 MIQ B 502       6.490   2.863  19.930  1.00142.77     0.171 HD
HETATM   17  C21 MIQ B 502       5.275   1.335  20.796  1.00142.22     0.224 C 
HETATM   18  C22 MIQ B 502       3.811   1.214  21.175  1.00139.52     0.106 C 
HETATM   19  O24 MIQ B 502       5.963   0.384  20.659  1.00146.13    -0.273 OA
HETATM   20  C23 MIQ B 502       3.628   2.014  22.451  1.00139.15     0.045 C 
ENDBRANCH  10  12
BRANCH   5  21
HETATM   21  N6  MIQ B 502      -1.428   7.888  20.020  1.00140.95    -0.377 N 
HETATM   22  C7  MIQ B 502      -2.745   7.284  19.923  1.00142.12     0.149 C 
HETATM   23  C8  MIQ B 502      -3.402   7.565  18.578  1.00144.10     0.187 C 
HETATM   24  O9  MIQ B 502      -3.334   8.911  18.211  1.00148.65    -0.388 OA
HETATM   25  C10 MIQ B 502      -2.532   9.800  18.930  1.00147.44     0.187 C 
HETATM   26  C11 MIQ B 502      -1.268   9.268  19.596  1.00144.08     0.149 C 
ENDBRANCH   5  21
TORSDOF 2
ENDMDL
MODEL 8
REMARK VINA RESULT:      -5.7      5.453      8.660
REMARK  2 active torsions:
REMARK  status: ('A' for Active; 'I' for Inactive)
REMARK    1  A    between atoms: C5_5  and  N6_21 
REMARK    2  A    between atoms: C18_14  and  N17_19 
ROOT
HETATM    1  O1  MIQ B 502     -10.223  -1.840  21.045  1.00142.91    -0.171 OA
HETATM    2  C2  MIQ B 502      -8.980  -2.339  21.440  1.00141.17     0.195 A 
HETATM    3  C3  MIQ B 502      -8.721  -3.361  22.594  1.00141.71     0.035 A 
HETATM    4  C4  MIQ B 502      -9.608  -4.067  23.548  1.00142.86     0.046 A 
HETATM    5  C5  MIQ B 502      -9.065  -4.959  24.507  1.00139.53     0.031 A 
HETATM    6  C12 MIQ B 502      -7.627  -5.182  24.552  1.00139.38     0.030 A 
HETATM    7  C13 MIQ B 502      -6.776  -4.507  23.636  1.00141.18     0.019 A 
HETATM    8  C14 MIQ B 502      -7.352  -3.573  22.631  1.00138.77     0.033 A 
HETATM    9  C15 MIQ B 502      -6.759  -2.679  21.494  1.00142.10     0.195 A 
HETATM   10  N17 MIQ B 502      -7.789  -2.067  20.934  1.00139.42    -0.288 N 
HETATM   11  O16 MIQ B 502      -5.412  -2.553  21.146  1.00148.93    -0.171 OA
ENDROOT
BRANCH  10  12
HETATM   12  C18 MIQ B 502      -7.612  -1.133  19.838  1.00139.82     0.187 C 
HETATM   13  C19 MIQ B 502      -8.306   0.178  20.224  1.00140.06     0.247 C 
HETATM   14  O25 MIQ B 502      -8.064   0.673  21.267  1.00143.95    -0.271 OA
HETATM   15  N20 MIQ B 502      -9.249   0.833  19.340  1.00140.02    -0.296 N 
HETATM   16  H13 MIQ B 502      -9.701   1.685  19.606  1.00142.77     0.171 HD
HETATM   17  C21 MIQ B 502      -9.536   0.204  18.076  1.00142.22     0.224 C 
HETATM   18  C22 MIQ B 502      -9.516  -1.312  18.049  1.00139.52     0.106 C 
HETATM   19  O24 MIQ B 502      -9.771   0.841  17.109  1.00146.13    -0.273 OA
HETATM   20  C23 MIQ B 502      -8.142  -1.734  18.537  1.00139.15     0.045 C 
ENDBRANCH  10  12
BRANCH   5  21
HETATM   21  N6  MIQ B 502      -9.944  -5.632  25.445  1.00140.95    -0.377 N 
HETATM   22  C7  MIQ B 502     -11.342  -5.238  25.492  1.00142.12     0.149 C 
HETATM   23  C8  MIQ B 502     -11.962  -5.506  26.857  1.00144.10     0.187 C 
HETATM   24  O9  MIQ B 502     -11.687  -6.787  27.338  1.00148.65    -0.388 OA
HETATM   25  C10 MIQ B 502     -10.745  -7.596  26.696  1.00147.44     0.187 C 
HETATM   26  C11 MIQ B 502      -9.573  -6.928  25.985  1.00144.08     0.149 C 
ENDBRANCH   5  21
TORSDOF 2
ENDMDL
MODEL 9
REMARK VINA RESULT:      -5.6     17.585     20.302
REMARK  2 active torsions:
REMARK  status: ('A' for Active; 'I' for Inactive)
REMARK    1  A    between atoms: C5_5  and  N6_21 
REMARK    2  A    between atoms: C18_14  and  N17_19 
ROOT
HETATM    1  O1  MIQ B 502       2.027 -18.720  16.018  1.00142.91    -0.171 OA
HETATM    2  C2  MIQ B 502       2.042 -20.030  15.534  1.00141.17     0.195 A 
HETATM    3  C3  MIQ B 502       2.517 -20.484  14.117  1.00141.71     0.035 A 
HETATM    4  C4  MIQ B 502       3.055 -19.759  12.942  1.00142.86     0.046 A 
HETATM    5  C5  MIQ B 502       3.409 -20.464  11.764  1.00139.53     0.031 A 
HETATM    6  C12 MIQ B 502       3.243 -21.910  11.710  1.00139.38     0.030 A 
HETATM    7  C13 MIQ B 502       2.729 -22.606  12.837  1.00141.18     0.019 A 
HETATM    8  C14 MIQ B 502       2.361 -21.860  14.072  1.00138.77     0.033 A 
HETATM    9  C15 MIQ B 502       1.786 -22.262  15.469  1.00142.10     0.195 A 
HETATM   10  N17 MIQ B 502       1.672 -21.137  16.155  1.00139.42    -0.288 N 
HETATM   11  O16 MIQ B 502       1.458 -23.550  15.898  1.00148.93    -0.171 OA
ENDROOT
BRANCH  10  12
HETATM   12  C18 MIQ B 502       1.150 -21.125  17.509  1.00139.82     0.187 C 
HETATM   13  C19 MIQ B 502       0.058 -20.050  17.578  1.00140.06     0.247 C 
HETATM   14  O25 MIQ B 502      -0.805 -20.052  16.773  1.00143.95    -0.271 OA
HETATM   15  N20 MIQ B 502       0.051 -19.034  18.611  1.00140.02    -0.296 N 
HETATM   16  H13 MIQ B 502      -0.664 -18.334  18.641  1.00142.77     0.171 HD
HETATM   17  C21 MIQ B 502       1.120 -19.046  19.576  1.00142.22     0.224 C 
HETATM   18  C22 MIQ B 502       2.478 -19.508  19.083  1.00139.52     0.106 C 
HETATM   19  O24 MIQ B 502       0.944 -18.717  20.697  1.00146.13    -0.273 OA
HETATM   20  C23 MIQ B 502       2.279 -20.901  18.513  1.00139.15     0.045 C 
ENDBRANCH  10  12
BRANCH   5  21
HETATM   21  N6  MIQ B 502       3.921 -19.739  10.615  1.00140.95    -0.377 N 
HETATM   22  C7  MIQ B 502       3.350 -20.016   9.309  1.00142.12     0.149 C 
HETATM   23  C8  MIQ B 502       4.336 -19.726   8.184  1.00144.10     0.187 C 
HETATM   24  O9  MIQ B 502       4.956 -18.481   8.313  1.00148.65    -0.388 OA
HETATM   25  C10 MIQ B 502       4.819 -17.741   9.490  1.00147.44     0.187 C 
HETATM   26  C11 MIQ B 502       4.637 -18.490  10.806  1.00144.08     0.149 C 
ENDBRANCH   5  21
TORSDOF 2
ENDMDL
