MODEL 1
REMARK VINA RESULT:      -7.4      0.000      0.000
REMARK  2 active torsions:
REMARK  status: ('A' for Active; 'I' for Inactive)
REMARK    1  A    between atoms: C5_5  and  N6_21 
REMARK    2  A    between atoms: C18_14  and  N17_19 
ROOT
HETATM    1  O1  MIQ B 502      22.752  -7.857   5.607  1.00142.91    -0.171 OA
HETATM    2  C2  MIQ B 502      21.764  -7.325   6.438  1.00141.17     0.195 A 
HETATM    3  C3  MIQ B 502      20.316  -7.880   6.622  1.00141.71     0.035 A 
HETATM    4  C4  MIQ B 502      19.585  -9.033   6.044  1.00142.86     0.046 A 
HETATM    5  C5  MIQ B 502      18.241  -9.289   6.416  1.00139.53     0.031 A 
HETATM    6  C12 MIQ B 502      17.577  -8.416   7.373  1.00139.38     0.030 A 
HETATM    7  C13 MIQ B 502      18.278  -7.312   7.929  1.00141.18     0.019 A 
HETATM    8  C14 MIQ B 502      19.689  -7.048   7.536  1.00138.77     0.033 A 
HETATM    9  C15 MIQ B 502      20.754  -5.971   7.921  1.00142.10     0.195 A 
HETATM   10  N17 MIQ B 502      21.842  -6.269   7.230  1.00139.42    -0.288 N 
HETATM   11  O16 MIQ B 502      20.585  -4.910   8.812  1.00148.93    -0.171 OA
ENDROOT
BRANCH  10  12
HETATM   12  C18 MIQ B 502      23.045  -5.463   7.326  1.00139.82     0.187 C 
HETATM   13  C19 MIQ B 502      23.386  -4.962   5.917  1.00140.06     0.247 C 
HETATM   14  O25 MIQ B 502      22.549  -4.431   5.277  1.00143.95    -0.271 OA
HETATM   15  N20 MIQ B 502      24.710  -5.118   5.350  1.00140.02    -0.296 N 
HETATM   16  H13 MIQ B 502      24.918  -4.793   4.427  1.00142.77     0.171 HD
HETATM   17  C21 MIQ B 502      25.711  -5.779   6.147  1.00142.22     0.224 C 
HETATM   18  C22 MIQ B 502      25.229  -6.885   7.067  1.00139.52     0.106 C 
HETATM   19  O24 MIQ B 502      26.850  -5.470   6.089  1.00146.13    -0.273 OA
HETATM   20  C23 MIQ B 502      24.175  -6.268   7.967  1.00139.15     0.045 C 
ENDBRANCH  10  12
BRANCH   5  21
HETATM   21  N6  MIQ B 502      17.533 -10.413   5.830  1.00140.95    -0.377 N 
HETATM   22  C7  MIQ B 502      16.792 -10.201   4.599  1.00142.12     0.149 C 
HETATM   23  C8  MIQ B 502      15.637 -11.183   4.454  1.00144.10     0.187 C 
HETATM   24  O9  MIQ B 502      16.013 -12.504   4.704  1.00148.65    -0.388 OA
HETATM   25  C10 MIQ B 502      17.265 -12.792   5.252  1.00147.44     0.187 C 
HETATM   26  C11 MIQ B 502      17.904 -11.771   6.187  1.00144.08     0.149 C 
ENDBRANCH   5  21
TORSDOF 2
ENDMDL
MODEL 2
REMARK VINA RESULT:      -7.2      2.037      2.694
REMARK  2 active torsions:
REMARK  status: ('A' for Active; 'I' for Inactive)
REMARK    1  A    between atoms: C5_5  and  N6_21 
REMARK    2  A    between atoms: C18_14  and  N17_19 
ROOT
HETATM    1  O1  MIQ B 502      22.906  -5.748   6.185  1.00142.91    -0.171 OA
HETATM    2  C2  MIQ B 502      22.818  -6.702   7.202  1.00141.17     0.195 A 
HETATM    3  C3  MIQ B 502      21.639  -7.702   7.429  1.00141.71     0.035 A 
HETATM    4  C4  MIQ B 502      20.362  -7.949   6.719  1.00142.86     0.046 A 
HETATM    5  C5  MIQ B 502      19.472  -8.954   7.174  1.00139.53     0.031 A 
HETATM    6  C12 MIQ B 502      19.816  -9.748   8.345  1.00139.38     0.030 A 
HETATM    7  C13 MIQ B 502      21.041  -9.512   9.025  1.00141.18     0.019 A 
HETATM    8  C14 MIQ B 502      21.973  -8.457   8.541  1.00138.77     0.033 A 
HETATM    9  C15 MIQ B 502      23.367  -7.924   9.007  1.00142.10     0.195 A 
HETATM   10  N17 MIQ B 502      23.691  -6.961   8.160  1.00139.42    -0.288 N 
HETATM   11  O16 MIQ B 502      24.112  -8.375  10.098  1.00148.93    -0.171 OA
ENDROOT
BRANCH  10  12
HETATM   12  C18 MIQ B 502      24.931  -6.219   8.295  1.00139.82     0.187 C 
HETATM   13  C19 MIQ B 502      24.584  -4.725   8.293  1.00140.06     0.247 C 
HETATM   14  O25 MIQ B 502      23.750  -4.326   9.026  1.00143.95    -0.271 OA
HETATM   15  N20 MIQ B 502      25.257  -3.786   7.420  1.00140.02    -0.296 N 
HETATM   16  H13 MIQ B 502      25.017  -2.814   7.423  1.00142.77     0.171 HD
HETATM   17  C21 MIQ B 502      26.265  -4.298   6.527  1.00142.22     0.224 C 
HETATM   18  C22 MIQ B 502      26.046  -5.697   5.984  1.00139.52     0.106 C 
HETATM   19  O24 MIQ B 502      27.216  -3.660   6.238  1.00146.13    -0.273 OA
HETATM   20  C23 MIQ B 502      25.909  -6.610   7.189  1.00139.15     0.045 C 
ENDBRANCH  10  12
BRANCH   5  21
HETATM   21  N6  MIQ B 502      18.217  -9.175   6.478  1.00140.95    -0.377 N 
HETATM   22  C7  MIQ B 502      17.925 -10.508   5.979  1.00142.12     0.149 C 
HETATM   23  C8  MIQ B 502      16.983 -10.473   4.782  1.00144.10     0.187 C 
HETATM   24  O9  MIQ B 502      15.870  -9.656   4.990  1.00148.65    -0.388 OA
HETATM   25  C10 MIQ B 502      15.810  -8.811   6.101  1.00147.44     0.187 C 
HETATM   26  C11 MIQ B 502      17.113  -8.249   6.661  1.00144.08     0.149 C 
ENDBRANCH   5  21
TORSDOF 2
ENDMDL
MODEL 3
REMARK VINA RESULT:      -6.9      1.678      2.116
REMARK  2 active torsions:
REMARK  status: ('A' for Active; 'I' for Inactive)
REMARK    1  A    between atoms: C5_5  and  N6_21 
REMARK    2  A    between atoms: C18_14  and  N17_19 
ROOT
HETATM    1  O1  MIQ B 502      23.163  -7.900   5.496  1.00142.91    -0.171 OA
HETATM    2  C2  MIQ B 502      22.206  -7.255   6.283  1.00141.17     0.195 A 
HETATM    3  C3  MIQ B 502      20.728  -7.711   6.496  1.00141.71     0.035 A 
HETATM    4  C4  MIQ B 502      19.932  -8.856   5.991  1.00142.86     0.046 A 
HETATM    5  C5  MIQ B 502      18.574  -9.008   6.372  1.00139.53     0.031 A 
HETATM    6  C12 MIQ B 502      17.961  -8.034   7.263  1.00139.38     0.030 A 
HETATM    7  C13 MIQ B 502      18.724  -6.937   7.748  1.00141.18     0.019 A 
HETATM    8  C14 MIQ B 502      20.149  -6.784   7.347  1.00138.77     0.033 A 
HETATM    9  C15 MIQ B 502      21.275  -5.747   7.665  1.00142.10     0.195 A 
HETATM   10  N17 MIQ B 502      22.345  -6.155   7.003  1.00139.42    -0.288 N 
HETATM   11  O16 MIQ B 502      21.167  -4.620   8.482  1.00148.93    -0.171 OA
ENDROOT
BRANCH  10  12
HETATM   12  C18 MIQ B 502      23.593  -5.416   7.051  1.00139.82     0.187 C 
HETATM   13  C19 MIQ B 502      23.925  -5.155   8.525  1.00140.06     0.247 C 
HETATM   14  O25 MIQ B 502      23.917  -6.056   9.286  1.00143.95    -0.271 OA
HETATM   15  N20 MIQ B 502      24.254  -3.830   9.011  1.00140.02    -0.296 N 
HETATM   16  H13 MIQ B 502      24.462  -3.672   9.977  1.00142.77     0.171 HD
HETATM   17  C21 MIQ B 502      24.246  -2.744   8.065  1.00142.22     0.224 C 
HETATM   18  C22 MIQ B 502      23.230  -2.825   6.943  1.00139.52     0.106 C 
HETATM   19  O24 MIQ B 502      25.000  -1.838   8.158  1.00146.13    -0.273 OA
HETATM   20  C23 MIQ B 502      23.485  -4.136   6.223  1.00139.15     0.045 C 
ENDBRANCH  10  12
BRANCH   5  21
HETATM   21  N6  MIQ B 502      17.803 -10.125   5.859  1.00140.95    -0.377 N 
HETATM   22  C7  MIQ B 502      17.130  -9.975   4.580  1.00142.12     0.149 C 
HETATM   23  C8  MIQ B 502      15.907 -10.877   4.472  1.00144.10     0.187 C 
HETATM   24  O9  MIQ B 502      16.166 -12.193   4.859  1.00148.65    -0.388 OA
HETATM   25  C10 MIQ B 502      17.369 -12.521   5.489  1.00147.44     0.187 C 
HETATM   26  C11 MIQ B 502      18.050 -11.467   6.356  1.00144.08     0.149 C 
ENDBRANCH   5  21
TORSDOF 2
ENDMDL
MODEL 4
REMARK VINA RESULT:      -6.9      3.036      8.175
REMARK  2 active torsions:
REMARK  status: ('A' for Active; 'I' for Inactive)
REMARK    1  A    between atoms: C5_5  and  N6_21 
REMARK    2  A    between atoms: C18_14  and  N17_19 
ROOT
HETATM    1  O1  MIQ B 502      19.346  -4.946   9.202  1.00142.91    -0.171 OA
HETATM    2  C2  MIQ B 502      19.749  -5.992   8.369  1.00141.17     0.195 A 
HETATM    3  C3  MIQ B 502      21.081  -6.063   7.557  1.00141.71     0.035 A 
HETATM    4  C4  MIQ B 502      22.238  -5.148   7.415  1.00142.86     0.046 A 
HETATM    5  C5  MIQ B 502      23.331  -5.498   6.582  1.00139.53     0.031 A 
HETATM    6  C12 MIQ B 502      23.315  -6.764   5.863  1.00139.38     0.030 A 
HETATM    7  C13 MIQ B 502      22.206  -7.642   6.001  1.00141.18     0.019 A 
HETATM    8  C14 MIQ B 502      21.063  -7.271   6.878  1.00138.77     0.033 A 
HETATM    9  C15 MIQ B 502      19.713  -7.953   7.272  1.00142.10     0.195 A 
HETATM   10  N17 MIQ B 502      19.110  -7.118   8.102  1.00139.42    -0.288 N 
HETATM   11  O16 MIQ B 502      19.243  -9.192   6.832  1.00148.93    -0.171 OA
ENDROOT
BRANCH  10  12
HETATM   12  C18 MIQ B 502      17.807  -7.419   8.666  1.00139.82     0.187 C 
HETATM   13  C19 MIQ B 502      16.877  -6.242   8.349  1.00140.06     0.247 C 
HETATM   14  O25 MIQ B 502      16.796  -5.854   7.238  1.00143.95    -0.271 OA
HETATM   15  N20 MIQ B 502      16.087  -5.594   9.377  1.00140.02    -0.296 N 
HETATM   16  H13 MIQ B 502      15.488  -4.823   9.158  1.00142.77     0.171 HD
HETATM   17  C21 MIQ B 502      16.211  -6.079  10.728  1.00142.22     0.224 C 
HETATM   18  C22 MIQ B 502      17.573  -6.601  11.143  1.00139.52     0.106 C 
HETATM   19  O24 MIQ B 502      15.293  -6.074  11.472  1.00146.13    -0.273 OA
HETATM   20  C23 MIQ B 502      17.929  -7.704  10.162  1.00139.15     0.045 C 
ENDBRANCH  10  12
BRANCH   5  21
HETATM   21  N6  MIQ B 502      24.450  -4.585   6.440  1.00140.95    -0.377 N 
HETATM   22  C7  MIQ B 502      24.359  -3.272   7.055  1.00142.12     0.149 C 
HETATM   23  C8  MIQ B 502      25.222  -2.245   6.335  1.00144.10     0.187 C 
HETATM   24  O9  MIQ B 502      26.519  -2.700   6.091  1.00148.65    -0.388 OA
HETATM   25  C10 MIQ B 502      26.849  -4.042   6.298  1.00147.44     0.187 C 
HETATM   26  C11 MIQ B 502      25.766  -5.098   6.100  1.00144.08     0.149 C 
ENDBRANCH   5  21
TORSDOF 2
ENDMDL
MODEL 5
REMARK VINA RESULT:      -6.5      2.511      8.542
REMARK  2 active torsions:
REMARK  status: ('A' for Active; 'I' for Inactive)
REMARK    1  A    between atoms: C5_5  and  N6_21 
REMARK    2  A    between atoms: C18_14  and  N17_19 
ROOT
HETATM    1  O1  MIQ B 502      19.162  -5.270   9.154  1.00142.91    -0.171 OA
HETATM    2  C2  MIQ B 502      19.892  -5.944   8.173  1.00141.17     0.195 A 
HETATM    3  C3  MIQ B 502      21.240  -5.473   7.539  1.00141.71     0.035 A 
HETATM    4  C4  MIQ B 502      22.103  -4.286   7.746  1.00142.86     0.046 A 
HETATM    5  C5  MIQ B 502      23.300  -4.132   7.003  1.00139.53     0.031 A 
HETATM    6  C12 MIQ B 502      23.683  -5.147   6.031  1.00139.38     0.030 A 
HETATM    7  C13 MIQ B 502      22.857  -6.285   5.834  1.00141.18     0.019 A 
HETATM    8  C14 MIQ B 502      21.602  -6.443   6.619  1.00138.77     0.033 A 
HETATM    9  C15 MIQ B 502      20.473  -7.522   6.682  1.00142.10     0.195 A 
HETATM   10  N17 MIQ B 502      19.610  -7.096   7.589  1.00139.42    -0.288 N 
HETATM   11  O16 MIQ B 502      20.395  -8.695   5.928  1.00148.93    -0.171 OA
ENDROOT
BRANCH  10  12
HETATM   12  C18 MIQ B 502      18.410  -7.848   7.905  1.00139.82     0.187 C 
HETATM   13  C19 MIQ B 502      18.799  -9.327   8.013  1.00140.06     0.247 C 
HETATM   14  O25 MIQ B 502      19.706  -9.635   8.703  1.00143.95    -0.271 OA
HETATM   15  N20 MIQ B 502      18.081 -10.361   7.297  1.00140.02    -0.296 N 
HETATM   16  H13 MIQ B 502      18.349 -11.322   7.371  1.00142.77     0.171 HD
HETATM   17  C21 MIQ B 502      16.984  -9.959   6.454  1.00142.22     0.224 C 
HETATM   18  C22 MIQ B 502      17.113  -8.615   5.763  1.00139.52     0.106 C 
HETATM   19  O24 MIQ B 502      16.031 -10.643   6.313  1.00146.13    -0.273 OA
HETATM   20  C23 MIQ B 502      17.327  -7.586   6.859  1.00139.15     0.045 C 
ENDBRANCH  10  12
BRANCH   5  21
HETATM   21  N6  MIQ B 502      24.129  -2.957   7.205  1.00140.95    -0.377 N 
HETATM   22  C7  MIQ B 502      25.416  -2.891   6.535  1.00142.12     0.149 C 
HETATM   23  C8  MIQ B 502      26.404  -2.009   7.287  1.00144.10     0.187 C 
HETATM   24  O9  MIQ B 502      25.860  -0.777   7.658  1.00148.65    -0.388 OA
HETATM   25  C10 MIQ B 502      24.489  -0.542   7.530  1.00147.44     0.187 C 
HETATM   26  C11 MIQ B 502      23.530  -1.720   7.675  1.00144.08     0.149 C 
ENDBRANCH   5  21
TORSDOF 2
ENDMDL
MODEL 6
REMARK VINA RESULT:      -6.5      3.158      4.938
REMARK  2 active torsions:
REMARK  status: ('A' for Active; 'I' for Inactive)
REMARK    1  A    between atoms: C5_5  and  N6_21 
REMARK    2  A    between atoms: C18_14  and  N17_19 
ROOT
HETATM    1  O1  MIQ B 502      22.835  -2.785   8.149  1.00142.91    -0.171 OA
HETATM    2  C2  MIQ B 502      23.454  -3.847   7.485  1.00141.17     0.195 A 
HETATM    3  C3  MIQ B 502      22.779  -5.192   7.068  1.00141.71     0.035 A 
HETATM    4  C4  MIQ B 502      21.407  -5.734   7.218  1.00142.86     0.046 A 
HETATM    5  C5  MIQ B 502      21.088  -7.023   6.722  1.00139.53     0.031 A 
HETATM    6  C12 MIQ B 502      22.114  -7.818   6.063  1.00139.38     0.030 A 
HETATM    7  C13 MIQ B 502      23.428  -7.299   5.918  1.00141.18     0.019 A 
HETATM    8  C14 MIQ B 502      23.757  -5.944   6.438  1.00138.77     0.033 A 
HETATM    9  C15 MIQ B 502      25.047  -5.059   6.463  1.00142.10     0.195 A 
HETATM   10  N17 MIQ B 502      24.707  -3.936   7.073  1.00139.42    -0.288 N 
HETATM   11  O16 MIQ B 502      26.300  -5.394   5.948  1.00148.93    -0.171 OA
ENDROOT
BRANCH  10  12
HETATM   12  C18 MIQ B 502      25.669  -2.872   7.293  1.00139.82     0.187 C 
HETATM   13  C19 MIQ B 502      25.670  -2.545   8.791  1.00140.06     0.247 C 
HETATM   14  O25 MIQ B 502      25.795  -3.420   9.572  1.00143.95    -0.271 OA
HETATM   15  N20 MIQ B 502      25.527  -1.187   9.276  1.00140.02    -0.296 N 
HETATM   16  H13 MIQ B 502      25.523  -0.987  10.257  1.00142.77     0.171 HD
HETATM   17  C21 MIQ B 502      25.366  -0.137   8.304  1.00142.22     0.224 C 
HETATM   18  C22 MIQ B 502      24.610  -0.491   7.038  1.00139.52     0.106 C 
HETATM   19  O24 MIQ B 502      25.806   0.945   8.484  1.00146.13    -0.273 OA
HETATM   20  C23 MIQ B 502      25.340  -1.667   6.414  1.00139.15     0.045 C 
ENDBRANCH  10  12
BRANCH   5  21
HETATM   21  N6  MIQ B 502      19.744  -7.547   6.889  1.00140.95    -0.377 N 
HETATM   22  C7  MIQ B 502      19.543  -8.983   6.803  1.00142.12     0.149 C 
HETATM   23  C8  MIQ B 502      18.130  -9.333   6.353  1.00144.10     0.187 C 
HETATM   24  O9  MIQ B 502      17.148  -8.634   7.057  1.00148.65    -0.388 OA
HETATM   25  C10 MIQ B 502      17.498  -7.575   7.898  1.00147.44     0.187 C 
HETATM   26  C11 MIQ B 502      18.731  -6.746   7.553  1.00144.08     0.149 C 
ENDBRANCH   5  21
TORSDOF 2
ENDMDL
MODEL 7
REMARK VINA RESULT:      -6.4      1.574      1.820
REMARK  2 active torsions:
REMARK  status: ('A' for Active; 'I' for Inactive)
REMARK    1  A    between atoms: C5_5  and  N6_21 
REMARK    2  A    between atoms: C18_14  and  N17_19 
ROOT
HETATM    1  O1  MIQ B 502      23.041  -6.265   6.505  1.00142.91    -0.171 OA
HETATM    2  C2  MIQ B 502      22.060  -5.795   7.381  1.00141.17     0.195 A 
HETATM    3  C3  MIQ B 502      20.652  -6.430   7.616  1.00141.71     0.035 A 
HETATM    4  C4  MIQ B 502      19.962  -7.615   7.053  1.00142.86     0.046 A 
HETATM    5  C5  MIQ B 502      18.650  -7.948   7.475  1.00139.53     0.031 A 
HETATM    6  C12 MIQ B 502      17.979  -7.121   8.467  1.00139.38     0.030 A 
HETATM    7  C13 MIQ B 502      18.641  -5.986   9.008  1.00141.18     0.019 A 
HETATM    8  C14 MIQ B 502      20.019  -5.642   8.563  1.00138.77     0.033 A 
HETATM    9  C15 MIQ B 502      21.039  -4.512   8.919  1.00142.10     0.195 A 
HETATM   10  N17 MIQ B 502      22.113  -4.744   8.182  1.00139.42    -0.288 N 
HETATM   11  O16 MIQ B 502      20.849  -3.471   9.829  1.00148.93    -0.171 OA
ENDROOT
BRANCH  10  12
HETATM   12  C18 MIQ B 502      23.273  -3.875   8.240  1.00139.82     0.187 C 
HETATM   13  C19 MIQ B 502      23.606  -3.443   6.806  1.00140.06     0.247 C 
HETATM   14  O25 MIQ B 502      22.752  -2.993   6.128  1.00143.95    -0.271 OA
HETATM   15  N20 MIQ B 502      24.942  -3.566   6.262  1.00140.02    -0.296 N 
HETATM   16  H13 MIQ B 502      25.145  -3.286   5.322  1.00142.77     0.171 HD
HETATM   17  C21 MIQ B 502      25.965  -4.128   7.105  1.00142.22     0.224 C 
HETATM   18  C22 MIQ B 502      25.528  -5.199   8.085  1.00139.52     0.106 C 
HETATM   19  O24 MIQ B 502      27.088  -3.766   7.039  1.00146.13    -0.273 OA
HETATM   20  C23 MIQ B 502      24.434  -4.583   8.938  1.00139.15     0.045 C 
ENDBRANCH  10  12
BRANCH   5  21
HETATM   21  N6  MIQ B 502      17.981  -9.102   6.904  1.00140.95    -0.377 N 
HETATM   22  C7  MIQ B 502      16.848  -8.882   6.022  1.00142.12     0.149 C 
HETATM   23  C8  MIQ B 502      15.887 -10.064   6.024  1.00144.10     0.187 C 
HETATM   24  O9  MIQ B 502      16.535 -11.291   5.869  1.00148.65    -0.388 OA
HETATM   25  C10 MIQ B 502      17.928 -11.371   5.947  1.00147.44     0.187 C 
HETATM   26  C11 MIQ B 502      18.666 -10.381   6.842  1.00144.08     0.149 C 
ENDBRANCH   5  21
TORSDOF 2
ENDMDL
MODEL 8
REMARK VINA RESULT:      -6.3     10.105     11.131
REMARK  2 active torsions:
REMARK  status: ('A' for Active; 'I' for Inactive)
REMARK    1  A    between atoms: C5_5  and  N6_21 
REMARK    2  A    between atoms: C18_14  and  N17_19 
ROOT
HETATM    1  O1  MIQ B 502      21.263  -1.566  -4.138  1.00142.91    -0.171 OA
HETATM    2  C2  MIQ B 502      20.348  -1.801  -3.110  1.00141.17     0.195 A 
HETATM    3  C3  MIQ B 502      19.251  -2.913  -3.087  1.00141.71     0.035 A 
HETATM    4  C4  MIQ B 502      18.858  -3.976  -4.043  1.00142.86     0.046 A 
HETATM    5  C5  MIQ B 502      17.793  -4.860  -3.733  1.00139.53     0.031 A 
HETATM    6  C12 MIQ B 502      17.083  -4.721  -2.470  1.00139.38     0.030 A 
HETATM    7  C13 MIQ B 502      17.461  -3.703  -1.553  1.00141.18     0.019 A 
HETATM    8  C14 MIQ B 502      18.581  -2.780  -1.882  1.00138.77     0.033 A 
HETATM    9  C15 MIQ B 502      19.266  -1.579  -1.152  1.00142.10     0.195 A 
HETATM   10  N17 MIQ B 502      20.221  -1.155  -1.963  1.00139.42    -0.288 N 
HETATM   11  O16 MIQ B 502      18.932  -1.062   0.101  1.00148.93    -0.171 OA
ENDROOT
BRANCH  10  12
HETATM   12  C18 MIQ B 502      21.065  -0.028  -1.615  1.00139.82     0.187 C 
HETATM   13  C19 MIQ B 502      21.017   0.970  -2.779  1.00140.06     0.247 C 
HETATM   14  O25 MIQ B 502      19.970   1.316  -3.198  1.00143.95    -0.271 OA
HETATM   15  N20 MIQ B 502      22.223   1.504  -3.378  1.00140.02    -0.296 N 
HETATM   16  H13 MIQ B 502      22.178   2.150  -4.141  1.00142.77     0.171 HD
HETATM   17  C21 MIQ B 502      23.490   1.058  -2.856  1.00142.22     0.224 C 
HETATM   18  C22 MIQ B 502      23.554  -0.371  -2.354  1.00139.52     0.106 C 
HETATM   19  O24 MIQ B 502      24.429   1.775  -2.818  1.00146.13    -0.273 OA
HETATM   20  C23 MIQ B 502      22.480  -0.503  -1.289  1.00139.15     0.045 C 
ENDBRANCH  10  12
BRANCH   5  21
HETATM   21  N6  MIQ B 502      17.409  -5.887  -4.685  1.00140.95    -0.377 N 
HETATM   22  C7  MIQ B 502      16.541  -6.961  -4.234  1.00142.12     0.149 C 
HETATM   23  C8  MIQ B 502      16.737  -8.231  -5.052  1.00144.10     0.187 C 
HETATM   24  O9  MIQ B 502      16.733  -7.998  -6.428  1.00148.65    -0.388 OA
HETATM   25  C10 MIQ B 502      16.778  -6.693  -6.925  1.00147.44     0.187 C 
HETATM   26  C11 MIQ B 502      17.504  -5.627  -6.111  1.00144.08     0.149 C 
ENDBRANCH   5  21
TORSDOF 2
ENDMDL
MODEL 9
REMARK VINA RESULT:      -6.3      2.445      8.047
REMARK  2 active torsions:
REMARK  status: ('A' for Active; 'I' for Inactive)
REMARK    1  A    between atoms: C5_5  and  N6_21 
REMARK    2  A    between atoms: C18_14  and  N17_19 
ROOT
HETATM    1  O1  MIQ B 502      20.613  -7.869   6.270  1.00142.91    -0.171 OA
HETATM    2  C2  MIQ B 502      20.259  -7.039   7.336  1.00141.17     0.195 A 
HETATM    3  C3  MIQ B 502      20.951  -5.694   7.725  1.00141.71     0.035 A 
HETATM    4  C4  MIQ B 502      22.086  -4.929   7.156  1.00142.86     0.046 A 
HETATM    5  C5  MIQ B 502      22.493  -3.705   7.745  1.00139.53     0.031 A 
HETATM    6  C12 MIQ B 502      21.790  -3.197   8.914  1.00139.38     0.030 A 
HETATM    7  C13 MIQ B 502      20.701  -3.929   9.459  1.00141.18     0.019 A 
HETATM    8  C14 MIQ B 502      20.277  -5.213   8.836  1.00138.77     0.033 A 
HETATM    9  C15 MIQ B 502      19.160  -6.265   9.137  1.00142.10     0.195 A 
HETATM   10  N17 MIQ B 502      19.287  -7.206   8.216  1.00139.42    -0.288 N 
HETATM   11  O16 MIQ B 502      18.224  -6.217  10.171  1.00148.93    -0.171 OA
ENDROOT
BRANCH  10  12
HETATM   12  C18 MIQ B 502      18.416  -8.366   8.194  1.00139.82     0.187 C 
HETATM   13  C19 MIQ B 502      19.295  -9.606   7.989  1.00140.06     0.247 C 
HETATM   14  O25 MIQ B 502      20.230  -9.772   8.688  1.00143.95    -0.271 OA
HETATM   15  N20 MIQ B 502      19.005 -10.587   6.962  1.00140.02    -0.296 N 
HETATM   16  H13 MIQ B 502      19.590 -11.389   6.834  1.00142.77     0.171 HD
HETATM   17  C21 MIQ B 502      17.863 -10.358   6.114  1.00142.22     0.224 C 
HETATM   18  C22 MIQ B 502      17.535  -8.913   5.789  1.00139.52     0.106 C 
HETATM   19  O24 MIQ B 502      17.213 -11.253   5.698  1.00146.13    -0.273 OA
HETATM   20  C23 MIQ B 502      17.343  -8.205   7.118  1.00139.15     0.045 C 
ENDBRANCH  10  12
BRANCH   5  21
HETATM   21  N6  MIQ B 502      23.616  -2.975   7.186  1.00140.95    -0.377 N 
HETATM   22  C7  MIQ B 502      24.507  -3.665   6.269  1.00142.12     0.149 C 
HETATM   23  C8  MIQ B 502      25.907  -3.064   6.277  1.00144.10     0.187 C 
HETATM   24  O9  MIQ B 502      25.901  -1.672   6.169  1.00148.65    -0.388 OA
HETATM   25  C10 MIQ B 502      24.706  -0.958   6.285  1.00147.44     0.187 C 
HETATM   26  C11 MIQ B 502      23.603  -1.522   7.174  1.00144.08     0.149 C 
ENDBRANCH   5  21
TORSDOF 2
ENDMDL
