MODEL 1
REMARK VINA RESULT:      -6.8      0.000      0.000
REMARK  2 active torsions:
REMARK  status: ('A' for Active; 'I' for Inactive)
REMARK    1  A    between atoms: C5_5  and  N6_21 
REMARK    2  A    between atoms: C18_14  and  N17_19 
ROOT
HETATM    1  O1  MIQ B 502      -6.463   8.532  13.047  1.00142.91    -0.171 OA
HETATM    2  C2  MIQ B 502      -6.941   9.844  13.064  1.00141.17     0.195 A 
HETATM    3  C3  MIQ B 502      -6.520  10.966  14.065  1.00141.71     0.035 A 
HETATM    4  C4  MIQ B 502      -5.573  11.012  15.205  1.00142.86     0.046 A 
HETATM    5  C5  MIQ B 502      -5.399  12.209  15.944  1.00139.53     0.031 A 
HETATM    6  C12 MIQ B 502      -6.154  13.400  15.580  1.00139.38     0.030 A 
HETATM    7  C13 MIQ B 502      -7.061  13.356  14.487  1.00141.18     0.019 A 
HETATM    8  C14 MIQ B 502      -7.238  12.098  13.713  1.00138.77     0.033 A 
HETATM    9  C15 MIQ B 502      -8.110  11.675  12.486  1.00142.10     0.195 A 
HETATM   10  N17 MIQ B 502      -7.825  10.404  12.255  1.00139.42    -0.288 N 
HETATM   11  O16 MIQ B 502      -9.008  12.480  11.782  1.00148.93    -0.171 OA
ENDROOT
BRANCH  10  12
HETATM   12  C18 MIQ B 502      -8.469   9.666  11.185  1.00139.82     0.187 C 
HETATM   13  C19 MIQ B 502      -8.460  10.553   9.934  1.00140.06     0.247 C 
HETATM   14  O25 MIQ B 502      -7.446  11.044   9.583  1.00143.95    -0.271 OA
HETATM   15  N20 MIQ B 502      -9.662  10.802   9.166  1.00140.02    -0.296 N 
HETATM   16  H13 MIQ B 502      -9.645  11.388   8.355  1.00142.77     0.171 HD
HETATM   17  C21 MIQ B 502     -10.890  10.200   9.620  1.00142.22     0.224 C 
HETATM   18  C22 MIQ B 502     -11.059  10.046  11.119  1.00139.52     0.106 C 
HETATM   19  O24 MIQ B 502     -11.720   9.840   8.859  1.00146.13    -0.273 OA
HETATM   20  C23 MIQ B 502      -9.872   9.234  11.606  1.00139.15     0.045 C 
ENDBRANCH  10  12
BRANCH   5  21
HETATM   21  N6  MIQ B 502      -4.479  12.236  17.067  1.00140.95    -0.377 N 
HETATM   22  C7  MIQ B 502      -3.351  11.321  17.062  1.00142.12     0.149 C 
HETATM   23  C8  MIQ B 502      -2.882  10.989  18.473  1.00144.10     0.187 C 
HETATM   24  O9  MIQ B 502      -2.729  12.121  19.275  1.00148.65    -0.388 OA
HETATM   25  C10 MIQ B 502      -3.198  13.364  18.842  1.00147.44     0.187 C 
HETATM   26  C11 MIQ B 502      -4.417  13.405  17.926  1.00144.08     0.149 C 
ENDBRANCH   5  21
TORSDOF 2
ENDMDL
MODEL 2
REMARK VINA RESULT:      -6.4      1.315      2.485
REMARK  2 active torsions:
REMARK  status: ('A' for Active; 'I' for Inactive)
REMARK    1  A    between atoms: C5_5  and  N6_21 
REMARK    2  A    between atoms: C18_14  and  N17_19 
ROOT
HETATM    1  O1  MIQ B 502      -8.858  12.208  12.506  1.00142.91    -0.171 OA
HETATM    2  C2  MIQ B 502      -7.892  11.272  12.881  1.00141.17     0.195 A 
HETATM    3  C3  MIQ B 502      -6.872  11.419  14.055  1.00141.71     0.035 A 
HETATM    4  C4  MIQ B 502      -6.616  12.481  15.056  1.00142.86     0.046 A 
HETATM    5  C5  MIQ B 502      -5.593  12.323  16.024  1.00139.53     0.031 A 
HETATM    6  C12 MIQ B 502      -4.790  11.108  16.035  1.00139.38     0.030 A 
HETATM    7  C13 MIQ B 502      -5.036  10.088  15.076  1.00141.18     0.019 A 
HETATM    8  C14 MIQ B 502      -6.113  10.260  14.063  1.00138.77     0.033 A 
HETATM    9  C15 MIQ B 502      -6.665   9.388  12.888  1.00142.10     0.195 A 
HETATM   10  N17 MIQ B 502      -7.644  10.091  12.342  1.00139.42    -0.288 N 
HETATM   11  O16 MIQ B 502      -6.212   8.127  12.499  1.00148.93    -0.171 OA
ENDROOT
BRANCH  10  12
HETATM   12  C18 MIQ B 502      -8.386   9.593  11.198  1.00139.82     0.187 C 
HETATM   13  C19 MIQ B 502      -8.377  10.686  10.123  1.00140.06     0.247 C 
HETATM   14  O25 MIQ B 502      -7.350  11.171   9.804  1.00143.95    -0.271 OA
HETATM   15  N20 MIQ B 502      -9.595  11.137   9.481  1.00140.02    -0.296 N 
HETATM   16  H13 MIQ B 502      -9.576  11.856   8.785  1.00142.77     0.171 HD
HETATM   17  C21 MIQ B 502     -10.837  10.537   9.895  1.00142.22     0.224 C 
HETATM   18  C22 MIQ B 502     -10.945  10.129  11.352  1.00139.52     0.106 C 
HETATM   19  O24 MIQ B 502     -11.724  10.367   9.134  1.00146.13    -0.273 OA
HETATM   20  C23 MIQ B 502      -9.794   9.176  11.619  1.00139.15     0.045 C 
ENDBRANCH  10  12
BRANCH   5  21
HETATM   21  N6  MIQ B 502      -5.344  13.378  16.989  1.00140.95    -0.377 N 
HETATM   22  C7  MIQ B 502      -6.290  13.563  18.076  1.00142.12     0.149 C 
HETATM   23  C8  MIQ B 502      -6.295  14.998  18.588  1.00144.10     0.187 C 
HETATM   24  O9  MIQ B 502      -5.011  15.495  18.822  1.00148.65    -0.388 OA
HETATM   25  C10 MIQ B 502      -3.888  14.787  18.390  1.00147.44     0.187 C 
HETATM   26  C11 MIQ B 502      -4.006  13.925  17.137  1.00144.08     0.149 C 
ENDBRANCH   5  21
TORSDOF 2
ENDMDL
MODEL 3
REMARK VINA RESULT:      -6.4      5.089      8.008
REMARK  2 active torsions:
REMARK  status: ('A' for Active; 'I' for Inactive)
REMARK    1  A    between atoms: C5_5  and  N6_21 
REMARK    2  A    between atoms: C18_14  and  N17_19 
ROOT
HETATM    1  O1  MIQ B 502      -2.993  11.037  17.982  1.00142.91    -0.171 OA
HETATM    2  C2  MIQ B 502      -3.842  11.376  19.038  1.00141.17     0.195 A 
HETATM    3  C3  MIQ B 502      -3.698  10.913  20.523  1.00141.71     0.035 A 
HETATM    4  C4  MIQ B 502      -2.720  10.055  21.232  1.00142.86     0.046 A 
HETATM    5  C5  MIQ B 502      -2.855   9.812  22.622  1.00139.53     0.031 A 
HETATM    6  C12 MIQ B 502      -3.962  10.409  23.356  1.00139.38     0.030 A 
HETATM    7  C13 MIQ B 502      -4.900  11.232  22.676  1.00141.18     0.019 A 
HETATM    8  C14 MIQ B 502      -4.751  11.486  21.217  1.00138.77     0.033 A 
HETATM    9  C15 MIQ B 502      -5.552  12.311  20.158  1.00142.10     0.195 A 
HETATM   10  N17 MIQ B 502      -4.917  12.146  19.009  1.00139.42    -0.288 N 
HETATM   11  O16 MIQ B 502      -6.706  13.064  20.383  1.00148.93    -0.171 OA
ENDROOT
BRANCH  10  12
HETATM   12  C18 MIQ B 502      -5.392  12.762  17.785  1.00139.82     0.187 C 
HETATM   13  C19 MIQ B 502      -5.562  11.653  16.739  1.00140.06     0.247 C 
HETATM   14  O25 MIQ B 502      -6.182  10.689  17.016  1.00143.95    -0.271 OA
HETATM   15  N20 MIQ B 502      -4.985  11.759  15.414  1.00140.02    -0.296 N 
HETATM   16  H13 MIQ B 502      -5.098  11.026  14.742  1.00142.77     0.171 HD
HETATM   17  C21 MIQ B 502      -4.223  12.941  15.102  1.00142.22     0.224 C 
HETATM   18  C22 MIQ B 502      -3.436  13.564  16.239  1.00139.52     0.106 C 
HETATM   19  O24 MIQ B 502      -4.218  13.403  14.015  1.00146.13    -0.273 OA
HETATM   20  C23 MIQ B 502      -4.437  13.868  17.340  1.00139.15     0.045 C 
ENDBRANCH  10  12
BRANCH   5  21
HETATM   21  N6  MIQ B 502      -1.898   8.958  23.302  1.00140.95    -0.377 N 
HETATM   22  C7  MIQ B 502      -1.674   7.618  22.786  1.00142.12     0.149 C 
HETATM   23  C8  MIQ B 502      -1.203   6.661  23.873  1.00144.10     0.187 C 
HETATM   24  O9  MIQ B 502      -0.164   7.185  24.646  1.00148.65    -0.388 OA
HETATM   25  C10 MIQ B 502       0.192   8.531  24.532  1.00147.44     0.187 C 
HETATM   26  C11 MIQ B 502      -0.887   9.543  24.165  1.00144.08     0.149 C 
ENDBRANCH   5  21
TORSDOF 2
ENDMDL
MODEL 4
REMARK VINA RESULT:      -6.4     12.157     14.873
REMARK  2 active torsions:
REMARK  status: ('A' for Active; 'I' for Inactive)
REMARK    1  A    between atoms: C5_5  and  N6_21 
REMARK    2  A    between atoms: C18_14  and  N17_19 
ROOT
HETATM    1  O1  MIQ B 502       2.799   1.831  21.995  1.00142.91    -0.171 OA
HETATM    2  C2  MIQ B 502       1.740   2.176  21.152  1.00141.17     0.195 A 
HETATM    3  C3  MIQ B 502       0.721   3.338  21.379  1.00141.71     0.035 A 
HETATM    4  C4  MIQ B 502       0.556   4.355  22.444  1.00142.86     0.046 A 
HETATM    5  C5  MIQ B 502      -0.493   5.306  22.371  1.00139.53     0.031 A 
HETATM    6  C12 MIQ B 502      -1.411   5.284  21.241  1.00139.38     0.030 A 
HETATM    7  C13 MIQ B 502      -1.251   4.310  20.218  1.00141.18     0.019 A 
HETATM    8  C14 MIQ B 502      -0.147   3.315  20.300  1.00138.77     0.033 A 
HETATM    9  C15 MIQ B 502       0.335   2.132  19.398  1.00142.10     0.195 A 
HETATM   10  N17 MIQ B 502       1.386   1.612  20.010  1.00139.42    -0.288 N 
HETATM   11  O16 MIQ B 502      -0.233   1.714  18.194  1.00148.93    -0.171 OA
ENDROOT
BRANCH  10  12
HETATM   12  C18 MIQ B 502       2.094   0.470  19.461  1.00139.82     0.187 C 
HETATM   13  C19 MIQ B 502       2.180  -0.598  20.558  1.00140.06     0.247 C 
HETATM   14  O25 MIQ B 502       1.199  -0.920  21.127  1.00143.95    -0.271 OA
HETATM   15  N20 MIQ B 502       3.435  -1.228  20.913  1.00140.02    -0.296 N 
HETATM   16  H13 MIQ B 502       3.480  -1.919  21.636  1.00142.77     0.171 HD
HETATM   17  C21 MIQ B 502       4.622  -0.811  20.211  1.00142.22     0.224 C 
HETATM   18  C22 MIQ B 502       4.686   0.644  19.787  1.00139.52     0.106 C 
HETATM   19  O24 MIQ B 502       5.498  -1.568  19.974  1.00146.13    -0.273 OA
HETATM   20  C23 MIQ B 502       3.460   0.897  18.928  1.00139.15     0.045 C 
ENDBRANCH  10  12
BRANCH   5  21
HETATM   21  N6  MIQ B 502      -0.652   6.287  23.429  1.00140.95    -0.377 N 
HETATM   22  C7  MIQ B 502       0.297   7.383  23.509  1.00142.12     0.149 C 
HETATM   23  C8  MIQ B 502       0.430   7.918  24.929  1.00144.10     0.187 C 
HETATM   24  O9  MIQ B 502      -0.804   8.152  25.539  1.00148.65    -0.388 OA
HETATM   25  C10 MIQ B 502      -1.985   7.700  24.944  1.00147.44     0.187 C 
HETATM   26  C11 MIQ B 502      -1.935   6.434  24.094  1.00144.08     0.149 C 
ENDBRANCH   5  21
TORSDOF 2
ENDMDL
MODEL 5
REMARK VINA RESULT:      -6.4     13.416     16.943
REMARK  2 active torsions:
REMARK  status: ('A' for Active; 'I' for Inactive)
REMARK    1  A    between atoms: C5_5  and  N6_21 
REMARK    2  A    between atoms: C18_14  and  N17_19 
ROOT
HETATM    1  O1  MIQ B 502       2.856   2.503  19.360  1.00142.91    -0.171 OA
HETATM    2  C2  MIQ B 502       2.693   1.120  19.464  1.00141.17     0.195 A 
HETATM    3  C3  MIQ B 502       3.759   0.036  19.108  1.00141.71     0.035 A 
HETATM    4  C4  MIQ B 502       5.150   0.103  18.600  1.00142.86     0.046 A 
HETATM    5  C5  MIQ B 502       5.887  -1.086  18.369  1.00139.53     0.031 A 
HETATM    6  C12 MIQ B 502       5.273  -2.379  18.633  1.00139.38     0.030 A 
HETATM    7  C13 MIQ B 502       3.940  -2.444  19.122  1.00141.18     0.019 A 
HETATM    8  C14 MIQ B 502       3.172  -1.192  19.365  1.00138.77     0.033 A 
HETATM    9  C15 MIQ B 502       1.733  -0.869  19.883  1.00142.10     0.195 A 
HETATM   10  N17 MIQ B 502       1.631   0.450  19.880  1.00139.42    -0.288 N 
HETATM   11  O16 MIQ B 502       0.757  -1.790  20.268  1.00148.93    -0.171 OA
ENDROOT
BRANCH  10  12
HETATM   12  C18 MIQ B 502       0.410   1.117  20.291  1.00139.82     0.187 C 
HETATM   13  C19 MIQ B 502      -0.033   2.032  19.143  1.00140.06     0.247 C 
HETATM   14  O25 MIQ B 502      -0.118   1.589  18.053  1.00143.95    -0.271 OA
HETATM   15  N20 MIQ B 502      -0.355   3.428  19.360  1.00140.02    -0.296 N 
HETATM   16  H13 MIQ B 502      -0.636   4.016  18.601  1.00142.77     0.171 HD
HETATM   17  C21 MIQ B 502      -0.233   3.948  20.697  1.00142.22     0.224 C 
HETATM   18  C22 MIQ B 502       0.869   3.362  21.558  1.00139.52     0.106 C 
HETATM   19  O24 MIQ B 502      -0.960   4.787  21.103  1.00146.13    -0.273 OA
HETATM   20  C23 MIQ B 502       0.629   1.864  21.606  1.00139.15     0.045 C 
ENDBRANCH  10  12
BRANCH   5  21
HETATM   21  N6  MIQ B 502       7.243  -1.005  17.857  1.00140.95    -0.377 N 
HETATM   22  C7  MIQ B 502       7.438  -0.653  16.461  1.00142.12     0.149 C 
HETATM   23  C8  MIQ B 502       8.744  -1.213  15.910  1.00144.10     0.187 C 
HETATM   24  O9  MIQ B 502       9.835  -0.969  16.746  1.00148.65    -0.388 OA
HETATM   25  C10 MIQ B 502       9.641  -0.471  18.037  1.00147.44     0.187 C 
HETATM   26  C11 MIQ B 502       8.356  -0.837  18.774  1.00144.08     0.149 C 
ENDBRANCH   5  21
TORSDOF 2
ENDMDL
MODEL 6
REMARK VINA RESULT:      -6.2      1.638      2.158
REMARK  2 active torsions:
REMARK  status: ('A' for Active; 'I' for Inactive)
REMARK    1  A    between atoms: C5_5  and  N6_21 
REMARK    2  A    between atoms: C18_14  and  N17_19 
ROOT
HETATM    1  O1  MIQ B 502      -8.738   9.882  13.858  1.00142.91    -0.171 OA
HETATM    2  C2  MIQ B 502      -8.041  11.039  13.503  1.00141.17     0.195 A 
HETATM    3  C3  MIQ B 502      -6.877  11.699  14.308  1.00141.71     0.035 A 
HETATM    4  C4  MIQ B 502      -6.193  11.356  15.577  1.00142.86     0.046 A 
HETATM    5  C5  MIQ B 502      -5.140  12.169  16.067  1.00139.53     0.031 A 
HETATM    6  C12 MIQ B 502      -4.728  13.347  15.317  1.00139.38     0.030 A 
HETATM    7  C13 MIQ B 502      -5.383  13.676  14.099  1.00141.18     0.019 A 
HETATM    8  C14 MIQ B 502      -6.486  12.818  13.589  1.00138.77     0.033 A 
HETATM    9  C15 MIQ B 502      -7.413  12.852  12.330  1.00142.10     0.195 A 
HETATM   10  N17 MIQ B 502      -8.210  11.801  12.435  1.00139.42    -0.288 N 
HETATM   11  O16 MIQ B 502      -7.400  13.802  11.308  1.00148.93    -0.171 OA
ENDROOT
BRANCH  10  12
HETATM   12  C18 MIQ B 502      -9.226  11.518  11.438  1.00139.82     0.187 C 
HETATM   13  C19 MIQ B 502     -10.564  11.352  12.168  1.00140.06     0.247 C 
HETATM   14  O25 MIQ B 502     -10.913  12.184  12.928  1.00143.95    -0.271 OA
HETATM   15  N20 MIQ B 502     -11.417  10.203  11.946  1.00140.02    -0.296 N 
HETATM   16  H13 MIQ B 502     -12.286  10.103  12.434  1.00142.77     0.171 HD
HETATM   17  C21 MIQ B 502     -10.965   9.196  11.021  1.00142.22     0.224 C 
HETATM   18  C22 MIQ B 502      -9.469   8.957  10.951  1.00139.52     0.106 C 
HETATM   19  O24 MIQ B 502     -11.724   8.590  10.347  1.00146.13    -0.273 OA
HETATM   20  C23 MIQ B 502      -8.835  10.293  10.613  1.00139.15     0.045 C 
ENDBRANCH  10  12
BRANCH   5  21
HETATM   21  N6  MIQ B 502      -4.489  11.829  17.319  1.00140.95    -0.377 N 
HETATM   22  C7  MIQ B 502      -5.318  11.553  18.480  1.00142.12     0.149 C 
HETATM   23  C8  MIQ B 502      -4.587  11.849  19.783  1.00144.10     0.187 C 
HETATM   24  O9  MIQ B 502      -3.303  11.303  19.823  1.00148.65    -0.388 OA
HETATM   25  C10 MIQ B 502      -2.728  10.761  18.670  1.00147.44     0.187 C 
HETATM   26  C11 MIQ B 502      -3.120  11.345  17.317  1.00144.08     0.149 C 
ENDBRANCH   5  21
TORSDOF 2
ENDMDL
MODEL 7
REMARK VINA RESULT:      -6.1     11.588     13.736
REMARK  2 active torsions:
REMARK  status: ('A' for Active; 'I' for Inactive)
REMARK    1  A    between atoms: C5_5  and  N6_21 
REMARK    2  A    between atoms: C18_14  and  N17_19 
ROOT
HETATM    1  O1  MIQ B 502       1.529   2.407  21.350  1.00142.91    -0.171 OA
HETATM    2  C2  MIQ B 502       0.174   2.617  21.081  1.00141.17     0.195 A 
HETATM    3  C3  MIQ B 502      -0.668   3.863  21.504  1.00141.71     0.035 A 
HETATM    4  C4  MIQ B 502      -0.347   5.105  22.246  1.00142.86     0.046 A 
HETATM    5  C5  MIQ B 502      -1.350   6.079  22.479  1.00139.53     0.031 A 
HETATM    6  C12 MIQ B 502      -2.702   5.858  21.985  1.00139.38     0.030 A 
HETATM    7  C13 MIQ B 502      -3.009   4.668  21.272  1.00141.18     0.019 A 
HETATM    8  C14 MIQ B 502      -1.951   3.649  21.029  1.00138.77     0.033 A 
HETATM    9  C15 MIQ B 502      -1.906   2.263  20.306  1.00142.10     0.195 A 
HETATM   10  N17 MIQ B 502      -0.661   1.830  20.425  1.00139.42    -0.288 N 
HETATM   11  O16 MIQ B 502      -2.967   1.617  19.670  1.00148.93    -0.171 OA
ENDROOT
BRANCH  10  12
HETATM   12  C18 MIQ B 502      -0.250   0.550  19.880  1.00139.82     0.187 C 
HETATM   13  C19 MIQ B 502       0.438  -0.237  21.002  1.00140.06     0.247 C 
HETATM   14  O25 MIQ B 502      -0.109  -0.356  22.041  1.00143.95    -0.271 OA
HETATM   15  N20 MIQ B 502       1.740  -0.845  20.822  1.00140.02    -0.296 N 
HETATM   16  H13 MIQ B 502       2.182  -1.350  21.564  1.00142.77     0.171 HD
HETATM   17  C21 MIQ B 502       2.392  -0.677  19.548  1.00142.22     0.224 C 
HETATM   18  C22 MIQ B 502       2.145   0.632  18.824  1.00139.52     0.106 C 
HETATM   19  O24 MIQ B 502       3.081  -1.521  19.091  1.00146.13    -0.273 OA
HETATM   20  C23 MIQ B 502       0.642   0.755  18.656  1.00139.15     0.045 C 
ENDBRANCH  10  12
BRANCH   5  21
HETATM   21  N6  MIQ B 502      -1.026   7.284  23.221  1.00140.95    -0.377 N 
HETATM   22  C7  MIQ B 502       0.333   7.459  23.702  1.00142.12     0.149 C 
HETATM   23  C8  MIQ B 502       0.390   8.349  24.937  1.00144.10     0.187 C 
HETATM   24  O9  MIQ B 502      -0.348   9.526  24.793  1.00148.65    -0.388 OA
HETATM   25  C10 MIQ B 502      -1.209   9.693  23.705  1.00147.44     0.187 C 
HETATM   26  C11 MIQ B 502      -1.874   8.458  23.105  1.00144.08     0.149 C 
ENDBRANCH   5  21
TORSDOF 2
ENDMDL
MODEL 8
REMARK VINA RESULT:      -6.1     10.533     13.149
REMARK  2 active torsions:
REMARK  status: ('A' for Active; 'I' for Inactive)
REMARK    1  A    between atoms: C5_5  and  N6_21 
REMARK    2  A    between atoms: C18_14  and  N17_19 
ROOT
HETATM    1  O1  MIQ B 502      -3.956   7.252  22.184  1.00142.91    -0.171 OA
HETATM    2  C2  MIQ B 502      -2.627   6.880  22.397  1.00141.17     0.195 A 
HETATM    3  C3  MIQ B 502      -1.947   5.565  21.900  1.00141.71     0.035 A 
HETATM    4  C4  MIQ B 502      -2.428   4.400  21.119  1.00142.86     0.046 A 
HETATM    5  C5  MIQ B 502      -1.551   3.329  20.814  1.00139.53     0.031 A 
HETATM    6  C12 MIQ B 502      -0.169   3.375  21.270  1.00139.38     0.030 A 
HETATM    7  C13 MIQ B 502       0.294   4.492  22.017  1.00141.18     0.019 A 
HETATM    8  C14 MIQ B 502      -0.632   5.614  22.333  1.00138.77     0.033 A 
HETATM    9  C15 MIQ B 502      -0.494   6.969  23.102  1.00142.10     0.195 A 
HETATM   10  N17 MIQ B 502      -1.684   7.545  23.042  1.00139.42    -0.288 N 
HETATM   11  O16 MIQ B 502       0.652   7.463  23.727  1.00148.93    -0.171 OA
ENDROOT
BRANCH  10  12
HETATM   12  C18 MIQ B 502      -1.936   8.828  23.671  1.00139.82     0.187 C 
HETATM   13  C19 MIQ B 502      -3.146   8.664  24.598  1.00140.06     0.247 C 
HETATM   14  O25 MIQ B 502      -3.157   7.781  25.380  1.00143.95    -0.271 OA
HETATM   15  N20 MIQ B 502      -4.277   9.568  24.546  1.00140.02    -0.296 N 
HETATM   16  H13 MIQ B 502      -5.063   9.446  25.153  1.00142.77     0.171 HD
HETATM   17  C21 MIQ B 502      -4.245  10.632  23.576  1.00142.22     0.224 C 
HETATM   18  C22 MIQ B 502      -3.549  10.336  22.262  1.00139.52     0.106 C 
HETATM   19  O24 MIQ B 502      -4.734  11.685  23.798  1.00146.13    -0.273 OA
HETATM   20  C23 MIQ B 502      -2.134   9.910  22.610  1.00139.15     0.045 C 
ENDBRANCH  10  12
BRANCH   5  21
HETATM   21  N6  MIQ B 502      -2.040   2.188  20.062  1.00140.95    -0.377 N 
HETATM   22  C7  MIQ B 502      -1.290   0.945  20.119  1.00142.12     0.149 C 
HETATM   23  C8  MIQ B 502      -1.496   0.099  18.870  1.00144.10     0.187 C 
HETATM   24  O9  MIQ B 502      -2.841  -0.031  18.517  1.00148.65    -0.388 OA
HETATM   25  C10 MIQ B 502      -3.816   0.749  19.144  1.00147.44     0.187 C 
HETATM   26  C11 MIQ B 502      -3.430   2.138  19.642  1.00144.08     0.149 C 
ENDBRANCH   5  21
TORSDOF 2
ENDMDL
MODEL 9
REMARK VINA RESULT:      -6.0     10.946     12.812
REMARK  2 active torsions:
REMARK  status: ('A' for Active; 'I' for Inactive)
REMARK    1  A    between atoms: C5_5  and  N6_21 
REMARK    2  A    between atoms: C18_14  and  N17_19 
ROOT
HETATM    1  O1  MIQ B 502      -3.487   2.725  20.400  1.00142.91    -0.171 OA
HETATM    2  C2  MIQ B 502      -2.256   2.677  21.057  1.00141.17     0.195 A 
HETATM    3  C3  MIQ B 502      -1.554   3.865  21.790  1.00141.71     0.035 A 
HETATM    4  C4  MIQ B 502      -1.920   5.284  22.011  1.00142.86     0.046 A 
HETATM    5  C5  MIQ B 502      -1.055   6.142  22.736  1.00139.53     0.031 A 
HETATM    6  C12 MIQ B 502       0.198   5.625  23.266  1.00139.38     0.030 A 
HETATM    7  C13 MIQ B 502       0.549   4.265  23.055  1.00141.18     0.019 A 
HETATM    8  C14 MIQ B 502      -0.364   3.368  22.295  1.00138.77     0.033 A 
HETATM    9  C15 MIQ B 502      -0.327   1.862  21.874  1.00142.10     0.195 A 
HETATM   10  N17 MIQ B 502      -1.445   1.643  21.202  1.00139.42    -0.288 N 
HETATM   11  O16 MIQ B 502       0.685   0.941  22.152  1.00148.93    -0.171 OA
ENDROOT
BRANCH  10  12
HETATM   12  C18 MIQ B 502      -1.746   0.341  20.638  1.00139.82     0.187 C 
HETATM   13  C19 MIQ B 502      -2.040   0.534  19.145  1.00140.06     0.247 C 
HETATM   14  O25 MIQ B 502      -1.272   1.135  18.480  1.00143.95    -0.271 OA
HETATM   15  N20 MIQ B 502      -3.232  -0.006  18.525  1.00140.02    -0.296 N 
HETATM   16  H13 MIQ B 502      -3.415   0.133  17.550  1.00142.77     0.171 HD
HETATM   17  C21 MIQ B 502      -4.159  -0.726  19.359  1.00142.22     0.224 C 
HETATM   18  C22 MIQ B 502      -4.291  -0.256  20.794  1.00139.52     0.106 C 
HETATM   19  O24 MIQ B 502      -4.781  -1.642  18.944  1.00146.13    -0.273 OA
HETATM   20  C23 MIQ B 502      -2.900  -0.313  21.397  1.00139.15     0.045 C 
ENDBRANCH  10  12
BRANCH   5  21
HETATM   21  N6  MIQ B 502      -1.419   7.534  22.933  1.00140.95    -0.377 N 
HETATM   22  C7  MIQ B 502      -0.456   8.421  23.562  1.00142.12     0.149 C 
HETATM   23  C8  MIQ B 502      -1.135   9.586  24.272  1.00144.10     0.187 C 
HETATM   24  O9  MIQ B 502      -2.100  10.215  23.483  1.00148.65    -0.388 OA
HETATM   25  C10 MIQ B 502      -2.513   9.641  22.278  1.00147.44     0.187 C 
HETATM   26  C11 MIQ B 502      -2.490   8.122  22.148  1.00144.08     0.149 C 
ENDBRANCH   5  21
TORSDOF 2
ENDMDL
