MODEL 1
REMARK VINA RESULT:      -6.8      0.000      0.000
REMARK  2 active torsions:
REMARK  status: ('A' for Active; 'I' for Inactive)
REMARK    1  A    between atoms: C5_5  and  N6_21 
REMARK    2  A    between atoms: C18_14  and  N17_19 
ROOT
HETATM    1  O1  MIQ B 502     -13.342  -8.155   5.237  1.00142.91    -0.171 OA
HETATM    2  C2  MIQ B 502     -12.460  -7.576   6.151  1.00141.17     0.195 A 
HETATM    3  C3  MIQ B 502     -12.451  -6.081   6.604  1.00141.71     0.035 A 
HETATM    4  C4  MIQ B 502     -13.286  -4.906   6.257  1.00142.86     0.046 A 
HETATM    5  C5  MIQ B 502     -13.029  -3.644   6.850  1.00139.53     0.031 A 
HETATM    6  C12 MIQ B 502     -11.940  -3.503   7.806  1.00139.38     0.030 A 
HETATM    7  C13 MIQ B 502     -11.140  -4.629   8.140  1.00141.18     0.019 A 
HETATM    8  C14 MIQ B 502     -11.416  -5.952   7.516  1.00138.77     0.033 A 
HETATM    9  C15 MIQ B 502     -10.778  -7.375   7.630  1.00142.10     0.195 A 
HETATM   10  N17 MIQ B 502     -11.473  -8.153   6.816  1.00139.42    -0.288 N 
HETATM   11  O16 MIQ B 502      -9.694  -7.744   8.428  1.00148.93    -0.171 OA
ENDROOT
BRANCH  10  12
HETATM   12  C18 MIQ B 502     -11.149  -9.558   6.650  1.00139.82     0.187 C 
HETATM   13  C19 MIQ B 502     -11.107 -10.195   8.044  1.00140.06     0.247 C 
HETATM   14  O25 MIQ B 502     -12.017 -10.037   8.778  1.00143.95    -0.271 OA
HETATM   15  N20 MIQ B 502      -9.981 -10.993   8.485  1.00140.02    -0.296 N 
HETATM   16  H13 MIQ B 502      -9.963 -11.399   9.400  1.00142.77     0.171 HD
HETATM   17  C21 MIQ B 502      -8.878 -11.164   7.576  1.00142.22     0.224 C 
HETATM   18  C22 MIQ B 502      -8.568 -10.000   6.654  1.00139.52     0.106 C 
HETATM   19  O24 MIQ B 502      -8.250 -12.165   7.547  1.00146.13    -0.273 OA
HETATM   20  C23 MIQ B 502      -9.840  -9.714   5.878  1.00139.15     0.045 C 
ENDBRANCH  10  12
BRANCH   5  21
HETATM   21  N6  MIQ B 502     -13.845  -2.499   6.490  1.00140.95    -0.377 N 
HETATM   22  C7  MIQ B 502     -13.662  -1.258   7.223  1.00142.12     0.149 C 
HETATM   23  C8  MIQ B 502     -14.925  -0.406   7.221  1.00144.10     0.187 C 
HETATM   24  O9  MIQ B 502     -15.488  -0.271   5.951  1.00148.65    -0.388 OA
HETATM   25  C10 MIQ B 502     -15.029  -1.052   4.887  1.00147.44     0.187 C 
HETATM   26  C11 MIQ B 502     -14.482  -2.444   5.186  1.00144.08     0.149 C 
ENDBRANCH   5  21
TORSDOF 2
ENDMDL
MODEL 2
REMARK VINA RESULT:      -6.8      1.724      2.421
REMARK  2 active torsions:
REMARK  status: ('A' for Active; 'I' for Inactive)
REMARK    1  A    between atoms: C5_5  and  N6_21 
REMARK    2  A    between atoms: C18_14  and  N17_19 
ROOT
HETATM    1  O1  MIQ B 502     -13.757  -8.376   6.288  1.00142.91    -0.171 OA
HETATM    2  C2  MIQ B 502     -12.687  -7.733   6.914  1.00141.17     0.195 A 
HETATM    3  C3  MIQ B 502     -12.566  -6.200   7.190  1.00141.71     0.035 A 
HETATM    4  C4  MIQ B 502     -13.450  -5.043   6.915  1.00142.86     0.046 A 
HETATM    5  C5  MIQ B 502     -13.057  -3.735   7.297  1.00139.53     0.031 A 
HETATM    6  C12 MIQ B 502     -11.779  -3.529   7.963  1.00139.38     0.030 A 
HETATM    7  C13 MIQ B 502     -10.932  -4.639   8.228  1.00141.18     0.019 A 
HETATM    8  C14 MIQ B 502     -11.351  -6.010   7.827  1.00138.77     0.033 A 
HETATM    9  C15 MIQ B 502     -10.713  -7.433   7.947  1.00142.10     0.195 A 
HETATM   10  N17 MIQ B 502     -11.579  -8.269   7.398  1.00139.42    -0.288 N 
HETATM   11  O16 MIQ B 502      -9.479  -7.751   8.517  1.00148.93    -0.171 OA
ENDROOT
BRANCH  10  12
HETATM   12  C18 MIQ B 502     -11.310  -9.692   7.316  1.00139.82     0.187 C 
HETATM   13  C19 MIQ B 502     -11.474 -10.115   5.851  1.00140.06     0.247 C 
HETATM   14  O25 MIQ B 502     -10.908  -9.511   5.010  1.00143.95    -0.271 OA
HETATM   15  N20 MIQ B 502     -12.300 -11.242   5.469  1.00140.02    -0.296 N 
HETATM   16  H13 MIQ B 502     -12.404 -11.504   4.508  1.00142.77     0.171 HD
HETATM   17  C21 MIQ B 502     -12.989 -11.957   6.512  1.00142.22     0.224 C 
HETATM   18  C22 MIQ B 502     -13.456 -11.143   7.703  1.00139.52     0.106 C 
HETATM   19  O24 MIQ B 502     -13.176 -13.122   6.443  1.00146.13    -0.273 OA
HETATM   20  C23 MIQ B 502     -12.223 -10.462   8.269  1.00139.15     0.045 C 
ENDBRANCH  10  12
BRANCH   5  21
HETATM   21  N6  MIQ B 502     -13.926  -2.608   7.008  1.00140.95    -0.377 N 
HETATM   22  C7  MIQ B 502     -15.352  -2.848   6.871  1.00142.12     0.149 C 
HETATM   23  C8  MIQ B 502     -16.021  -1.812   5.977  1.00144.10     0.187 C 
HETATM   24  O9  MIQ B 502     -15.664  -0.502   6.304  1.00148.65    -0.388 OA
HETATM   25  C10 MIQ B 502     -14.625  -0.255   7.205  1.00147.44     0.187 C 
HETATM   26  C11 MIQ B 502     -13.477  -1.256   7.286  1.00144.08     0.149 C 
ENDBRANCH   5  21
TORSDOF 2
ENDMDL
MODEL 3
REMARK VINA RESULT:      -6.5      2.154      3.744
REMARK  2 active torsions:
REMARK  status: ('A' for Active; 'I' for Inactive)
REMARK    1  A    between atoms: C5_5  and  N6_21 
REMARK    2  A    between atoms: C18_14  and  N17_19 
ROOT
HETATM    1  O1  MIQ B 502      -7.190  -7.545   8.081  1.00142.91    -0.171 OA
HETATM    2  C2  MIQ B 502      -8.424  -8.178   7.920  1.00141.17     0.195 A 
HETATM    3  C3  MIQ B 502      -9.811  -7.473   7.779  1.00141.71     0.035 A 
HETATM    4  C4  MIQ B 502     -10.235  -6.052   7.765  1.00142.86     0.046 A 
HETATM    5  C5  MIQ B 502     -11.604  -5.715   7.614  1.00139.53     0.031 A 
HETATM    6  C12 MIQ B 502     -12.597  -6.770   7.472  1.00139.38     0.030 A 
HETATM    7  C13 MIQ B 502     -12.190  -8.131   7.484  1.00141.18     0.019 A 
HETATM    8  C14 MIQ B 502     -10.752  -8.480   7.640  1.00138.77     0.033 A 
HETATM    9  C15 MIQ B 502      -9.945  -9.818   7.696  1.00142.10     0.195 A 
HETATM   10  N17 MIQ B 502      -8.677  -9.474   7.851  1.00139.42    -0.288 N 
HETATM   11  O16 MIQ B 502     -10.463 -11.111   7.603  1.00148.93    -0.171 OA
ENDROOT
BRANCH  10  12
HETATM   12  C18 MIQ B 502      -7.629 -10.472   7.959  1.00139.82     0.187 C 
HETATM   13  C19 MIQ B 502      -7.710 -11.372   6.720  1.00140.06     0.247 C 
HETATM   14  O25 MIQ B 502      -7.738 -10.877   5.650  1.00143.95    -0.271 OA
HETATM   15  N20 MIQ B 502      -7.748 -12.816   6.827  1.00140.02    -0.296 N 
HETATM   16  H13 MIQ B 502      -7.808 -13.392   6.010  1.00142.77     0.171 HD
HETATM   17  C21 MIQ B 502      -7.724 -13.396   8.145  1.00142.22     0.224 C 
HETATM   18  C22 MIQ B 502      -8.413 -12.614   9.246  1.00139.52     0.106 C 
HETATM   19  O24 MIQ B 502      -7.189 -14.428   8.356  1.00146.13    -0.273 OA
HETATM   20  C23 MIQ B 502      -7.763 -11.242   9.272  1.00139.15     0.045 C 
ENDBRANCH  10  12
BRANCH   5  21
HETATM   21  N6  MIQ B 502     -12.006  -4.320   7.617  1.00140.95    -0.377 N 
HETATM   22  C7  MIQ B 502     -13.412  -4.003   7.432  1.00142.12     0.149 C 
HETATM   23  C8  MIQ B 502     -13.607  -2.619   6.826  1.00144.10     0.187 C 
HETATM   24  O9  MIQ B 502     -12.853  -1.634   7.466  1.00148.65    -0.388 OA
HETATM   25  C10 MIQ B 502     -11.871  -1.987   8.395  1.00147.44     0.187 C 
HETATM   26  C11 MIQ B 502     -11.146  -3.318   8.220  1.00144.08     0.149 C 
ENDBRANCH   5  21
TORSDOF 2
ENDMDL
MODEL 4
REMARK VINA RESULT:      -6.5      1.863      2.976
REMARK  2 active torsions:
REMARK  status: ('A' for Active; 'I' for Inactive)
REMARK    1  A    between atoms: C5_5  and  N6_21 
REMARK    2  A    between atoms: C18_14  and  N17_19 
ROOT
HETATM    1  O1  MIQ B 502      -8.036  -6.484   7.118  1.00142.91    -0.171 OA
HETATM    2  C2  MIQ B 502      -9.156  -7.304   7.277  1.00141.17     0.195 A 
HETATM    3  C3  MIQ B 502     -10.644  -6.831   7.332  1.00141.71     0.035 A 
HETATM    4  C4  MIQ B 502     -11.295  -5.503   7.242  1.00142.86     0.046 A 
HETATM    5  C5  MIQ B 502     -12.706  -5.389   7.327  1.00139.53     0.031 A 
HETATM    6  C12 MIQ B 502     -13.518  -6.584   7.504  1.00139.38     0.030 A 
HETATM    7  C13 MIQ B 502     -12.894  -7.858   7.589  1.00141.18     0.019 A 
HETATM    8  C14 MIQ B 502     -11.413  -7.972   7.497  1.00138.77     0.033 A 
HETATM    9  C15 MIQ B 502     -10.397  -9.159   7.543  1.00142.10     0.195 A 
HETATM   10  N17 MIQ B 502      -9.197  -8.619   7.405  1.00139.42    -0.288 N 
HETATM   11  O16 MIQ B 502     -10.699 -10.513   7.700  1.00148.93    -0.171 OA
ENDROOT
BRANCH  10  12
HETATM   12  C18 MIQ B 502      -7.995  -9.431   7.417  1.00139.82     0.187 C 
HETATM   13  C19 MIQ B 502      -8.168 -10.539   6.371  1.00140.06     0.247 C 
HETATM   14  O25 MIQ B 502      -8.494 -10.250   5.275  1.00143.95    -0.271 OA
HETATM   15  N20 MIQ B 502      -7.938 -11.933   6.690  1.00140.02    -0.296 N 
HETATM   16  H13 MIQ B 502      -8.061 -12.648   6.000  1.00142.77     0.171 HD
HETATM   17  C21 MIQ B 502      -7.552 -12.262   8.038  1.00142.22     0.224 C 
HETATM   18  C22 MIQ B 502      -8.128 -11.397   9.142  1.00139.52     0.106 C 
HETATM   19  O24 MIQ B 502      -6.817 -13.158   8.269  1.00146.13    -0.273 OA
HETATM   20  C23 MIQ B 502      -7.729  -9.967   8.823  1.00139.15     0.045 C 
ENDBRANCH  10  12
BRANCH   5  21
HETATM   21  N6  MIQ B 502     -13.330  -4.080   7.252  1.00140.95    -0.377 N 
HETATM   22  C7  MIQ B 502     -12.555  -2.971   6.723  1.00142.12     0.149 C 
HETATM   23  C8  MIQ B 502     -13.029  -1.632   7.273  1.00144.10     0.187 C 
HETATM   24  O9  MIQ B 502     -14.415  -1.478   7.206  1.00148.65    -0.388 OA
HETATM   25  C10 MIQ B 502     -15.233  -2.562   6.881  1.00147.44     0.187 C 
HETATM   26  C11 MIQ B 502     -14.777  -3.964   7.273  1.00144.08     0.149 C 
ENDBRANCH   5  21
TORSDOF 2
ENDMDL
MODEL 5
REMARK VINA RESULT:      -6.5     18.276     20.234
REMARK  2 active torsions:
REMARK  status: ('A' for Active; 'I' for Inactive)
REMARK    1  A    between atoms: C5_5  and  N6_21 
REMARK    2  A    between atoms: C18_14  and  N17_19 
ROOT
HETATM    1  O1  MIQ B 502     -12.425  13.674  14.185  1.00142.91    -0.171 OA
HETATM    2  C2  MIQ B 502     -11.497  13.093  13.317  1.00141.17     0.195 A 
HETATM    3  C3  MIQ B 502     -11.786  12.569  11.874  1.00141.71     0.035 A 
HETATM    4  C4  MIQ B 502     -13.006  12.520  11.033  1.00142.86     0.046 A 
HETATM    5  C5  MIQ B 502     -12.954  11.971   9.727  1.00139.53     0.031 A 
HETATM    6  C12 MIQ B 502     -11.696  11.453   9.211  1.00139.38     0.030 A 
HETATM    7  C13 MIQ B 502     -10.526  11.500  10.016  1.00141.18     0.019 A 
HETATM    8  C14 MIQ B 502     -10.586  12.080  11.386  1.00138.77     0.033 A 
HETATM    9  C15 MIQ B 502      -9.545  12.303  12.531  1.00142.10     0.195 A 
HETATM   10  N17 MIQ B 502     -10.210  12.873  13.523  1.00139.42    -0.288 N 
HETATM   11  O16 MIQ B 502      -8.191  11.964  12.508  1.00148.93    -0.171 OA
ENDROOT
BRANCH  10  12
HETATM   12  C18 MIQ B 502      -9.558  13.215  14.773  1.00139.82     0.187 C 
HETATM   13  C19 MIQ B 502      -8.374  14.133  14.448  1.00140.06     0.247 C 
HETATM   14  O25 MIQ B 502      -8.551  15.082  13.769  1.00143.95    -0.271 OA
HETATM   15  N20 MIQ B 502      -7.043  13.872  14.955  1.00140.02    -0.296 N 
HETATM   16  H13 MIQ B 502      -6.277  14.476  14.730  1.00142.77     0.171 HD
HETATM   17  C21 MIQ B 502      -6.850  12.702  15.773  1.00142.22     0.224 C 
HETATM   18  C22 MIQ B 502      -7.703  11.492  15.442  1.00139.52     0.106 C 
HETATM   19  O24 MIQ B 502      -6.070  12.690  16.660  1.00146.13    -0.273 OA
HETATM   20  C23 MIQ B 502      -9.148  11.948  15.523  1.00139.15     0.045 C 
ENDBRANCH  10  12
BRANCH   5  21
HETATM   21  N6  MIQ B 502     -14.160  11.916   8.920  1.00140.95    -0.377 N 
HETATM   22  C7  MIQ B 502     -14.874  13.153   8.654  1.00142.12     0.149 C 
HETATM   23  C8  MIQ B 502     -16.355  12.910   8.396  1.00144.10     0.187 C 
HETATM   24  O9  MIQ B 502     -16.586  11.879   7.484  1.00148.65    -0.388 OA
HETATM   25  C10 MIQ B 502     -15.540  11.049   7.074  1.00147.44     0.187 C 
HETATM   26  C11 MIQ B 502     -14.398  10.779   8.048  1.00144.08     0.149 C 
ENDBRANCH   5  21
TORSDOF 2
ENDMDL
MODEL 6
REMARK VINA RESULT:      -6.4     18.458     20.385
REMARK  2 active torsions:
REMARK  status: ('A' for Active; 'I' for Inactive)
REMARK    1  A    between atoms: C5_5  and  N6_21 
REMARK    2  A    between atoms: C18_14  and  N17_19 
ROOT
HETATM    1  O1  MIQ B 502     -15.334  13.929  11.699  1.00142.91    -0.171 OA
HETATM    2  C2  MIQ B 502     -14.656  13.143  10.765  1.00141.17     0.195 A 
HETATM    3  C3  MIQ B 502     -13.159  12.703  10.842  1.00141.71     0.035 A 
HETATM    4  C4  MIQ B 502     -12.076  12.943  11.825  1.00142.86     0.046 A 
HETATM    5  C5  MIQ B 502     -10.785  12.396  11.616  1.00139.53     0.031 A 
HETATM    6  C12 MIQ B 502     -10.523  11.594  10.429  1.00139.38     0.030 A 
HETATM    7  C13 MIQ B 502     -11.562  11.363   9.487  1.00141.18     0.019 A 
HETATM    8  C14 MIQ B 502     -12.916  11.938   9.713  1.00138.77     0.033 A 
HETATM    9  C15 MIQ B 502     -14.270  11.902   8.931  1.00142.10     0.195 A 
HETATM   10  N17 MIQ B 502     -15.125  12.612   9.648  1.00139.42    -0.288 N 
HETATM   11  O16 MIQ B 502     -14.519  11.252   7.721  1.00148.93    -0.171 OA
ENDROOT
BRANCH  10  12
HETATM   12  C18 MIQ B 502     -16.495  12.811   9.214  1.00139.82     0.187 C 
HETATM   13  C19 MIQ B 502     -17.107  11.430   8.950  1.00140.06     0.247 C 
HETATM   14  O25 MIQ B 502     -17.025  10.596   9.780  1.00143.95    -0.271 OA
HETATM   15  N20 MIQ B 502     -17.791  11.122   7.711  1.00140.02    -0.296 N 
HETATM   16  H13 MIQ B 502     -18.180  10.215   7.548  1.00142.77     0.171 HD
HETATM   17  C21 MIQ B 502     -17.869  12.154   6.709  1.00142.22     0.224 C 
HETATM   18  C22 MIQ B 502     -16.693  13.108   6.620  1.00139.52     0.106 C 
HETATM   19  O24 MIQ B 502     -18.807  12.254   5.997  1.00146.13    -0.273 OA
HETATM   20  C23 MIQ B 502     -16.538  13.731   7.995  1.00139.15     0.045 C 
ENDBRANCH  10  12
BRANCH   5  21
HETATM   21  N6  MIQ B 502      -9.729  12.651  12.579  1.00140.95    -0.377 N 
HETATM   22  C7  MIQ B 502      -8.647  11.689  12.694  1.00142.12     0.149 C 
HETATM   23  C8  MIQ B 502      -8.015  11.707  14.080  1.00144.10     0.187 C 
HETATM   24  O9  MIQ B 502      -7.717  12.997  14.525  1.00148.65    -0.388 OA
HETATM   25  C10 MIQ B 502      -8.190  14.112  13.828  1.00147.44     0.187 C 
HETATM   26  C11 MIQ B 502      -9.513  13.998  13.079  1.00144.08     0.149 C 
ENDBRANCH   5  21
TORSDOF 2
ENDMDL
MODEL 7
REMARK VINA RESULT:      -6.2      2.034      3.504
REMARK  2 active torsions:
REMARK  status: ('A' for Active; 'I' for Inactive)
REMARK    1  A    between atoms: C5_5  and  N6_21 
REMARK    2  A    between atoms: C18_14  and  N17_19 
ROOT
HETATM    1  O1  MIQ B 502      -8.383  -9.052   6.928  1.00142.91    -0.171 OA
HETATM    2  C2  MIQ B 502      -9.746  -9.337   7.040  1.00141.17     0.195 A 
HETATM    3  C3  MIQ B 502     -10.896  -8.294   7.206  1.00141.71     0.035 A 
HETATM    4  C4  MIQ B 502     -10.925  -6.814   7.289  1.00142.86     0.046 A 
HETATM    5  C5  MIQ B 502     -12.157  -6.129   7.442  1.00139.53     0.031 A 
HETATM    6  C12 MIQ B 502     -13.399  -6.885   7.518  1.00139.38     0.030 A 
HETATM    7  C13 MIQ B 502     -13.372  -8.303   7.437  1.00141.18     0.019 A 
HETATM    8  C14 MIQ B 502     -12.076  -9.017   7.274  1.00138.77     0.033 A 
HETATM    9  C15 MIQ B 502     -11.656 -10.517   7.149  1.00142.10     0.195 A 
HETATM   10  N17 MIQ B 502     -10.339 -10.519   7.024  1.00139.42    -0.288 N 
HETATM   11  O16 MIQ B 502     -12.503 -11.627   7.168  1.00148.93    -0.171 OA
ENDROOT
BRANCH  10  12
HETATM   12  C18 MIQ B 502      -9.591 -11.756   6.898  1.00139.82     0.187 C 
HETATM   13  C19 MIQ B 502      -8.478 -11.739   7.953  1.00140.06     0.247 C 
HETATM   14  O25 MIQ B 502      -8.752 -11.502   9.075  1.00143.95    -0.271 OA
HETATM   15  N20 MIQ B 502      -7.097 -12.012   7.610  1.00140.02    -0.296 N 
HETATM   16  H13 MIQ B 502      -6.379 -11.991   8.307  1.00142.77     0.171 HD
HETATM   17  C21 MIQ B 502      -6.786 -12.288   6.231  1.00142.22     0.224 C 
HETATM   18  C22 MIQ B 502      -7.617 -11.567   5.188  1.00139.52     0.106 C 
HETATM   19  O24 MIQ B 502      -5.929 -13.044   5.931  1.00146.13    -0.273 OA
HETATM   20  C23 MIQ B 502      -9.066 -11.918   5.472  1.00139.15     0.045 C 
ENDBRANCH  10  12
BRANCH   5  21
HETATM   21  N6  MIQ B 502     -12.170  -4.681   7.537  1.00140.95    -0.377 N 
HETATM   22  C7  MIQ B 502     -13.437  -3.986   7.390  1.00142.12     0.149 C 
HETATM   23  C8  MIQ B 502     -13.251  -2.565   6.873  1.00144.10     0.187 C 
HETATM   24  O9  MIQ B 502     -12.261  -1.862   7.563  1.00148.65    -0.388 OA
HETATM   25  C10 MIQ B 502     -11.413  -2.524   8.455  1.00147.44     0.187 C 
HETATM   26  C11 MIQ B 502     -11.073  -3.987   8.188  1.00144.08     0.149 C 
ENDBRANCH   5  21
TORSDOF 2
ENDMDL
MODEL 8
REMARK VINA RESULT:      -6.2      1.838      2.458
REMARK  2 active torsions:
REMARK  status: ('A' for Active; 'I' for Inactive)
REMARK    1  A    between atoms: C5_5  and  N6_21 
REMARK    2  A    between atoms: C18_14  and  N17_19 
ROOT
HETATM    1  O1  MIQ B 502     -12.263 -10.105   5.869  1.00142.91    -0.171 OA
HETATM    2  C2  MIQ B 502     -11.226  -9.327   6.390  1.00141.17     0.195 A 
HETATM    3  C3  MIQ B 502     -11.319  -7.823   6.802  1.00141.71     0.035 A 
HETATM    4  C4  MIQ B 502     -12.417  -6.828   6.785  1.00142.86     0.046 A 
HETATM    5  C5  MIQ B 502     -12.191  -5.503   7.236  1.00139.53     0.031 A 
HETATM    6  C12 MIQ B 502     -10.872  -5.120   7.719  1.00139.38     0.030 A 
HETATM    7  C13 MIQ B 502      -9.820  -6.074   7.738  1.00141.18     0.019 A 
HETATM    8  C14 MIQ B 502     -10.064  -7.464   7.265  1.00138.77     0.033 A 
HETATM    9  C15 MIQ B 502      -9.187  -8.753   7.140  1.00142.10     0.195 A 
HETATM   10  N17 MIQ B 502      -9.980  -9.688   6.644  1.00139.42    -0.288 N 
HETATM   11  O16 MIQ B 502      -7.839  -8.883   7.481  1.00148.93    -0.171 OA
ENDROOT
BRANCH  10  12
HETATM   12  C18 MIQ B 502      -9.495 -11.028   6.375  1.00139.82     0.187 C 
HETATM   13  C19 MIQ B 502      -8.784 -11.530   7.638  1.00140.06     0.247 C 
HETATM   14  O25 MIQ B 502      -9.339 -11.463   8.677  1.00143.95    -0.271 OA
HETATM   15  N20 MIQ B 502      -7.449 -12.091   7.591  1.00140.02    -0.296 N 
HETATM   16  H13 MIQ B 502      -6.993 -12.409   8.424  1.00142.77     0.171 HD
HETATM   17  C21 MIQ B 502      -6.788 -12.154   6.313  1.00142.22     0.224 C 
HETATM   18  C22 MIQ B 502      -7.092 -11.036   5.334  1.00139.52     0.106 C 
HETATM   19  O24 MIQ B 502      -6.050 -13.036   6.042  1.00146.13    -0.273 OA
HETATM   20  C23 MIQ B 502      -8.597 -11.031   5.139  1.00139.15     0.045 C 
ENDBRANCH  10  12
BRANCH   5  21
HETATM   21  N6  MIQ B 502     -13.271  -4.534   7.199  1.00140.95    -0.377 N 
HETATM   22  C7  MIQ B 502     -13.122  -3.359   6.358  1.00142.12     0.149 C 
HETATM   23  C8  MIQ B 502     -13.943  -2.183   6.873  1.00144.10     0.187 C 
HETATM   24  O9  MIQ B 502     -15.259  -2.534   7.181  1.00148.65    -0.388 OA
HETATM   25  C10 MIQ B 502     -15.645  -3.876   7.216  1.00147.44     0.187 C 
HETATM   26  C11 MIQ B 502     -14.608  -4.923   7.612  1.00144.08     0.149 C 
ENDBRANCH   5  21
TORSDOF 2
ENDMDL
MODEL 9
REMARK VINA RESULT:      -6.1      2.664      3.683
REMARK  2 active torsions:
REMARK  status: ('A' for Active; 'I' for Inactive)
REMARK    1  A    between atoms: C5_5  and  N6_21 
REMARK    2  A    between atoms: C18_14  and  N17_19 
ROOT
HETATM    1  O1  MIQ B 502     -10.664 -10.740   7.542  1.00142.91    -0.171 OA
HETATM    2  C2  MIQ B 502     -10.067  -9.481   7.637  1.00141.17     0.195 A 
HETATM    3  C3  MIQ B 502     -10.807  -8.106   7.634  1.00141.71     0.035 A 
HETATM    4  C4  MIQ B 502     -12.235  -7.717   7.542  1.00142.86     0.046 A 
HETATM    5  C5  MIQ B 502     -12.608  -6.350   7.567  1.00139.53     0.031 A 
HETATM    6  C12 MIQ B 502     -11.583  -5.323   7.685  1.00139.38     0.030 A 
HETATM    7  C13 MIQ B 502     -10.215  -5.695   7.775  1.00141.18     0.019 A 
HETATM    8  C14 MIQ B 502      -9.829  -7.132   7.750  1.00138.77     0.033 A 
HETATM    9  C15 MIQ B 502      -8.473  -7.907   7.826  1.00142.10     0.195 A 
HETATM   10  N17 MIQ B 502      -8.782  -9.191   7.753  1.00139.42    -0.288 N 
HETATM   11  O16 MIQ B 502      -7.198  -7.351   7.944  1.00148.93    -0.171 OA
ENDROOT
BRANCH  10  12
HETATM   12  C18 MIQ B 502      -7.758 -10.219   7.778  1.00139.82     0.187 C 
HETATM   13  C19 MIQ B 502      -7.949 -11.100   6.537  1.00140.06     0.247 C 
HETATM   14  O25 MIQ B 502      -8.035 -10.590   5.477  1.00143.95    -0.271 OA
HETATM   15  N20 MIQ B 502      -8.021 -12.544   6.628  1.00140.02    -0.296 N 
HETATM   16  H13 MIQ B 502      -8.152 -13.107   5.811  1.00142.77     0.171 HD
HETATM   17  C21 MIQ B 502      -7.924 -13.142   7.935  1.00142.22     0.224 C 
HETATM   18  C22 MIQ B 502      -8.513 -12.356   9.090  1.00139.52     0.106 C 
HETATM   19  O24 MIQ B 502      -7.405 -14.192   8.096  1.00146.13    -0.273 OA
HETATM   20  C23 MIQ B 502      -7.824 -11.004   9.088  1.00139.15     0.045 C 
ENDBRANCH  10  12
BRANCH   5  21
HETATM   21  N6  MIQ B 502     -14.009  -5.983   7.461  1.00140.95    -0.377 N 
HETATM   22  C7  MIQ B 502     -15.013  -7.016   7.650  1.00142.12     0.149 C 
HETATM   23  C8  MIQ B 502     -16.306  -6.693   6.911  1.00144.10     0.187 C 
HETATM   24  O9  MIQ B 502     -16.745  -5.386   7.130  1.00148.65    -0.388 OA
HETATM   25  C10 MIQ B 502     -15.920  -4.460   7.772  1.00147.44     0.187 C 
HETATM   26  C11 MIQ B 502     -14.409  -4.595   7.611  1.00144.08     0.149 C 
ENDBRANCH   5  21
TORSDOF 2
ENDMDL
