MODEL 1
REMARK VINA RESULT:      -7.1      0.000      0.000
REMARK  2 active torsions:
REMARK  status: ('A' for Active; 'I' for Inactive)
REMARK    1  A    between atoms: C5_5  and  N6_21 
REMARK    2  A    between atoms: C18_14  and  N17_19 
ROOT
HETATM    1  O1  MIQ B 502       9.874  -0.901 -17.790  1.00142.91    -0.171 OA
HETATM    2  C2  MIQ B 502       9.668  -2.258 -17.532  1.00141.17     0.195 A 
HETATM    3  C3  MIQ B 502       8.311  -2.929 -17.147  1.00141.71     0.035 A 
HETATM    4  C4  MIQ B 502       6.937  -2.409 -16.950  1.00142.86     0.046 A 
HETATM    5  C5  MIQ B 502       5.883  -3.287 -16.594  1.00139.53     0.031 A 
HETATM    6  C12 MIQ B 502       6.152  -4.707 -16.422  1.00139.38     0.030 A 
HETATM    7  C13 MIQ B 502       7.469  -5.206 -16.612  1.00141.18     0.019 A 
HETATM    8  C14 MIQ B 502       8.572  -4.280 -16.987  1.00138.77     0.033 A 
HETATM    9  C15 MIQ B 502      10.099  -4.450 -17.277  1.00142.10     0.195 A 
HETATM   10  N17 MIQ B 502      10.553  -3.241 -17.563  1.00139.42    -0.288 N 
HETATM   11  O16 MIQ B 502      10.830  -5.638 -17.236  1.00148.93    -0.171 OA
ENDROOT
BRANCH  10  12
HETATM   12  C18 MIQ B 502      11.951  -3.010 -17.873  1.00139.82     0.187 C 
HETATM   13  C19 MIQ B 502      12.466  -1.917 -16.929  1.00140.06     0.247 C 
HETATM   14  O25 MIQ B 502      12.284  -2.027 -15.768  1.00143.95    -0.271 OA
HETATM   15  N20 MIQ B 502      13.176  -0.755 -17.421  1.00140.02    -0.296 N 
HETATM   16  H13 MIQ B 502      13.501  -0.045 -16.794  1.00142.77     0.171 HD
HETATM   17  C21 MIQ B 502      13.376  -0.638 -18.842  1.00142.22     0.224 C 
HETATM   18  C22 MIQ B 502      12.282  -1.196 -19.732  1.00139.52     0.106 C 
HETATM   19  O24 MIQ B 502      14.348  -0.137 -19.290  1.00146.13    -0.273 OA
HETATM   20  C23 MIQ B 502      12.117  -2.655 -19.350  1.00139.15     0.045 C 
ENDBRANCH  10  12
BRANCH   5  21
HETATM   21  N6  MIQ B 502       4.545  -2.762 -16.390  1.00140.95    -0.377 N 
HETATM   22  C7  MIQ B 502       3.806  -2.276 -17.543  1.00142.12     0.149 C 
HETATM   23  C8  MIQ B 502       2.780  -1.218 -17.157  1.00144.10     0.187 C 
HETATM   24  O9  MIQ B 502       1.999  -1.593 -16.062  1.00148.65    -0.388 OA
HETATM   25  C10 MIQ B 502       2.333  -2.720 -15.307  1.00147.44     0.187 C 
HETATM   26  C11 MIQ B 502       3.803  -3.112 -15.192  1.00144.08     0.149 C 
ENDBRANCH   5  21
TORSDOF 2
ENDMDL
MODEL 2
REMARK VINA RESULT:      -6.5     17.105     19.535
REMARK  2 active torsions:
REMARK  status: ('A' for Active; 'I' for Inactive)
REMARK    1  A    between atoms: C5_5  and  N6_21 
REMARK    2  A    between atoms: C18_14  and  N17_19 
ROOT
HETATM    1  O1  MIQ B 502     -11.070  -6.806 -20.873  1.00142.91    -0.171 OA
HETATM    2  C2  MIQ B 502     -10.482  -5.601 -20.483  1.00141.17     0.195 A 
HETATM    3  C3  MIQ B 502     -10.908  -4.718 -19.267  1.00141.71     0.035 A 
HETATM    4  C4  MIQ B 502     -11.961  -4.849 -18.232  1.00142.86     0.046 A 
HETATM    5  C5  MIQ B 502     -12.106  -3.859 -17.228  1.00139.53     0.031 A 
HETATM    6  C12 MIQ B 502     -11.216  -2.707 -17.214  1.00139.38     0.030 A 
HETATM    7  C13 MIQ B 502     -10.206  -2.581 -18.206  1.00141.18     0.019 A 
HETATM    8  C14 MIQ B 502     -10.056  -3.626 -19.256  1.00138.77     0.033 A 
HETATM    9  C15 MIQ B 502      -9.095  -3.832 -20.472  1.00142.10     0.195 A 
HETATM   10  N17 MIQ B 502      -9.463  -4.969 -21.040  1.00139.42    -0.288 N 
HETATM   11  O16 MIQ B 502      -8.062  -2.984 -20.874  1.00148.93    -0.171 OA
ENDROOT
BRANCH  10  12
HETATM   12  C18 MIQ B 502      -8.794  -5.476 -22.223  1.00139.82     0.187 C 
HETATM   13  C19 MIQ B 502      -7.286  -5.484 -21.940  1.00140.06     0.247 C 
HETATM   14  O25 MIQ B 502      -6.888  -5.996 -20.955  1.00143.95    -0.271 OA
HETATM   15  N20 MIQ B 502      -6.335  -4.884 -22.853  1.00140.02    -0.296 N 
HETATM   16  H13 MIQ B 502      -5.354  -4.890 -22.654  1.00142.77     0.171 HD
HETATM   17  C21 MIQ B 502      -6.847  -4.256 -24.044  1.00142.22     0.224 C 
HETATM   18  C22 MIQ B 502      -8.200  -3.581 -23.930  1.00139.52     0.106 C 
HETATM   19  O24 MIQ B 502      -6.242  -4.271 -25.059  1.00146.13    -0.273 OA
HETATM   20  C23 MIQ B 502      -9.172  -4.642 -23.446  1.00139.15     0.045 C 
ENDBRANCH  10  12
BRANCH   5  21
HETATM   21  N6  MIQ B 502     -13.151  -3.993 -16.229  1.00140.95    -0.377 N 
HETATM   22  C7  MIQ B 502     -12.902  -4.837 -15.073  1.00142.12     0.149 C 
HETATM   23  C8  MIQ B 502     -14.193  -5.396 -14.489  1.00144.10     0.187 C 
HETATM   24  O9  MIQ B 502     -15.178  -4.422 -14.316  1.00148.65    -0.388 OA
HETATM   25  C10 MIQ B 502     -15.014  -3.145 -14.859  1.00147.44     0.187 C 
HETATM   26  C11 MIQ B 502     -14.205  -2.997 -16.143  1.00144.08     0.149 C 
ENDBRANCH   5  21
TORSDOF 2
ENDMDL
MODEL 3
REMARK VINA RESULT:      -6.3      2.232      3.823
REMARK  2 active torsions:
REMARK  status: ('A' for Active; 'I' for Inactive)
REMARK    1  A    between atoms: C5_5  and  N6_21 
REMARK    2  A    between atoms: C18_14  and  N17_19 
ROOT
HETATM    1  O1  MIQ B 502       8.861  -3.761 -15.455  1.00142.91    -0.171 OA
HETATM    2  C2  MIQ B 502       9.121  -2.952 -16.564  1.00141.17     0.195 A 
HETATM    3  C3  MIQ B 502       8.062  -2.163 -17.398  1.00141.71     0.035 A 
HETATM    4  C4  MIQ B 502       6.590  -2.020 -17.302  1.00142.86     0.046 A 
HETATM    5  C5  MIQ B 502       5.887  -1.210 -18.229  1.00139.53     0.031 A 
HETATM    6  C12 MIQ B 502       6.616  -0.515 -19.280  1.00139.38     0.030 A 
HETATM    7  C13 MIQ B 502       8.028  -0.651 -19.372  1.00141.18     0.019 A 
HETATM    8  C14 MIQ B 502       8.761  -1.501 -18.394  1.00138.77     0.033 A 
HETATM    9  C15 MIQ B 502      10.262  -1.881 -18.177  1.00142.10     0.195 A 
HETATM   10  N17 MIQ B 502      10.287  -2.684 -17.126  1.00139.42    -0.288 N 
HETATM   11  O16 MIQ B 502      11.350  -1.457 -18.941  1.00148.93    -0.171 OA
ENDROOT
BRANCH  10  12
HETATM   12  C18 MIQ B 502      11.529  -3.254 -16.638  1.00139.82     0.187 C 
HETATM   13  C19 MIQ B 502      11.412  -4.780 -16.730  1.00140.06     0.247 C 
HETATM   14  O25 MIQ B 502      11.072  -5.271 -17.747  1.00143.95    -0.271 OA
HETATM   15  N20 MIQ B 502      11.712  -5.639 -15.603  1.00140.02    -0.296 N 
HETATM   16  H13 MIQ B 502      11.625  -6.634 -15.674  1.00142.77     0.171 HD
HETATM   17  C21 MIQ B 502      12.114  -5.015 -14.368  1.00142.22     0.224 C 
HETATM   18  C22 MIQ B 502      11.495  -3.668 -14.052  1.00139.52     0.106 C 
HETATM   19  O24 MIQ B 502      12.893  -5.528 -13.642  1.00146.13    -0.273 OA
HETATM   20  C23 MIQ B 502      11.821  -2.758 -15.222  1.00139.15     0.045 C 
ENDBRANCH  10  12
BRANCH   5  21
HETATM   21  N6  MIQ B 502       4.443  -1.091 -18.132  1.00140.95    -0.377 N 
HETATM   22  C7  MIQ B 502       3.635  -1.506 -19.266  1.00142.12     0.149 C 
HETATM   23  C8  MIQ B 502       2.302  -0.769 -19.313  1.00144.10     0.187 C 
HETATM   24  O9  MIQ B 502       1.643  -0.758 -18.083  1.00148.65    -0.388 OA
HETATM   25  C10 MIQ B 502       2.299  -1.185 -16.925  1.00147.44     0.187 C 
HETATM   26  C11 MIQ B 502       3.809  -0.995 -16.829  1.00144.08     0.149 C 
ENDBRANCH   5  21
TORSDOF 2
ENDMDL
MODEL 4
REMARK VINA RESULT:      -6.3     15.533     18.016
REMARK  2 active torsions:
REMARK  status: ('A' for Active; 'I' for Inactive)
REMARK    1  A    between atoms: C5_5  and  N6_21 
REMARK    2  A    between atoms: C18_14  and  N17_19 
ROOT
HETATM    1  O1  MIQ B 502       2.542 -17.278  -8.556  1.00142.91    -0.171 OA
HETATM    2  C2  MIQ B 502       2.032 -16.067  -8.082  1.00141.17     0.195 A 
HETATM    3  C3  MIQ B 502       0.722 -15.880  -7.252  1.00141.71     0.035 A 
HETATM    4  C4  MIQ B 502      -0.304 -16.820  -6.743  1.00142.86     0.046 A 
HETATM    5  C5  MIQ B 502      -1.411 -16.338  -5.998  1.00139.53     0.031 A 
HETATM    6  C12 MIQ B 502      -1.538 -14.912  -5.733  1.00139.38     0.030 A 
HETATM    7  C13 MIQ B 502      -0.553 -14.011  -6.221  1.00141.18     0.019 A 
HETATM    8  C14 MIQ B 502       0.607 -14.523  -7.000  1.00138.77     0.033 A 
HETATM    9  C15 MIQ B 502       1.854 -13.864  -7.676  1.00142.10     0.195 A 
HETATM   10  N17 MIQ B 502       2.537 -14.854  -8.226  1.00139.42    -0.288 N 
HETATM   11  O16 MIQ B 502       2.173 -12.505  -7.695  1.00148.93    -0.171 OA
ENDROOT
BRANCH  10  12
HETATM   12  C18 MIQ B 502       3.763 -14.610  -8.963  1.00139.82     0.187 C 
HETATM   13  C19 MIQ B 502       4.624 -13.648  -8.135  1.00140.06     0.247 C 
HETATM   14  O25 MIQ B 502       4.834 -13.895  -7.000  1.00143.95    -0.271 OA
HETATM   15  N20 MIQ B 502       5.192 -12.446  -8.708  1.00140.02    -0.296 N 
HETATM   16  H13 MIQ B 502       5.747 -11.823  -8.155  1.00142.77     0.171 HD
HETATM   17  C21 MIQ B 502       4.913 -12.161 -10.092  1.00142.22     0.224 C 
HETATM   18  C22 MIQ B 502       3.556 -12.589 -10.615  1.00139.52     0.106 C 
HETATM   19  O24 MIQ B 502       5.707 -11.625 -10.785  1.00146.13    -0.273 OA
HETATM   20  C23 MIQ B 502       3.446 -14.082 -10.361  1.00139.15     0.045 C 
ENDBRANCH  10  12
BRANCH   5  21
HETATM   21  N6  MIQ B 502      -2.416 -17.268  -5.518  1.00140.95    -0.377 N 
HETATM   22  C7  MIQ B 502      -2.979 -17.061  -4.195  1.00142.12     0.149 C 
HETATM   23  C8  MIQ B 502      -3.476 -18.362  -3.578  1.00144.10     0.187 C 
HETATM   24  O9  MIQ B 502      -4.267 -19.110  -4.452  1.00148.65    -0.388 OA
HETATM   25  C10 MIQ B 502      -4.355 -18.761  -5.802  1.00147.44     0.187 C 
HETATM   26  C11 MIQ B 502      -3.155 -18.089  -6.461  1.00144.08     0.149 C 
ENDBRANCH   5  21
TORSDOF 2
ENDMDL
MODEL 5
REMARK VINA RESULT:      -6.2     16.023     19.657
REMARK  2 active torsions:
REMARK  status: ('A' for Active; 'I' for Inactive)
REMARK    1  A    between atoms: C5_5  and  N6_21 
REMARK    2  A    between atoms: C18_14  and  N17_19 
ROOT
HETATM    1  O1  MIQ B 502      -0.175 -18.053 -10.228  1.00142.91    -0.171 OA
HETATM    2  C2  MIQ B 502      -0.120 -17.405  -8.992  1.00141.17     0.195 A 
HETATM    3  C3  MIQ B 502       0.814 -16.210  -8.619  1.00141.71     0.035 A 
HETATM    4  C4  MIQ B 502       1.839 -15.445  -9.368  1.00142.86     0.046 A 
HETATM    5  C5  MIQ B 502       2.540 -14.383  -8.743  1.00139.53     0.031 A 
HETATM    6  C12 MIQ B 502       2.249 -14.043  -7.357  1.00139.38     0.030 A 
HETATM    7  C13 MIQ B 502       1.266 -14.775  -6.639  1.00141.18     0.019 A 
HETATM    8  C14 MIQ B 502       0.532 -15.887  -7.302  1.00138.77     0.033 A 
HETATM    9  C15 MIQ B 502      -0.584 -16.887  -6.855  1.00142.10     0.195 A 
HETATM   10  N17 MIQ B 502      -0.830 -17.653  -7.905  1.00139.42    -0.288 N 
HETATM   11  O16 MIQ B 502      -1.192 -16.955  -5.600  1.00148.93    -0.171 OA
ENDROOT
BRANCH  10  12
HETATM   12  C18 MIQ B 502      -1.813 -18.719  -7.852  1.00139.82     0.187 C 
HETATM   13  C19 MIQ B 502      -1.143 -19.999  -8.367  1.00140.06     0.247 C 
HETATM   14  O25 MIQ B 502      -0.107 -20.331  -7.910  1.00143.95    -0.271 OA
HETATM   15  N20 MIQ B 502      -1.750 -20.817  -9.397  1.00140.02    -0.296 N 
HETATM   16  H13 MIQ B 502      -1.299 -21.646  -9.730  1.00142.77     0.171 HD
HETATM   17  C21 MIQ B 502      -3.009 -20.385  -9.947  1.00142.22     0.224 C 
HETATM   18  C22 MIQ B 502      -3.231 -18.888 -10.046  1.00139.52     0.106 C 
HETATM   19  O24 MIQ B 502      -3.829 -21.161 -10.297  1.00146.13    -0.273 OA
HETATM   20  C23 MIQ B 502      -3.061 -18.333  -8.644  1.00139.15     0.045 C 
ENDBRANCH  10  12
BRANCH   5  21
HETATM   21  N6  MIQ B 502       3.552 -13.652  -9.484  1.00140.95    -0.377 N 
HETATM   22  C7  MIQ B 502       4.011 -14.194 -10.751  1.00142.12     0.149 C 
HETATM   23  C8  MIQ B 502       5.429 -13.745 -11.080  1.00144.10     0.187 C 
HETATM   24  O9  MIQ B 502       5.617 -12.371 -10.915  1.00148.65    -0.388 OA
HETATM   25  C10 MIQ B 502       4.640 -11.594 -10.288  1.00147.44     0.187 C 
HETATM   26  C11 MIQ B 502       3.770 -12.241  -9.216  1.00144.08     0.149 C 
ENDBRANCH   5  21
TORSDOF 2
ENDMDL
MODEL 6
REMARK VINA RESULT:      -6.1     16.183     18.771
REMARK  2 active torsions:
REMARK  status: ('A' for Active; 'I' for Inactive)
REMARK    1  A    between atoms: C5_5  and  N6_21 
REMARK    2  A    between atoms: C18_14  and  N17_19 
ROOT
HETATM    1  O1  MIQ B 502       1.720 -15.320  -9.556  1.00142.91    -0.171 OA
HETATM    2  C2  MIQ B 502       1.177 -15.507  -8.283  1.00141.17     0.195 A 
HETATM    3  C3  MIQ B 502       0.135 -16.597  -7.876  1.00141.71     0.035 A 
HETATM    4  C4  MIQ B 502      -0.549 -17.682  -8.620  1.00142.86     0.046 A 
HETATM    5  C5  MIQ B 502      -1.467 -18.536  -7.959  1.00139.53     0.031 A 
HETATM    6  C12 MIQ B 502      -1.739 -18.346  -6.541  1.00139.38     0.030 A 
HETATM    7  C13 MIQ B 502      -1.083 -17.307  -5.827  1.00141.18     0.019 A 
HETATM    8  C14 MIQ B 502      -0.118 -16.415  -6.526  1.00138.77     0.033 A 
HETATM    9  C15 MIQ B 502       0.773 -15.205  -6.092  1.00142.10     0.195 A 
HETATM   10  N17 MIQ B 502       1.425 -14.824  -7.179  1.00139.42    -0.288 N 
HETATM   11  O16 MIQ B 502       0.856 -14.644  -4.817  1.00148.93    -0.171 OA
ENDROOT
BRANCH  10  12
HETATM   12  C18 MIQ B 502       2.344 -13.702  -7.155  1.00139.82     0.187 C 
HETATM   13  C19 MIQ B 502       1.835 -12.659  -8.158  1.00140.06     0.247 C 
HETATM   14  O25 MIQ B 502       0.710 -12.308  -8.102  1.00143.95    -0.271 OA
HETATM   15  N20 MIQ B 502       2.699 -12.086  -9.170  1.00140.02    -0.296 N 
HETATM   16  H13 MIQ B 502       2.352 -11.411  -9.822  1.00142.77     0.171 HD
HETATM   17  C21 MIQ B 502       4.065 -12.539  -9.224  1.00142.22     0.224 C 
HETATM   18  C22 MIQ B 502       4.319 -13.987  -8.851  1.00139.52     0.106 C 
HETATM   19  O24 MIQ B 502       4.944 -11.814  -9.540  1.00146.13    -0.273 OA
HETATM   20  C23 MIQ B 502       3.767 -14.174  -7.450  1.00139.15     0.045 C 
ENDBRANCH  10  12
BRANCH   5  21
HETATM   21  N6  MIQ B 502      -2.141 -19.584  -8.703  1.00140.95    -0.377 N 
HETATM   22  C7  MIQ B 502      -2.790 -19.239  -9.957  1.00142.12     0.149 C 
HETATM   23  C8  MIQ B 502      -3.940 -20.184 -10.281  1.00144.10     0.187 C 
HETATM   24  O9  MIQ B 502      -3.594 -21.529 -10.138  1.00148.65    -0.388 OA
HETATM   25  C10 MIQ B 502      -2.387 -21.890  -9.534  1.00147.44     0.187 C 
HETATM   26  C11 MIQ B 502      -1.808 -20.977  -8.458  1.00144.08     0.149 C 
ENDBRANCH   5  21
TORSDOF 2
ENDMDL
MODEL 7
REMARK VINA RESULT:      -6.1     15.267     18.749
REMARK  2 active torsions:
REMARK  status: ('A' for Active; 'I' for Inactive)
REMARK    1  A    between atoms: C5_5  and  N6_21 
REMARK    2  A    between atoms: C18_14  and  N17_19 
ROOT
HETATM    1  O1  MIQ B 502      -7.743  -3.002 -20.095  1.00142.91    -0.171 OA
HETATM    2  C2  MIQ B 502      -8.730  -3.919 -20.463  1.00141.17     0.195 A 
HETATM    3  C3  MIQ B 502     -10.135  -4.077 -19.799  1.00141.71     0.035 A 
HETATM    4  C4  MIQ B 502     -10.819  -3.382 -18.683  1.00142.86     0.046 A 
HETATM    5  C5  MIQ B 502     -12.132  -3.758 -18.301  1.00139.53     0.031 A 
HETATM    6  C12 MIQ B 502     -12.811  -4.833 -19.011  1.00139.38     0.030 A 
HETATM    7  C13 MIQ B 502     -12.156  -5.498 -20.082  1.00141.18     0.019 A 
HETATM    8  C14 MIQ B 502     -10.779  -5.098 -20.480  1.00138.77     0.033 A 
HETATM    9  C15 MIQ B 502      -9.768  -5.575 -21.573  1.00142.10     0.195 A 
HETATM   10  N17 MIQ B 502      -8.690  -4.821 -21.428  1.00139.42    -0.288 N 
HETATM   11  O16 MIQ B 502      -9.966  -6.594 -22.507  1.00148.93    -0.171 OA
ENDROOT
BRANCH  10  12
HETATM   12  C18 MIQ B 502      -7.524  -4.997 -22.274  1.00139.82     0.187 C 
HETATM   13  C19 MIQ B 502      -6.289  -5.036 -21.365  1.00140.06     0.247 C 
HETATM   14  O25 MIQ B 502      -6.277  -5.769 -20.441  1.00143.95    -0.271 OA
HETATM   15  N20 MIQ B 502      -5.132  -4.200 -21.613  1.00140.02    -0.296 N 
HETATM   16  H13 MIQ B 502      -4.335  -4.230 -21.009  1.00142.77     0.171 HD
HETATM   17  C21 MIQ B 502      -5.175  -3.306 -22.741  1.00142.22     0.224 C 
HETATM   18  C22 MIQ B 502      -6.528  -2.718 -23.093  1.00139.52     0.106 C 
HETATM   19  O24 MIQ B 502      -4.204  -3.049 -23.363  1.00146.13    -0.273 OA
HETATM   20  C23 MIQ B 502      -7.461  -3.892 -23.327  1.00139.15     0.045 C 
ENDBRANCH  10  12
BRANCH   5  21
HETATM   21  N6  MIQ B 502     -12.783  -3.079 -17.196  1.00140.95    -0.377 N 
HETATM   22  C7  MIQ B 502     -13.118  -3.847 -16.009  1.00142.12     0.149 C 
HETATM   23  C8  MIQ B 502     -14.300  -3.248 -15.258  1.00144.10     0.187 C 
HETATM   24  O9  MIQ B 502     -14.180  -1.871 -15.064  1.00148.65    -0.388 OA
HETATM   25  C10 MIQ B 502     -13.177  -1.149 -15.717  1.00147.44     0.187 C 
HETATM   26  C11 MIQ B 502     -12.702  -1.634 -17.083  1.00144.08     0.149 C 
ENDBRANCH   5  21
TORSDOF 2
ENDMDL
MODEL 8
REMARK VINA RESULT:      -6.0     16.629     22.776
REMARK  2 active torsions:
REMARK  status: ('A' for Active; 'I' for Inactive)
REMARK    1  A    between atoms: C5_5  and  N6_21 
REMARK    2  A    between atoms: C18_14  and  N17_19 
ROOT
HETATM    1  O1  MIQ B 502     -12.926  -4.626 -16.858  1.00142.91    -0.171 OA
HETATM    2  C2  MIQ B 502     -13.319  -4.871 -18.176  1.00141.17     0.195 A 
HETATM    3  C3  MIQ B 502     -12.383  -4.913 -19.425  1.00141.71     0.035 A 
HETATM    4  C4  MIQ B 502     -10.924  -4.730 -19.611  1.00142.86     0.046 A 
HETATM    5  C5  MIQ B 502     -10.348  -4.831 -20.903  1.00139.53     0.031 A 
HETATM    6  C12 MIQ B 502     -11.196  -5.116 -22.052  1.00139.38     0.030 A 
HETATM    7  C13 MIQ B 502     -12.594  -5.292 -21.874  1.00141.18     0.019 A 
HETATM    8  C14 MIQ B 502     -13.193  -5.187 -20.515  1.00138.77     0.033 A 
HETATM    9  C15 MIQ B 502     -14.641  -5.318 -19.938  1.00142.10     0.195 A 
HETATM   10  N17 MIQ B 502     -14.534  -5.118 -18.635  1.00139.42    -0.288 N 
HETATM   11  O16 MIQ B 502     -15.806  -5.587 -20.659  1.00148.93    -0.171 OA
ENDROOT
BRANCH  10  12
HETATM   12  C18 MIQ B 502     -15.696  -5.149 -17.767  1.00139.82     0.187 C 
HETATM   13  C19 MIQ B 502     -15.668  -3.883 -16.902  1.00140.06     0.247 C 
HETATM   14  O25 MIQ B 502     -15.535  -2.833 -17.422  1.00143.95    -0.271 OA
HETATM   15  N20 MIQ B 502     -15.805  -3.939 -15.461  1.00140.02    -0.296 N 
HETATM   16  H13 MIQ B 502     -15.778  -3.106 -14.907  1.00142.77     0.171 HD
HETATM   17  C21 MIQ B 502     -15.956  -5.233 -14.848  1.00142.22     0.224 C 
HETATM   18  C22 MIQ B 502     -15.229  -6.389 -15.508  1.00139.52     0.106 C 
HETATM   19  O24 MIQ B 502     -16.618  -5.386 -13.881  1.00146.13    -0.273 OA
HETATM   20  C23 MIQ B 502     -15.713  -6.437 -16.946  1.00139.15     0.045 C 
ENDBRANCH  10  12
BRANCH   5  21
HETATM   21  N6  MIQ B 502      -8.920  -4.636 -21.073  1.00140.95    -0.377 N 
HETATM   22  C7  MIQ B 502      -8.070  -5.806 -21.213  1.00142.12     0.149 C 
HETATM   23  C8  MIQ B 502      -6.647  -5.535 -20.744  1.00144.10     0.187 C 
HETATM   24  O9  MIQ B 502      -6.120  -4.350 -21.262  1.00148.65    -0.388 OA
HETATM   25  C10 MIQ B 502      -6.944  -3.445 -21.936  1.00147.44     0.187 C 
HETATM   26  C11 MIQ B 502      -8.412  -3.355 -21.533  1.00144.08     0.149 C 
ENDBRANCH   5  21
TORSDOF 2
ENDMDL
MODEL 9
REMARK VINA RESULT:      -6.0     16.075     19.923
REMARK  2 active torsions:
REMARK  status: ('A' for Active; 'I' for Inactive)
REMARK    1  A    between atoms: C5_5  and  N6_21 
REMARK    2  A    between atoms: C18_14  and  N17_19 
ROOT
HETATM    1  O1  MIQ B 502      -8.677  -4.100 -19.852  1.00142.91    -0.171 OA
HETATM    2  C2  MIQ B 502      -9.827  -4.531 -20.517  1.00141.17     0.195 A 
HETATM    3  C3  MIQ B 502     -11.252  -4.677 -19.895  1.00141.71     0.035 A 
HETATM    4  C4  MIQ B 502     -11.802  -4.432 -18.540  1.00142.86     0.046 A 
HETATM    5  C5  MIQ B 502     -13.176  -4.661 -18.272  1.00139.53     0.031 A 
HETATM    6  C12 MIQ B 502     -14.049  -5.138 -19.335  1.00139.38     0.030 A 
HETATM    7  C13 MIQ B 502     -13.522  -5.372 -20.634  1.00141.18     0.019 A 
HETATM    8  C14 MIQ B 502     -12.080  -5.128 -20.910  1.00138.77     0.033 A 
HETATM    9  C15 MIQ B 502     -11.164  -5.262 -22.170  1.00142.10     0.195 A 
HETATM   10  N17 MIQ B 502      -9.955  -4.891 -21.783  1.00139.42    -0.288 N 
HETATM   11  O16 MIQ B 502     -11.550  -5.689 -23.441  1.00148.93    -0.171 OA
ENDROOT
BRANCH  10  12
HETATM   12  C18 MIQ B 502      -8.829  -4.904 -22.699  1.00139.82     0.187 C 
HETATM   13  C19 MIQ B 502      -7.703  -5.714 -22.045  1.00140.06     0.247 C 
HETATM   14  O25 MIQ B 502      -7.938  -6.789 -21.621  1.00143.95    -0.271 OA
HETATM   15  N20 MIQ B 502      -6.354  -5.197 -21.938  1.00140.02    -0.296 N 
HETATM   16  H13 MIQ B 502      -5.629  -5.733 -21.503  1.00142.77     0.171 HD
HETATM   17  C21 MIQ B 502      -6.094  -3.877 -22.453  1.00142.22     0.224 C 
HETATM   18  C22 MIQ B 502      -7.221  -2.869 -22.342  1.00139.52     0.106 C 
HETATM   19  O24 MIQ B 502      -5.055  -3.599 -22.943  1.00146.13    -0.273 OA
HETATM   20  C23 MIQ B 502      -8.416  -3.477 -23.053  1.00139.15     0.045 C 
ENDBRANCH  10  12
BRANCH   5  21
HETATM   21  N6  MIQ B 502     -13.698  -4.431 -16.938  1.00140.95    -0.377 N 
HETATM   22  C7  MIQ B 502     -13.002  -5.024 -15.808  1.00142.12     0.149 C 
HETATM   23  C8  MIQ B 502     -13.935  -5.265 -14.628  1.00144.10     0.187 C 
HETATM   24  O9  MIQ B 502     -14.727  -4.155 -14.326  1.00148.65    -0.388 OA
HETATM   25  C10 MIQ B 502     -14.777  -3.063 -15.197  1.00147.44     0.187 C 
HETATM   26  C11 MIQ B 502     -14.589  -3.311 -16.690  1.00144.08     0.149 C 
ENDBRANCH   5  21
TORSDOF 2
ENDMDL
