MODEL 1
REMARK VINA RESULT:      -5.5      0.000      0.000
REMARK  2 active torsions:
REMARK  status: ('A' for Active; 'I' for Inactive)
REMARK    1  A    between atoms: C5_5  and  N6_21 
REMARK    2  A    between atoms: C18_14  and  N17_19 
ROOT
HETATM    1  O1  MIQ B 502     -18.777  36.528  20.742  1.00142.91    -0.171 OA
HETATM    2  C2  MIQ B 502     -19.951  36.916  21.391  1.00141.17     0.195 A 
HETATM    3  C3  MIQ B 502     -21.243  37.467  20.707  1.00141.71     0.035 A 
HETATM    4  C4  MIQ B 502     -21.617  37.731  19.298  1.00142.86     0.046 A 
HETATM    5  C5  MIQ B 502     -22.899  38.245  18.980  1.00139.53     0.031 A 
HETATM    6  C12 MIQ B 502     -23.854  38.515  20.046  1.00139.38     0.030 A 
HETATM    7  C13 MIQ B 502     -23.496  38.261  21.398  1.00141.18     0.019 A 
HETATM    8  C14 MIQ B 502     -22.149  37.719  21.725  1.00138.77     0.033 A 
HETATM    9  C15 MIQ B 502     -21.416  37.321  23.047  1.00142.10     0.195 A 
HETATM   10  N17 MIQ B 502     -20.216  36.896  22.686  1.00139.42    -0.288 N 
HETATM   11  O16 MIQ B 502     -21.927  37.403  24.343  1.00148.93    -0.171 OA
ENDROOT
BRANCH  10  12
HETATM   12  C18 MIQ B 502     -19.242  36.455  23.667  1.00139.82     0.187 C 
HETATM   13  C19 MIQ B 502     -19.884  35.332  24.490  1.00140.06     0.247 C 
HETATM   14  O25 MIQ B 502     -20.389  34.424  23.932  1.00143.95    -0.271 OA
HETATM   15  N20 MIQ B 502     -19.883  35.351  25.939  1.00140.02    -0.296 N 
HETATM   16  H13 MIQ B 502     -20.312  34.615  26.465  1.00142.77     0.171 HD
HETATM   17  C21 MIQ B 502     -19.270  36.475  26.598  1.00142.22     0.224 C 
HETATM   18  C22 MIQ B 502     -19.377  37.816  25.899  1.00139.52     0.106 C 
HETATM   19  O24 MIQ B 502     -18.707  36.354  27.630  1.00146.13    -0.273 OA
HETATM   20  C23 MIQ B 502     -18.774  37.633  24.519  1.00139.15     0.045 C 
ENDBRANCH  10  12
BRANCH   5  21
HETATM   21  N6  MIQ B 502     -23.247  38.513  17.596  1.00140.95    -0.377 N 
HETATM   22  C7  MIQ B 502     -22.705  39.702  16.962  1.00142.12     0.149 C 
HETATM   23  C8  MIQ B 502     -23.596  40.200  15.832  1.00144.10     0.187 C 
HETATM   24  O9  MIQ B 502     -23.987  39.182  14.958  1.00148.65    -0.388 OA
HETATM   25  C10 MIQ B 502     -23.746  37.844  15.279  1.00147.44     0.187 C 
HETATM   26  C11 MIQ B 502     -23.731  37.437  16.749  1.00144.08     0.149 C 
ENDBRANCH   5  21
TORSDOF 2
ENDMDL
MODEL 2
REMARK VINA RESULT:      -5.5      1.717      2.217
REMARK  2 active torsions:
REMARK  status: ('A' for Active; 'I' for Inactive)
REMARK    1  A    between atoms: C5_5  and  N6_21 
REMARK    2  A    between atoms: C18_14  and  N17_19 
ROOT
HETATM    1  O1  MIQ B 502     -19.305  35.776  20.699  1.00142.91    -0.171 OA
HETATM    2  C2  MIQ B 502     -20.348  36.456  21.332  1.00141.17     0.195 A 
HETATM    3  C3  MIQ B 502     -21.516  37.216  20.627  1.00141.71     0.035 A 
HETATM    4  C4  MIQ B 502     -21.874  37.441  19.206  1.00142.86     0.046 A 
HETATM    5  C5  MIQ B 502     -23.029  38.191  18.869  1.00139.53     0.031 A 
HETATM    6  C12 MIQ B 502     -23.867  38.742  19.924  1.00139.38     0.030 A 
HETATM    7  C13 MIQ B 502     -23.525  38.525  21.286  1.00141.18     0.019 A 
HETATM    8  C14 MIQ B 502     -22.313  37.735  21.635  1.00138.77     0.033 A 
HETATM    9  C15 MIQ B 502     -21.635  37.295  22.973  1.00142.10     0.195 A 
HETATM   10  N17 MIQ B 502     -20.566  36.596  22.629  1.00139.42    -0.288 N 
HETATM   11  O16 MIQ B 502     -22.072  37.586  24.266  1.00148.93    -0.171 OA
ENDROOT
BRANCH  10  12
HETATM   12  C18 MIQ B 502     -19.674  36.035  23.627  1.00139.82     0.187 C 
HETATM   13  C19 MIQ B 502     -18.244  36.454  23.265  1.00140.06     0.247 C 
HETATM   14  O25 MIQ B 502     -18.013  37.592  23.058  1.00143.95    -0.271 OA
HETATM   15  N20 MIQ B 502     -17.165  35.492  23.175  1.00140.02    -0.296 N 
HETATM   16  H13 MIQ B 502     -16.238  35.778  22.932  1.00142.77     0.171 HD
HETATM   17  C21 MIQ B 502     -17.475  34.107  23.422  1.00142.22     0.224 C 
HETATM   18  C22 MIQ B 502     -18.850  33.630  22.997  1.00139.52     0.106 C 
HETATM   19  O24 MIQ B 502     -16.696  33.382  23.935  1.00146.13    -0.273 OA
HETATM   20  C23 MIQ B 502     -19.854  34.520  23.708  1.00139.15     0.045 C 
ENDBRANCH  10  12
BRANCH   5  21
HETATM   21  N6  MIQ B 502     -23.359  38.417  17.473  1.00140.95    -0.377 N 
HETATM   22  C7  MIQ B 502     -22.908  39.645  16.842  1.00142.12     0.149 C 
HETATM   23  C8  MIQ B 502     -23.808  40.053  15.683  1.00144.10     0.187 C 
HETATM   24  O9  MIQ B 502     -24.081  38.999  14.810  1.00148.65    -0.388 OA
HETATM   25  C10 MIQ B 502     -23.731  37.689  15.149  1.00147.44     0.187 C 
HETATM   26  C11 MIQ B 502     -23.721  37.296  16.623  1.00144.08     0.149 C 
ENDBRANCH   5  21
TORSDOF 2
ENDMDL
MODEL 3
REMARK VINA RESULT:      -5.5      3.943      7.812
REMARK  2 active torsions:
REMARK  status: ('A' for Active; 'I' for Inactive)
REMARK    1  A    between atoms: C5_5  and  N6_21 
REMARK    2  A    between atoms: C18_14  and  N17_19 
ROOT
HETATM    1  O1  MIQ B 502     -21.859  36.642  17.122  1.00142.91    -0.171 OA
HETATM    2  C2  MIQ B 502     -21.326  36.735  18.409  1.00141.17     0.195 A 
HETATM    3  C3  MIQ B 502     -20.786  35.550  19.272  1.00141.71     0.035 A 
HETATM    4  C4  MIQ B 502     -20.670  34.091  19.039  1.00142.86     0.046 A 
HETATM    5  C5  MIQ B 502     -20.122  33.247  20.038  1.00139.53     0.031 A 
HETATM    6  C12 MIQ B 502     -19.670  33.819  21.299  1.00139.38     0.030 A 
HETATM    7  C13 MIQ B 502     -19.781  35.218  21.522  1.00141.18     0.019 A 
HETATM    8  C14 MIQ B 502     -20.355  36.099  20.468  1.00138.77     0.033 A 
HETATM    9  C15 MIQ B 502     -20.628  37.634  20.347  1.00142.10     0.195 A 
HETATM   10  N17 MIQ B 502     -21.162  37.817  19.151  1.00139.42    -0.288 N 
HETATM   11  O16 MIQ B 502     -20.362  38.608  21.311  1.00148.93    -0.171 OA
ENDROOT
BRANCH  10  12
HETATM   12  C18 MIQ B 502     -21.563  39.134  18.694  1.00139.82     0.187 C 
HETATM   13  C19 MIQ B 502     -23.040  39.060  18.290  1.00140.06     0.247 C 
HETATM   14  O25 MIQ B 502     -23.821  38.599  19.044  1.00143.95    -0.271 OA
HETATM   15  N20 MIQ B 502     -23.507  39.545  17.007  1.00140.02    -0.296 N 
HETATM   16  H13 MIQ B 502     -24.473  39.484  16.753  1.00142.77     0.171 HD
HETATM   17  C21 MIQ B 502     -22.533  40.094  16.099  1.00142.22     0.224 C 
HETATM   18  C22 MIQ B 502     -21.148  39.477  16.131  1.00139.52     0.106 C 
HETATM   19  O24 MIQ B 502     -22.801  40.984  15.370  1.00146.13    -0.273 OA
HETATM   20  C23 MIQ B 502     -20.653  39.604  17.560  1.00139.15     0.045 C 
ENDBRANCH  10  12
BRANCH   5  21
HETATM   21  N6  MIQ B 502     -20.027  31.818  19.803  1.00140.95    -0.377 N 
HETATM   22  C7  MIQ B 502     -20.506  31.289  18.537  1.00142.12     0.149 C 
HETATM   23  C8  MIQ B 502     -20.946  29.836  18.658  1.00144.10     0.187 C 
HETATM   24  O9  MIQ B 502     -20.013  29.039  19.323  1.00148.65    -0.388 OA
HETATM   25  C10 MIQ B 502     -18.929  29.621  19.985  1.00147.44     0.187 C 
HETATM   26  C11 MIQ B 502     -19.101  31.014  20.581  1.00144.08     0.149 C 
ENDBRANCH   5  21
TORSDOF 2
ENDMDL
MODEL 4
REMARK VINA RESULT:      -5.5      2.970      8.287
REMARK  2 active torsions:
REMARK  status: ('A' for Active; 'I' for Inactive)
REMARK    1  A    between atoms: C5_5  and  N6_21 
REMARK    2  A    between atoms: C18_14  and  N17_19 
ROOT
HETATM    1  O1  MIQ B 502     -20.515  38.525  21.469  1.00142.91    -0.171 OA
HETATM    2  C2  MIQ B 502     -20.716  37.595  20.447  1.00141.17     0.195 A 
HETATM    3  C3  MIQ B 502     -20.397  36.067  20.515  1.00141.71     0.035 A 
HETATM    4  C4  MIQ B 502     -19.840  35.189  21.570  1.00142.86     0.046 A 
HETATM    5  C5  MIQ B 502     -19.664  33.802  21.330  1.00139.53     0.031 A 
HETATM    6  C12 MIQ B 502     -20.034  33.240  20.039  1.00139.38     0.030 A 
HETATM    7  C13 MIQ B 502     -20.570  34.083  19.027  1.00141.18     0.019 A 
HETATM    8  C14 MIQ B 502     -20.754  35.537  19.286  1.00138.77     0.033 A 
HETATM    9  C15 MIQ B 502     -21.298  36.742  18.451  1.00142.10     0.195 A 
HETATM   10  N17 MIQ B 502     -21.210  37.801  19.239  1.00139.42    -0.288 N 
HETATM   11  O16 MIQ B 502     -21.775  36.702  17.140  1.00148.93    -0.171 OA
ENDROOT
BRANCH  10  12
HETATM   12  C18 MIQ B 502     -21.617  39.118  18.785  1.00139.82     0.187 C 
HETATM   13  C19 MIQ B 502     -23.078  39.025  18.330  1.00140.06     0.247 C 
HETATM   14  O25 MIQ B 502     -23.877  38.543  19.051  1.00143.95    -0.271 OA
HETATM   15  N20 MIQ B 502     -23.509  39.520  17.038  1.00140.02    -0.296 N 
HETATM   16  H13 MIQ B 502     -24.465  39.448  16.750  1.00142.77     0.171 HD
HETATM   17  C21 MIQ B 502     -22.514  40.095  16.170  1.00142.22     0.224 C 
HETATM   18  C22 MIQ B 502     -21.121  39.500  16.242  1.00139.52     0.106 C 
HETATM   19  O24 MIQ B 502     -22.771  40.991  15.443  1.00146.13    -0.273 OA
HETATM   20  C23 MIQ B 502     -20.676  39.616  17.688  1.00139.15     0.045 C 
ENDBRANCH  10  12
BRANCH   5  21
HETATM   21  N6  MIQ B 502     -19.103  32.956  22.367  1.00140.95    -0.377 N 
HETATM   22  C7  MIQ B 502     -19.060  33.462  23.728  1.00142.12     0.149 C 
HETATM   23  C8  MIQ B 502     -17.936  32.826  24.536  1.00144.10     0.187 C 
HETATM   24  O9  MIQ B 502     -17.899  31.435  24.415  1.00148.65    -0.388 OA
HETATM   25  C10 MIQ B 502     -18.684  30.788  23.457  1.00147.44     0.187 C 
HETATM   26  C11 MIQ B 502     -19.006  31.522  22.160  1.00144.08     0.149 C 
ENDBRANCH   5  21
TORSDOF 2
ENDMDL
MODEL 5
REMARK VINA RESULT:      -5.4     12.221     17.204
REMARK  2 active torsions:
REMARK  status: ('A' for Active; 'I' for Inactive)
REMARK    1  A    between atoms: C5_5  and  N6_21 
REMARK    2  A    between atoms: C18_14  and  N17_19 
ROOT
HETATM    1  O1  MIQ B 502     -34.390  39.657  13.709  1.00142.91    -0.171 OA
HETATM    2  C2  MIQ B 502     -35.410  38.727  13.926  1.00141.17     0.195 A 
HETATM    3  C3  MIQ B 502     -35.255  37.331  14.610  1.00141.71     0.035 A 
HETATM    4  C4  MIQ B 502     -34.103  36.605  15.196  1.00142.86     0.046 A 
HETATM    5  C5  MIQ B 502     -34.280  35.317  15.760  1.00139.53     0.031 A 
HETATM    6  C12 MIQ B 502     -35.601  34.704  15.763  1.00139.38     0.030 A 
HETATM    7  C13 MIQ B 502     -36.705  35.400  15.203  1.00141.18     0.019 A 
HETATM    8  C14 MIQ B 502     -36.515  36.754  14.614  1.00138.77     0.033 A 
HETATM    9  C15 MIQ B 502     -37.456  37.798  13.930  1.00142.10     0.195 A 
HETATM   10  N17 MIQ B 502     -36.690  38.829  13.614  1.00139.42    -0.288 N 
HETATM   11  O16 MIQ B 502     -38.827  37.663  13.700  1.00148.93    -0.171 OA
ENDROOT
BRANCH  10  12
HETATM   12  C18 MIQ B 502     -37.230  39.995  12.940  1.00139.82     0.187 C 
HETATM   13  C19 MIQ B 502     -36.345  40.283  11.722  1.00140.06     0.247 C 
HETATM   14  O25 MIQ B 502     -36.104  39.410  10.965  1.00143.95    -0.271 OA
HETATM   15  N20 MIQ B 502     -35.799  41.601  11.468  1.00140.02    -0.296 N 
HETATM   16  H13 MIQ B 502     -35.217  41.775  10.673  1.00142.77     0.171 HD
HETATM   17  C21 MIQ B 502     -36.099  42.648  12.411  1.00142.22     0.224 C 
HETATM   18  C22 MIQ B 502     -36.239  42.236  13.864  1.00139.52     0.106 C 
HETATM   19  O24 MIQ B 502     -36.233  43.770  12.066  1.00146.13    -0.273 OA
HETATM   20  C23 MIQ B 502     -37.322  41.173  13.908  1.00139.15     0.045 C 
ENDBRANCH  10  12
BRANCH   5  21
HETATM   21  N6  MIQ B 502     -33.140  34.611  16.316  1.00140.95    -0.377 N 
HETATM   22  C7  MIQ B 502     -31.813  35.166  16.114  1.00142.12     0.149 C 
HETATM   23  C8  MIQ B 502     -30.735  34.090  16.148  1.00144.10     0.187 C 
HETATM   24  O9  MIQ B 502     -30.862  33.229  17.240  1.00148.65    -0.388 OA
HETATM   25  C10 MIQ B 502     -32.008  33.262  18.038  1.00147.44     0.187 C 
HETATM   26  C11 MIQ B 502     -33.333  33.659  17.396  1.00144.08     0.149 C 
ENDBRANCH   5  21
TORSDOF 2
ENDMDL
MODEL 6
REMARK VINA RESULT:      -5.4     12.525     14.292
REMARK  2 active torsions:
REMARK  status: ('A' for Active; 'I' for Inactive)
REMARK    1  A    between atoms: C5_5  and  N6_21 
REMARK    2  A    between atoms: C18_14  and  N17_19 
ROOT
HETATM    1  O1  MIQ B 502     -29.559  43.491  29.214  1.00142.91    -0.171 OA
HETATM    2  C2  MIQ B 502     -28.684  44.388  28.598  1.00141.17     0.195 A 
HETATM    3  C3  MIQ B 502     -28.821  45.943  28.576  1.00141.71     0.035 A 
HETATM    4  C4  MIQ B 502     -29.815  46.887  29.142  1.00142.86     0.046 A 
HETATM    5  C5  MIQ B 502     -29.667  48.284  28.951  1.00139.53     0.031 A 
HETATM    6  C12 MIQ B 502     -28.531  48.793  28.195  1.00139.38     0.030 A 
HETATM    7  C13 MIQ B 502     -27.578  47.889  27.653  1.00141.18     0.019 A 
HETATM    8  C14 MIQ B 502     -27.738  46.424  27.859  1.00138.77     0.033 A 
HETATM    9  C15 MIQ B 502     -26.922  45.159  27.434  1.00142.10     0.195 A 
HETATM   10  N17 MIQ B 502     -27.579  44.120  27.924  1.00139.42    -0.288 N 
HETATM   11  O16 MIQ B 502     -25.743  45.137  26.687  1.00148.93    -0.171 OA
ENDROOT
BRANCH  10  12
HETATM   12  C18 MIQ B 502     -27.115  42.762  27.709  1.00139.82     0.187 C 
HETATM   13  C19 MIQ B 502     -28.222  42.001  26.969  1.00140.06     0.247 C 
HETATM   14  O25 MIQ B 502     -28.686  42.468  25.990  1.00143.95    -0.271 OA
HETATM   15  N20 MIQ B 502     -28.712  40.720  27.435  1.00140.02    -0.296 N 
HETATM   16  H13 MIQ B 502     -29.439  40.237  26.946  1.00142.77     0.171 HD
HETATM   17  C21 MIQ B 502     -28.137  40.176  28.639  1.00142.22     0.224 C 
HETATM   18  C22 MIQ B 502     -27.713  41.171  29.701  1.00139.52     0.106 C 
HETATM   19  O24 MIQ B 502     -27.999  39.011  28.785  1.00146.13    -0.273 OA
HETATM   20  C23 MIQ B 502     -26.727  42.116  29.039  1.00139.15     0.045 C 
ENDBRANCH  10  12
BRANCH   5  21
HETATM   21  N6  MIQ B 502     -30.655  49.195  29.498  1.00140.95    -0.377 N 
HETATM   22  C7  MIQ B 502     -30.309  50.600  29.626  1.00142.12     0.149 C 
HETATM   23  C8  MIQ B 502     -31.095  51.280  30.739  1.00144.10     0.187 C 
HETATM   24  O9  MIQ B 502     -32.463  51.006  30.684  1.00148.65    -0.388 OA
HETATM   25  C10 MIQ B 502     -32.953  50.020  29.823  1.00147.44     0.187 C 
HETATM   26  C11 MIQ B 502     -32.060  48.827  29.496  1.00144.08     0.149 C 
ENDBRANCH   5  21
TORSDOF 2
ENDMDL
MODEL 7
REMARK VINA RESULT:      -5.4     12.831     14.632
REMARK  2 active torsions:
REMARK  status: ('A' for Active; 'I' for Inactive)
REMARK    1  A    between atoms: C5_5  and  N6_21 
REMARK    2  A    between atoms: C18_14  and  N17_19 
ROOT
HETATM    1  O1  MIQ B 502     -27.126  44.841  27.883  1.00142.91    -0.171 OA
HETATM    2  C2  MIQ B 502     -28.178  45.621  28.370  1.00141.17     0.195 A 
HETATM    3  C3  MIQ B 502     -28.154  47.167  28.589  1.00141.71     0.035 A 
HETATM    4  C4  MIQ B 502     -27.125  48.211  28.374  1.00142.86     0.046 A 
HETATM    5  C5  MIQ B 502     -27.407  49.568  28.672  1.00139.53     0.031 A 
HETATM    6  C12 MIQ B 502     -28.716  49.937  29.192  1.00139.38     0.030 A 
HETATM    7  C13 MIQ B 502     -29.703  48.936  29.398  1.00141.18     0.019 A 
HETATM    8  C14 MIQ B 502     -29.402  47.513  29.081  1.00138.77     0.033 A 
HETATM    9  C15 MIQ B 502     -30.205  46.174  29.167  1.00142.10     0.195 A 
HETATM   10  N17 MIQ B 502     -29.386  45.229  28.736  1.00139.42    -0.288 N 
HETATM   11  O16 MIQ B 502     -31.519  46.015  29.612  1.00148.93    -0.171 OA
ENDROOT
BRANCH  10  12
HETATM   12  C18 MIQ B 502     -29.793  43.837  28.691  1.00139.82     0.187 C 
HETATM   13  C19 MIQ B 502     -28.708  43.010  29.391  1.00140.06     0.247 C 
HETATM   14  O25 MIQ B 502     -28.346  43.328  30.468  1.00143.95    -0.271 OA
HETATM   15  N20 MIQ B 502     -28.118  41.842  28.769  1.00140.02    -0.296 N 
HETATM   16  H13 MIQ B 502     -27.406  41.314  29.234  1.00142.77     0.171 HD
HETATM   17  C21 MIQ B 502     -28.569  41.480  27.450  1.00142.22     0.224 C 
HETATM   18  C22 MIQ B 502     -28.961  42.618  26.528  1.00139.52     0.106 C 
HETATM   19  O24 MIQ B 502     -28.634  40.350  27.108  1.00146.13    -0.273 OA
HETATM   20  C23 MIQ B 502     -30.043  43.402  27.248  1.00139.15     0.045 C 
ENDBRANCH  10  12
BRANCH   5  21
HETATM   21  N6  MIQ B 502     -26.384  50.578  28.471  1.00140.95    -0.377 N 
HETATM   22  C7  MIQ B 502     -26.658  51.939  28.899  1.00142.12     0.149 C 
HETATM   23  C8  MIQ B 502     -25.862  52.959  28.095  1.00144.10     0.187 C 
HETATM   24  O9  MIQ B 502     -24.510  52.629  27.985  1.00148.65    -0.388 OA
HETATM   25  C10 MIQ B 502     -24.053  51.371  28.388  1.00147.44     0.187 C 
HETATM   26  C11 MIQ B 502     -25.001  50.181  28.275  1.00144.08     0.149 C 
ENDBRANCH   5  21
TORSDOF 2
ENDMDL
MODEL 8
REMARK VINA RESULT:      -5.3      4.540      6.608
REMARK  2 active torsions:
REMARK  status: ('A' for Active; 'I' for Inactive)
REMARK    1  A    between atoms: C5_5  and  N6_21 
REMARK    2  A    between atoms: C18_14  and  N17_19 
ROOT
HETATM    1  O1  MIQ B 502     -20.437  36.087  20.549  1.00142.91    -0.171 OA
HETATM    2  C2  MIQ B 502     -20.051  35.388  21.695  1.00141.17     0.195 A 
HETATM    3  C3  MIQ B 502     -19.675  33.873  21.768  1.00141.71     0.035 A 
HETATM    4  C4  MIQ B 502     -19.605  32.791  20.758  1.00142.86     0.046 A 
HETATM    5  C5  MIQ B 502     -19.219  31.480  21.138  1.00139.53     0.031 A 
HETATM    6  C12 MIQ B 502     -18.889  31.198  22.527  1.00139.38     0.030 A 
HETATM    7  C13 MIQ B 502     -18.955  32.236  23.496  1.00141.18     0.019 A 
HETATM    8  C14 MIQ B 502     -19.359  33.610  23.091  1.00138.77     0.033 A 
HETATM    9  C15 MIQ B 502     -19.538  34.969  23.843  1.00142.10     0.195 A 
HETATM   10  N17 MIQ B 502     -19.921  35.845  22.928  1.00139.42    -0.288 N 
HETATM   11  O16 MIQ B 502     -19.338  35.204  25.205  1.00148.93    -0.171 OA
ENDROOT
BRANCH  10  12
HETATM   12  C18 MIQ B 502     -20.200  37.227  23.273  1.00139.82     0.187 C 
HETATM   13  C19 MIQ B 502     -19.041  37.737  24.138  1.00140.06     0.247 C 
HETATM   14  O25 MIQ B 502     -17.933  37.593  23.760  1.00143.95    -0.271 OA
HETATM   15  N20 MIQ B 502     -19.269  38.397  25.407  1.00140.02    -0.296 N 
HETATM   16  H13 MIQ B 502     -18.503  38.719  25.966  1.00142.77     0.171 HD
HETATM   17  C21 MIQ B 502     -20.630  38.552  25.853  1.00142.22     0.224 C 
HETATM   18  C22 MIQ B 502     -21.600  37.449  25.475  1.00139.52     0.106 C 
HETATM   19  O24 MIQ B 502     -20.972  39.495  26.477  1.00146.13    -0.273 OA
HETATM   20  C23 MIQ B 502     -21.559  37.339  23.962  1.00139.15     0.045 C 
ENDBRANCH  10  12
BRANCH   5  21
HETATM   21  N6  MIQ B 502     -19.169  30.426  20.141  1.00140.95    -0.377 N 
HETATM   22  C7  MIQ B 502     -20.220  30.367  19.139  1.00142.12     0.149 C 
HETATM   23  C8  MIQ B 502     -20.424  28.953  18.611  1.00144.10     0.187 C 
HETATM   24  O9  MIQ B 502     -19.227  28.327  18.258  1.00148.65    -0.388 OA
HETATM   25  C10 MIQ B 502     -18.000  28.902  18.599  1.00147.44     0.187 C 
HETATM   26  C11 MIQ B 502     -17.917  29.744  19.868  1.00144.08     0.149 C 
ENDBRANCH   5  21
TORSDOF 2
ENDMDL
MODEL 9
REMARK VINA RESULT:      -5.2      2.087      8.155
REMARK  2 active torsions:
REMARK  status: ('A' for Active; 'I' for Inactive)
REMARK    1  A    between atoms: C5_5  and  N6_21 
REMARK    2  A    between atoms: C18_14  and  N17_19 
ROOT
HETATM    1  O1  MIQ B 502     -22.197  39.080  21.023  1.00142.91    -0.171 OA
HETATM    2  C2  MIQ B 502     -21.510  37.881  21.220  1.00141.17     0.195 A 
HETATM    3  C3  MIQ B 502     -21.127  37.253  22.599  1.00141.71     0.035 A 
HETATM    4  C4  MIQ B 502     -21.344  37.671  24.004  1.00142.86     0.046 A 
HETATM    5  C5  MIQ B 502     -20.869  36.868  25.072  1.00139.53     0.031 A 
HETATM    6  C12 MIQ B 502     -20.165  35.627  24.785  1.00139.38     0.030 A 
HETATM    7  C13 MIQ B 502     -19.957  35.225  23.438  1.00141.18     0.019 A 
HETATM    8  C14 MIQ B 502     -20.461  36.071  22.321  1.00138.77     0.033 A 
HETATM    9  C15 MIQ B 502     -20.430  35.964  20.761  1.00142.10     0.195 A 
HETATM   10  N17 MIQ B 502     -21.052  37.040  20.309  1.00139.42    -0.288 N 
HETATM   11  O16 MIQ B 502     -19.857  34.940  20.005  1.00148.93    -0.171 OA
ENDROOT
BRANCH  10  12
HETATM   12  C18 MIQ B 502     -21.202  37.286  18.887  1.00139.82     0.187 C 
HETATM   13  C19 MIQ B 502     -20.661  38.692  18.596  1.00140.06     0.247 C 
HETATM   14  O25 MIQ B 502     -19.587  38.987  18.984  1.00143.95    -0.271 OA
HETATM   15  N20 MIQ B 502     -21.432  39.668  17.853  1.00140.02    -0.296 N 
HETATM   16  H13 MIQ B 502     -21.070  40.584  17.676  1.00142.77     0.171 HD
HETATM   17  C21 MIQ B 502     -22.745  39.287  17.400  1.00142.22     0.224 C 
HETATM   18  C22 MIQ B 502     -23.524  38.339  18.290  1.00139.52     0.106 C 
HETATM   19  O24 MIQ B 502     -23.188  39.692  16.382  1.00146.13    -0.273 OA
HETATM   20  C23 MIQ B 502     -22.659  37.104  18.466  1.00139.15     0.045 C 
ENDBRANCH  10  12
BRANCH   5  21
HETATM   21  N6  MIQ B 502     -21.075  37.297  26.443  1.00140.95    -0.377 N 
HETATM   22  C7  MIQ B 502     -21.735  38.570  26.681  1.00142.12     0.149 C 
HETATM   23  C8  MIQ B 502     -21.326  39.182  28.015  1.00144.10     0.187 C 
HETATM   24  O9  MIQ B 502     -21.386  38.272  29.072  1.00148.65    -0.388 OA
HETATM   25  C10 MIQ B 502     -21.578  36.910  28.823  1.00147.44     0.187 C 
HETATM   26  C11 MIQ B 502     -21.043  36.324  27.521  1.00144.08     0.149 C 
ENDBRANCH   5  21
TORSDOF 2
ENDMDL
