MODEL 1
REMARK VINA RESULT:      -7.5      0.000      0.000
REMARK  2 active torsions:
REMARK  status: ('A' for Active; 'I' for Inactive)
REMARK    1  A    between atoms: C5_5  and  N6_21 
REMARK    2  A    between atoms: C18_14  and  N17_19 
ROOT
HETATM    1  O1  MIQ B 502      21.247 -10.008  10.453  1.00142.91    -0.171 OA
HETATM    2  C2  MIQ B 502      20.258  -9.151   9.965  1.00141.17     0.195 A 
HETATM    3  C3  MIQ B 502      20.485  -7.916   9.035  1.00141.71     0.035 A 
HETATM    4  C4  MIQ B 502      21.691  -7.309   8.424  1.00142.86     0.046 A 
HETATM    5  C5  MIQ B 502      21.576  -6.159   7.602  1.00139.53     0.031 A 
HETATM    6  C12 MIQ B 502      20.266  -5.573   7.358  1.00139.38     0.030 A 
HETATM    7  C13 MIQ B 502      19.110  -6.155   7.944  1.00141.18     0.019 A 
HETATM    8  C14 MIQ B 502      19.236  -7.364   8.804  1.00138.77     0.033 A 
HETATM    9  C15 MIQ B 502      18.228  -8.261   9.593  1.00142.10     0.195 A 
HETATM   10  N17 MIQ B 502      18.954  -9.201  10.175  1.00139.42    -0.288 N 
HETATM   11  O16 MIQ B 502      16.844  -8.097   9.667  1.00148.93    -0.171 OA
ENDROOT
BRANCH  10  12
HETATM   12  C18 MIQ B 502      18.346 -10.217  11.015  1.00139.82     0.187 C 
HETATM   13  C19 MIQ B 502      17.297 -10.953  10.173  1.00140.06     0.247 C 
HETATM   14  O25 MIQ B 502      17.603 -11.381   9.117  1.00143.95    -0.271 OA
HETATM   15  N20 MIQ B 502      15.940 -11.145  10.641  1.00140.02    -0.296 N 
HETATM   16  H13 MIQ B 502      15.262 -11.622  10.079  1.00142.77     0.171 HD
HETATM   17  C21 MIQ B 502      15.588 -10.605  11.929  1.00142.22     0.224 C 
HETATM   18  C22 MIQ B 502      16.273  -9.316  12.338  1.00139.52     0.106 C 
HETATM   19  O24 MIQ B 502      14.807 -11.145  12.633  1.00146.13    -0.273 OA
HETATM   20  C23 MIQ B 502      17.766  -9.584  12.279  1.00139.15     0.045 C 
ENDBRANCH  10  12
BRANCH   5  21
HETATM   21  N6  MIQ B 502      22.767  -5.567   7.021  1.00140.95    -0.377 N 
HETATM   22  C7  MIQ B 502      22.608  -4.521   6.025  1.00142.12     0.149 C 
HETATM   23  C8  MIQ B 502      23.797  -4.455   5.075  1.00144.10     0.187 C 
HETATM   24  O9  MIQ B 502      25.025  -4.464   5.739  1.00148.65    -0.388 OA
HETATM   25  C10 MIQ B 502      25.087  -4.744   7.107  1.00147.44     0.187 C 
HETATM   26  C11 MIQ B 502      24.042  -5.676   7.709  1.00144.08     0.149 C 
ENDBRANCH   5  21
TORSDOF 2
ENDMDL
MODEL 2
REMARK VINA RESULT:      -6.8     24.089     25.712
REMARK  2 active torsions:
REMARK  status: ('A' for Active; 'I' for Inactive)
REMARK    1  A    between atoms: C5_5  and  N6_21 
REMARK    2  A    between atoms: C18_14  and  N17_19 
ROOT
HETATM    1  O1  MIQ B 502       1.576   9.106  16.892  1.00142.91    -0.171 OA
HETATM    2  C2  MIQ B 502       2.188   8.838  15.666  1.00141.17     0.195 A 
HETATM    3  C3  MIQ B 502       2.547   9.887  14.566  1.00141.71     0.035 A 
HETATM    4  C4  MIQ B 502       2.381  11.356  14.466  1.00142.86     0.046 A 
HETATM    5  C5  MIQ B 502       2.820  12.050  13.310  1.00139.53     0.031 A 
HETATM    6  C12 MIQ B 502       3.437  11.313  12.216  1.00139.38     0.030 A 
HETATM    7  C13 MIQ B 502       3.597   9.905  12.312  1.00141.18     0.019 A 
HETATM    8  C14 MIQ B 502       3.137   9.182  13.529  1.00138.77     0.033 A 
HETATM    9  C15 MIQ B 502       3.144   7.688  13.988  1.00142.10     0.195 A 
HETATM   10  N17 MIQ B 502       2.588   7.672  15.188  1.00139.42    -0.288 N 
HETATM   11  O16 MIQ B 502       3.637   6.595  13.272  1.00148.93    -0.171 OA
ENDROOT
BRANCH  10  12
HETATM   12  C18 MIQ B 502       2.410   6.434  15.925  1.00139.82     0.187 C 
HETATM   13  C19 MIQ B 502       0.965   6.398  16.437  1.00140.06     0.247 C 
HETATM   14  O25 MIQ B 502       0.081   6.591  15.681  1.00143.95    -0.271 OA
HETATM   15  N20 MIQ B 502       0.654   6.127  17.826  1.00140.02    -0.296 N 
HETATM   16  H13 MIQ B 502      -0.293   6.112  18.149  1.00142.77     0.171 HD
HETATM   17  C21 MIQ B 502       1.751   5.905  18.732  1.00142.22     0.224 C 
HETATM   18  C22 MIQ B 502       3.028   6.676  18.458  1.00139.52     0.106 C 
HETATM   19  O24 MIQ B 502       1.660   5.154  19.640  1.00146.13    -0.273 OA
HETATM   20  C23 MIQ B 502       3.447   6.327  17.042  1.00139.15     0.045 C 
ENDBRANCH  10  12
BRANCH   5  21
HETATM   21  N6  MIQ B 502       2.638  13.487  13.219  1.00140.95    -0.377 N 
HETATM   22  C7  MIQ B 502       2.316  14.066  11.926  1.00142.12     0.149 C 
HETATM   23  C8  MIQ B 502       2.777  15.514  11.821  1.00144.10     0.187 C 
HETATM   24  O9  MIQ B 502       2.410  16.283  12.927  1.00148.65    -0.388 OA
HETATM   25  C10 MIQ B 502       1.889  15.673  14.071  1.00147.44     0.187 C 
HETATM   26  C11 MIQ B 502       2.341  14.258  14.414  1.00144.08     0.149 C 
ENDBRANCH   5  21
TORSDOF 2
ENDMDL
MODEL 3
REMARK VINA RESULT:      -6.6     24.572     26.337
REMARK  2 active torsions:
REMARK  status: ('A' for Active; 'I' for Inactive)
REMARK    1  A    between atoms: C5_5  and  N6_21 
REMARK    2  A    between atoms: C18_14  and  N17_19 
ROOT
HETATM    1  O1  MIQ B 502       2.386   7.639  13.304  1.00142.91    -0.171 OA
HETATM    2  C2  MIQ B 502       1.930   8.243  14.478  1.00141.17     0.195 A 
HETATM    3  C3  MIQ B 502       1.509   9.738  14.642  1.00141.71     0.035 A 
HETATM    4  C4  MIQ B 502       1.454  10.889  13.711  1.00142.86     0.046 A 
HETATM    5  C5  MIQ B 502       1.014  12.158  14.165  1.00139.53     0.031 A 
HETATM    6  C12 MIQ B 502       0.614  12.330  15.554  1.00139.38     0.030 A 
HETATM    7  C13 MIQ B 502       0.666  11.226  16.447  1.00141.18     0.019 A 
HETATM    8  C14 MIQ B 502       1.126   9.895  15.964  1.00138.77     0.033 A 
HETATM    9  C15 MIQ B 502       1.310   8.490  16.624  1.00142.10     0.195 A 
HETATM   10  N17 MIQ B 502       1.757   7.693  15.668  1.00139.42    -0.288 N 
HETATM   11  O16 MIQ B 502       1.055   8.151  17.954  1.00148.93    -0.171 OA
ENDROOT
BRANCH  10  12
HETATM   12  C18 MIQ B 502       2.059   6.297  15.924  1.00139.82     0.187 C 
HETATM   13  C19 MIQ B 502       0.848   5.679  16.633  1.00140.06     0.247 C 
HETATM   14  O25 MIQ B 502      -0.226   5.818  16.166  1.00143.95    -0.271 OA
HETATM   15  N20 MIQ B 502       0.986   4.922  17.861  1.00140.02    -0.296 N 
HETATM   16  H13 MIQ B 502       0.186   4.529  18.317  1.00142.77     0.171 HD
HETATM   17  C21 MIQ B 502       2.306   4.775  18.418  1.00142.22     0.224 C 
HETATM   18  C22 MIQ B 502       3.261   5.937  18.223  1.00139.52     0.106 C 
HETATM   19  O24 MIQ B 502       2.628   3.794  18.993  1.00146.13    -0.273 OA
HETATM   20  C23 MIQ B 502       3.354   6.172  16.726  1.00139.15     0.045 C 
ENDBRANCH  10  12
BRANCH   5  21
HETATM   21  N6  MIQ B 502       0.980  13.281  13.245  1.00140.95    -0.377 N 
HETATM   22  C7  MIQ B 502       0.402  14.534  13.700  1.00142.12     0.149 C 
HETATM   23  C8  MIQ B 502      -0.152  15.358  12.544  1.00144.10     0.187 C 
HETATM   24  O9  MIQ B 502       0.742  15.465  11.477  1.00148.65    -0.388 OA
HETATM   25  C10 MIQ B 502       1.900  14.684  11.442  1.00147.44     0.187 C 
HETATM   26  C11 MIQ B 502       1.871  13.308  12.099  1.00144.08     0.149 C 
ENDBRANCH   5  21
TORSDOF 2
ENDMDL
MODEL 4
REMARK VINA RESULT:      -6.5      3.915      6.470
REMARK  2 active torsions:
REMARK  status: ('A' for Active; 'I' for Inactive)
REMARK    1  A    between atoms: C5_5  and  N6_21 
REMARK    2  A    between atoms: C18_14  and  N17_19 
ROOT
HETATM    1  O1  MIQ B 502      22.449  -4.589   6.494  1.00142.91    -0.171 OA
HETATM    2  C2  MIQ B 502      22.933  -4.971   7.747  1.00141.17     0.195 A 
HETATM    3  C3  MIQ B 502      23.704  -4.060   8.755  1.00141.71     0.035 A 
HETATM    4  C4  MIQ B 502      24.129  -2.640   8.726  1.00142.86     0.046 A 
HETATM    5  C5  MIQ B 502      24.832  -2.080   9.822  1.00139.53     0.031 A 
HETATM    6  C12 MIQ B 502      25.136  -2.904  10.983  1.00139.38     0.030 A 
HETATM    7  C13 MIQ B 502      24.727  -4.265  11.012  1.00141.18     0.019 A 
HETATM    8  C14 MIQ B 502      23.988  -4.847   9.859  1.00138.77     0.033 A 
HETATM    9  C15 MIQ B 502      23.389  -6.255   9.535  1.00142.10     0.195 A 
HETATM   10  N17 MIQ B 502      22.842  -6.151   8.335  1.00139.42    -0.288 N 
HETATM   11  O16 MIQ B 502      23.430  -7.388  10.349  1.00148.93    -0.171 OA
ENDROOT
BRANCH  10  12
HETATM   12  C18 MIQ B 502      22.197  -7.284   7.697  1.00139.82     0.187 C 
HETATM   13  C19 MIQ B 502      21.133  -7.821   8.662  1.00140.06     0.247 C 
HETATM   14  O25 MIQ B 502      20.349  -7.074   9.129  1.00143.95    -0.271 OA
HETATM   15  N20 MIQ B 502      21.059  -9.225   9.013  1.00140.02    -0.296 N 
HETATM   16  H13 MIQ B 502      20.364  -9.562   9.649  1.00142.77     0.171 HD
HETATM   17  C21 MIQ B 502      22.034 -10.116   8.437  1.00142.22     0.224 C 
HETATM   18  C22 MIQ B 502      23.418  -9.546   8.194  1.00139.52     0.106 C 
HETATM   19  O24 MIQ B 502      21.764 -11.233   8.164  1.00146.13    -0.273 OA
HETATM   20  C23 MIQ B 502      23.234  -8.333   7.300  1.00139.15     0.045 C 
ENDBRANCH  10  12
BRANCH   5  21
HETATM   21  N6  MIQ B 502      25.256  -0.692   9.774  1.00140.95    -0.377 N 
HETATM   22  C7  MIQ B 502      26.655  -0.385  10.013  1.00142.12     0.149 C 
HETATM   23  C8  MIQ B 502      26.842   1.024  10.563  1.00144.10     0.187 C 
HETATM   24  O9  MIQ B 502      26.135   1.987   9.841  1.00148.65    -0.388 OA
HETATM   25  C10 MIQ B 502      25.194   1.603   8.882  1.00147.44     0.187 C 
HETATM   26  C11 MIQ B 502      24.441   0.291   9.082  1.00144.08     0.149 C 
ENDBRANCH   5  21
TORSDOF 2
ENDMDL
MODEL 5
REMARK VINA RESULT:      -6.5     22.463     25.168
REMARK  2 active torsions:
REMARK  status: ('A' for Active; 'I' for Inactive)
REMARK    1  A    between atoms: C5_5  and  N6_21 
REMARK    2  A    between atoms: C18_14  and  N17_19 
ROOT
HETATM    1  O1  MIQ B 502       4.964   8.273  15.816  1.00142.91    -0.171 OA
HETATM    2  C2  MIQ B 502       3.625   7.927  16.011  1.00141.17     0.195 A 
HETATM    3  C3  MIQ B 502       2.959   7.547  17.372  1.00141.71     0.035 A 
HETATM    4  C4  MIQ B 502       3.466   7.440  18.760  1.00142.86     0.046 A 
HETATM    5  C5  MIQ B 502       2.596   7.063  19.814  1.00139.53     0.031 A 
HETATM    6  C12 MIQ B 502       1.197   6.780  19.530  1.00139.38     0.030 A 
HETATM    7  C13 MIQ B 502       0.709   6.884  18.199  1.00141.18     0.019 A 
HETATM    8  C14 MIQ B 502       1.627   7.282  17.097  1.00138.77     0.033 A 
HETATM    9  C15 MIQ B 502       1.465   7.500  15.557  1.00142.10     0.195 A 
HETATM   10  N17 MIQ B 502       2.659   7.855  15.111  1.00139.42    -0.288 N 
HETATM   11  O16 MIQ B 502       0.296   7.347  14.809  1.00148.93    -0.171 OA
ENDROOT
BRANCH  10  12
HETATM   12  C18 MIQ B 502       2.892   8.127  13.705  1.00139.82     0.187 C 
HETATM   13  C19 MIQ B 502       4.091   7.283  13.258  1.00140.06     0.247 C 
HETATM   14  O25 MIQ B 502       4.100   6.126  13.490  1.00143.95    -0.271 OA
HETATM   15  N20 MIQ B 502       5.214   7.865  12.551  1.00140.02    -0.296 N 
HETATM   16  H13 MIQ B 502       5.994   7.304  12.271  1.00142.77     0.171 HD
HETATM   17  C21 MIQ B 502       5.185   9.280  12.289  1.00142.22     0.224 C 
HETATM   18  C22 MIQ B 502       4.508  10.152  13.329  1.00139.52     0.106 C 
HETATM   19  O24 MIQ B 502       5.662   9.737  11.308  1.00146.13    -0.273 OA
HETATM   20  C23 MIQ B 502       3.093   9.624  13.479  1.00139.15     0.045 C 
ENDBRANCH  10  12
BRANCH   5  21
HETATM   21  N6  MIQ B 502       3.111   6.948  21.167  1.00140.95    -0.377 N 
HETATM   22  C7  MIQ B 502       4.147   7.871  21.597  1.00142.12     0.149 C 
HETATM   23  C8  MIQ B 502       5.014   7.279  22.700  1.00144.10     0.187 C 
HETATM   24  O9  MIQ B 502       4.265   6.701  23.728  1.00148.65    -0.388 OA
HETATM   25  C10 MIQ B 502       2.889   6.511  23.581  1.00147.44     0.187 C 
HETATM   26  C11 MIQ B 502       2.332   6.261  22.183  1.00144.08     0.149 C 
ENDBRANCH   5  21
TORSDOF 2
ENDMDL
MODEL 6
REMARK VINA RESULT:      -6.4      2.568      8.073
REMARK  2 active torsions:
REMARK  status: ('A' for Active; 'I' for Inactive)
REMARK    1  A    between atoms: C5_5  and  N6_21 
REMARK    2  A    between atoms: C18_14  and  N17_19 
ROOT
HETATM    1  O1  MIQ B 502      23.198  -7.523  11.109  1.00142.91    -0.171 OA
HETATM    2  C2  MIQ B 502      22.432  -7.042  10.044  1.00141.17     0.195 A 
HETATM    3  C3  MIQ B 502      20.937  -7.387   9.753  1.00141.71     0.035 A 
HETATM    4  C4  MIQ B 502      19.938  -8.244  10.435  1.00142.86     0.046 A 
HETATM    5  C5  MIQ B 502      18.623  -8.360   9.919  1.00139.53     0.031 A 
HETATM    6  C12 MIQ B 502      18.252  -7.633   8.714  1.00139.38     0.030 A 
HETATM    7  C13 MIQ B 502      19.210  -6.810   8.060  1.00141.18     0.019 A 
HETATM    8  C14 MIQ B 502      20.588  -6.690   8.608  1.00138.77     0.033 A 
HETATM    9  C15 MIQ B 502      21.874  -5.907   8.186  1.00142.10     0.195 A 
HETATM   10  N17 MIQ B 502      22.797  -6.209   9.084  1.00139.42    -0.288 N 
HETATM   11  O16 MIQ B 502      22.015  -5.065   7.082  1.00148.93    -0.171 OA
ENDROOT
BRANCH  10  12
HETATM   12  C18 MIQ B 502      24.141  -5.668   9.000  1.00139.82     0.187 C 
HETATM   13  C19 MIQ B 502      25.125  -6.832   9.171  1.00140.06     0.247 C 
HETATM   14  O25 MIQ B 502      24.997  -7.797   8.505  1.00143.95    -0.271 OA
HETATM   15  N20 MIQ B 502      26.214  -6.778  10.124  1.00140.02    -0.296 N 
HETATM   16  H13 MIQ B 502      26.846  -7.548  10.231  1.00142.77     0.171 HD
HETATM   17  C21 MIQ B 502      26.344  -5.594  10.933  1.00142.22     0.224 C 
HETATM   18  C22 MIQ B 502      25.058  -4.894  11.328  1.00139.52     0.106 C 
HETATM   19  O24 MIQ B 502      27.402  -5.187  11.268  1.00146.13    -0.273 OA
HETATM   20  C23 MIQ B 502      24.334  -4.561  10.035  1.00139.15     0.045 C 
ENDBRANCH  10  12
BRANCH   5  21
HETATM   21  N6  MIQ B 502      17.659  -9.214  10.589  1.00140.95    -0.377 N 
HETATM   22  C7  MIQ B 502      16.426  -8.621  11.077  1.00142.12     0.149 C 
HETATM   23  C8  MIQ B 502      15.849  -9.396  12.255  1.00144.10     0.187 C 
HETATM   24  O9  MIQ B 502      15.799 -10.773  12.027  1.00148.65    -0.388 OA
HETATM   25  C10 MIQ B 502      16.442 -11.330  10.919  1.00147.44     0.187 C 
HETATM   26  C11 MIQ B 502      17.701 -10.652  10.388  1.00144.08     0.149 C 
ENDBRANCH   5  21
TORSDOF 2
ENDMDL
MODEL 7
REMARK VINA RESULT:      -6.4      1.727      8.445
REMARK  2 active torsions:
REMARK  status: ('A' for Active; 'I' for Inactive)
REMARK    1  A    between atoms: C5_5  and  N6_21 
REMARK    2  A    between atoms: C18_14  and  N17_19 
ROOT
HETATM    1  O1  MIQ B 502      23.413  -8.134  10.415  1.00142.91    -0.171 OA
HETATM    2  C2  MIQ B 502      22.585  -7.382   9.579  1.00141.17     0.195 A 
HETATM    3  C3  MIQ B 502      21.031  -7.502   9.470  1.00141.71     0.035 A 
HETATM    4  C4  MIQ B 502      20.025  -8.356  10.144  1.00142.86     0.046 A 
HETATM    5  C5  MIQ B 502      18.649  -8.230   9.827  1.00139.53     0.031 A 
HETATM    6  C12 MIQ B 502      18.223  -7.255   8.834  1.00139.38     0.030 A 
HETATM    7  C13 MIQ B 502      19.187  -6.435   8.188  1.00141.18     0.019 A 
HETATM    8  C14 MIQ B 502      20.631  -6.570   8.526  1.00138.77     0.033 A 
HETATM    9  C15 MIQ B 502      21.943  -5.868   8.047  1.00142.10     0.195 A 
HETATM   10  N17 MIQ B 502      22.928  -6.431   8.728  1.00139.42    -0.288 N 
HETATM   11  O16 MIQ B 502      22.048  -4.854   7.093  1.00148.93    -0.171 OA
ENDROOT
BRANCH  10  12
HETATM   12  C18 MIQ B 502      24.309  -6.034   8.528  1.00139.82     0.187 C 
HETATM   13  C19 MIQ B 502      24.398  -4.520   8.754  1.00140.06     0.247 C 
HETATM   14  O25 MIQ B 502      23.945  -4.056   9.740  1.00143.95    -0.271 OA
HETATM   15  N20 MIQ B 502      25.029  -3.640   7.792  1.00140.02    -0.296 N 
HETATM   16  H13 MIQ B 502      25.075  -2.652   7.948  1.00142.77     0.171 HD
HETATM   17  C21 MIQ B 502      25.566  -4.227   6.591  1.00142.22     0.224 C 
HETATM   18  C22 MIQ B 502      24.830  -5.431   6.034  1.00139.52     0.106 C 
HETATM   19  O24 MIQ B 502      26.535  -3.795   6.071  1.00146.13    -0.273 OA
HETATM   20  C23 MIQ B 502      24.792  -6.465   7.144  1.00139.15     0.045 C 
ENDBRANCH  10  12
BRANCH   5  21
HETATM   21  N6  MIQ B 502      17.677  -9.083  10.485  1.00140.95    -0.377 N 
HETATM   22  C7  MIQ B 502      16.455  -8.482  10.990  1.00142.12     0.149 C 
HETATM   23  C8  MIQ B 502      15.872  -9.272  12.156  1.00144.10     0.187 C 
HETATM   24  O9  MIQ B 502      15.802 -10.643  11.902  1.00148.65    -0.388 OA
HETATM   25  C10 MIQ B 502      16.432 -11.188  10.780  1.00147.44     0.187 C 
HETATM   26  C11 MIQ B 502      17.698 -10.518  10.256  1.00144.08     0.149 C 
ENDBRANCH   5  21
TORSDOF 2
ENDMDL
MODEL 8
REMARK VINA RESULT:      -6.4      1.708      2.187
REMARK  2 active torsions:
REMARK  status: ('A' for Active; 'I' for Inactive)
REMARK    1  A    between atoms: C5_5  and  N6_21 
REMARK    2  A    between atoms: C18_14  and  N17_19 
ROOT
HETATM    1  O1  MIQ B 502      20.705 -10.452  10.390  1.00142.91    -0.171 OA
HETATM    2  C2  MIQ B 502      19.779  -9.463  10.049  1.00141.17     0.195 A 
HETATM    3  C3  MIQ B 502      20.053  -8.212   9.155  1.00141.71     0.035 A 
HETATM    4  C4  MIQ B 502      21.252  -7.711   8.443  1.00142.86     0.046 A 
HETATM    5  C5  MIQ B 502      21.190  -6.512   7.689  1.00139.53     0.031 A 
HETATM    6  C12 MIQ B 502      19.939  -5.771   7.613  1.00139.38     0.030 A 
HETATM    7  C13 MIQ B 502      18.789  -6.251   8.295  1.00141.18     0.019 A 
HETATM    8  C14 MIQ B 502      18.860  -7.512   9.083  1.00138.77     0.033 A 
HETATM    9  C15 MIQ B 502      17.840  -8.333   9.937  1.00142.10     0.195 A 
HETATM   10  N17 MIQ B 502      18.506  -9.379  10.397  1.00139.42    -0.288 N 
HETATM   11  O16 MIQ B 502      16.499  -8.019  10.168  1.00148.93    -0.171 OA
ENDROOT
BRANCH  10  12
HETATM   12  C18 MIQ B 502      17.873 -10.365  11.253  1.00139.82     0.187 C 
HETATM   13  C19 MIQ B 502      18.766 -10.557  12.485  1.00140.06     0.247 C 
HETATM   14  O25 MIQ B 502      19.121  -9.610  13.092  1.00143.95    -0.271 OA
HETATM   15  N20 MIQ B 502      19.181 -11.871  12.929  1.00140.02    -0.296 N 
HETATM   16  H13 MIQ B 502      19.770 -11.983  13.732  1.00142.77     0.171 HD
HETATM   17  C21 MIQ B 502      18.743 -13.011  12.166  1.00142.22     0.224 C 
HETATM   18  C22 MIQ B 502      18.596 -12.813  10.670  1.00139.52     0.106 C 
HETATM   19  O24 MIQ B 502      18.506 -14.047  12.683  1.00146.13    -0.273 OA
HETATM   20  C23 MIQ B 502      17.627 -11.660  10.481  1.00139.15     0.045 C 
ENDBRANCH  10  12
BRANCH   5  21
HETATM   21  N6  MIQ B 502      22.376  -6.026   7.009  1.00140.95    -0.377 N 
HETATM   22  C7  MIQ B 502      22.406  -4.641   6.569  1.00142.12     0.149 C 
HETATM   23  C8  MIQ B 502      23.332  -4.443   5.376  1.00144.10     0.187 C 
HETATM   24  O9  MIQ B 502      24.582  -5.040   5.554  1.00148.65    -0.388 OA
HETATM   25  C10 MIQ B 502      24.807  -5.907   6.627  1.00147.44     0.187 C 
HETATM   26  C11 MIQ B 502      23.637  -6.731   7.156  1.00144.08     0.149 C 
ENDBRANCH   5  21
TORSDOF 2
ENDMDL
MODEL 9
REMARK VINA RESULT:      -6.4      4.066      6.410
REMARK  2 active torsions:
REMARK  status: ('A' for Active; 'I' for Inactive)
REMARK    1  A    between atoms: C5_5  and  N6_21 
REMARK    2  A    between atoms: C18_14  and  N17_19 
ROOT
HETATM    1  O1  MIQ B 502      22.443  -5.752   7.709  1.00142.91    -0.171 OA
HETATM    2  C2  MIQ B 502      23.238  -5.765   8.857  1.00141.17     0.195 A 
HETATM    3  C3  MIQ B 502      23.961  -4.535   9.492  1.00141.71     0.035 A 
HETATM    4  C4  MIQ B 502      24.036  -3.099   9.131  1.00142.86     0.046 A 
HETATM    5  C5  MIQ B 502      24.793  -2.200   9.925  1.00139.53     0.031 A 
HETATM    6  C12 MIQ B 502      25.498  -2.690  11.100  1.00139.38     0.030 A 
HETATM    7  C13 MIQ B 502      25.425  -4.066  11.446  1.00141.18     0.019 A 
HETATM    8  C14 MIQ B 502      24.628  -5.006  10.611  1.00138.77     0.033 A 
HETATM    9  C15 MIQ B 502      24.316  -6.537  10.672  1.00142.10     0.195 A 
HETATM   10  N17 MIQ B 502      23.536  -6.792   9.635  1.00139.42    -0.288 N 
HETATM   11  O16 MIQ B 502      24.774  -7.446  11.628  1.00148.93    -0.171 OA
ENDROOT
BRANCH  10  12
HETATM   12  C18 MIQ B 502      23.055  -8.133   9.361  1.00139.82     0.187 C 
HETATM   13  C19 MIQ B 502      23.355  -8.446   7.890  1.00140.06     0.247 C 
HETATM   14  O25 MIQ B 502      24.447  -8.277   7.476  1.00143.95    -0.271 OA
HETATM   15  N20 MIQ B 502      22.335  -8.951   6.993  1.00140.02    -0.296 N 
HETATM   16  H13 MIQ B 502      22.543  -9.145   6.033  1.00142.77     0.171 HD
HETATM   17  C21 MIQ B 502      21.008  -9.139   7.519  1.00142.22     0.224 C 
HETATM   18  C22 MIQ B 502      20.553  -8.164   8.587  1.00139.52     0.106 C 
HETATM   19  O24 MIQ B 502      20.312 -10.015   7.139  1.00146.13    -0.273 OA
HETATM   20  C23 MIQ B 502      21.572  -8.248   9.709  1.00139.15     0.045 C 
ENDBRANCH  10  12
BRANCH   5  21
HETATM   21  N6  MIQ B 502      24.870  -0.799   9.551  1.00140.95    -0.377 N 
HETATM   22  C7  MIQ B 502      24.329   0.194  10.464  1.00142.12     0.149 C 
HETATM   23  C8  MIQ B 502      23.888   1.456   9.734  1.00144.10     0.187 C 
HETATM   24  O9  MIQ B 502      24.849   1.930   8.838  1.00148.65    -0.388 OA
HETATM   25  C10 MIQ B 502      25.966   1.152   8.522  1.00147.44     0.187 C 
HETATM   26  C11 MIQ B 502      25.828  -0.367   8.549  1.00144.08     0.149 C 
ENDBRANCH   5  21
TORSDOF 2
ENDMDL
