MODEL 1
REMARK VINA RESULT:      -6.6      0.000      0.000
REMARK  2 active torsions:
REMARK  status: ('A' for Active; 'I' for Inactive)
REMARK    1  A    between atoms: C5_5  and  N6_21 
REMARK    2  A    between atoms: C18_14  and  N17_19 
ROOT
HETATM    1  O1  MIQ B 502     -16.467  36.665   4.922  1.00142.91    -0.171 OA
HETATM    2  C2  MIQ B 502     -16.973  36.202   3.705  1.00141.17     0.195 A 
HETATM    3  C3  MIQ B 502     -16.734  36.846   2.302  1.00141.71     0.035 A 
HETATM    4  C4  MIQ B 502     -15.972  38.031   1.841  1.00142.86     0.046 A 
HETATM    5  C5  MIQ B 502     -15.941  38.371   0.465  1.00139.53     0.031 A 
HETATM    6  C12 MIQ B 502     -16.660  37.551  -0.499  1.00139.38     0.030 A 
HETATM    7  C13 MIQ B 502     -17.389  36.414  -0.058  1.00141.18     0.019 A 
HETATM    8  C14 MIQ B 502     -17.417  36.060   1.388  1.00138.77     0.033 A 
HETATM    9  C15 MIQ B 502     -18.083  34.922   2.228  1.00142.10     0.195 A 
HETATM   10  N17 MIQ B 502     -17.737  35.146   3.485  1.00139.42    -0.288 N 
HETATM   11  O16 MIQ B 502     -18.882  33.885   1.745  1.00148.93    -0.171 OA
ENDROOT
BRANCH  10  12
HETATM   12  C18 MIQ B 502     -18.193  34.286   4.561  1.00139.82     0.187 C 
HETATM   13  C19 MIQ B 502     -18.916  35.165   5.588  1.00140.06     0.247 C 
HETATM   14  O25 MIQ B 502     -19.763  35.900   5.223  1.00143.95    -0.271 OA
HETATM   15  N20 MIQ B 502     -18.591  35.115   6.999  1.00140.02    -0.296 N 
HETATM   16  H13 MIQ B 502     -19.066  35.699   7.659  1.00142.77     0.171 HD
HETATM   17  C21 MIQ B 502     -17.546  34.217   7.419  1.00142.22     0.224 C 
HETATM   18  C22 MIQ B 502     -16.400  34.004   6.449  1.00139.52     0.106 C 
HETATM   19  O24 MIQ B 502     -17.584  33.671   8.467  1.00146.13    -0.273 OA
HETATM   20  C23 MIQ B 502     -17.019  33.508   5.154  1.00139.15     0.045 C 
ENDBRANCH  10  12
BRANCH   5  21
HETATM   21  N6  MIQ B 502     -15.203  39.543   0.029  1.00140.95    -0.377 N 
HETATM   22  C7  MIQ B 502     -14.938  39.709  -1.390  1.00142.12     0.149 C 
HETATM   23  C8  MIQ B 502     -13.686  40.540  -1.641  1.00144.10     0.187 C 
HETATM   24  O9  MIQ B 502     -13.653  41.714  -0.886  1.00148.65    -0.388 OA
HETATM   25  C10 MIQ B 502     -14.580  41.924   0.138  1.00147.44     0.187 C 
HETATM   26  C11 MIQ B 502     -15.125  40.712   0.887  1.00144.08     0.149 C 
ENDBRANCH   5  21
TORSDOF 2
ENDMDL
MODEL 2
REMARK VINA RESULT:      -6.0     12.148     13.635
REMARK  2 active torsions:
REMARK  status: ('A' for Active; 'I' for Inactive)
REMARK    1  A    between atoms: C5_5  and  N6_21 
REMARK    2  A    between atoms: C18_14  and  N17_19 
ROOT
HETATM    1  O1  MIQ B 502      -3.778  32.595  -0.595  1.00142.91    -0.171 OA
HETATM    2  C2  MIQ B 502      -5.121  32.638  -0.213  1.00141.17     0.195 A 
HETATM    3  C3  MIQ B 502      -5.710  33.431   0.996  1.00141.71     0.035 A 
HETATM    4  C4  MIQ B 502      -5.111  34.310   2.028  1.00142.86     0.046 A 
HETATM    5  C5  MIQ B 502      -5.926  34.905   3.024  1.00139.53     0.031 A 
HETATM    6  C12 MIQ B 502      -7.360  34.651   3.032  1.00139.38     0.030 A 
HETATM    7  C13 MIQ B 502      -7.935  33.809   2.042  1.00141.18     0.019 A 
HETATM    8  C14 MIQ B 502      -7.074  33.189   0.997  1.00138.77     0.033 A 
HETATM    9  C15 MIQ B 502      -7.333  32.240  -0.218  1.00142.10     0.195 A 
HETATM   10  N17 MIQ B 502      -6.152  32.036  -0.780  1.00139.42    -0.288 N 
HETATM   11  O16 MIQ B 502      -8.561  31.715  -0.623  1.00148.93    -0.171 OA
ENDROOT
BRANCH  10  12
HETATM   12  C18 MIQ B 502      -6.004  31.181  -1.942  1.00139.82     0.187 C 
HETATM   13  C19 MIQ B 502      -4.945  30.122  -1.612  1.00140.06     0.247 C 
HETATM   14  O25 MIQ B 502      -5.046  29.498  -0.616  1.00143.95    -0.271 OA
HETATM   15  N20 MIQ B 502      -3.825  29.861  -2.493  1.00140.02    -0.296 N 
HETATM   16  H13 MIQ B 502      -3.137  29.172  -2.262  1.00142.77     0.171 HD
HETATM   17  C21 MIQ B 502      -3.718  30.643  -3.698  1.00142.22     0.224 C 
HETATM   18  C22 MIQ B 502      -4.209  32.076  -3.626  1.00139.52     0.106 C 
HETATM   19  O24 MIQ B 502      -3.275  30.186  -4.693  1.00146.13    -0.273 OA
HETATM   20  C23 MIQ B 502      -5.657  32.014  -3.175  1.00139.15     0.045 C 
ENDBRANCH  10  12
BRANCH   5  21
HETATM   21  N6  MIQ B 502      -5.324  35.753   4.037  1.00140.95    -0.377 N 
HETATM   22  C7  MIQ B 502      -6.182  36.343   5.049  1.00142.12     0.149 C 
HETATM   23  C8  MIQ B 502      -5.603  37.639   5.602  1.00144.10     0.187 C 
HETATM   24  O9  MIQ B 502      -4.256  37.525   5.953  1.00148.65    -0.388 OA
HETATM   25  C10 MIQ B 502      -3.523  36.392   5.591  1.00147.44     0.187 C 
HETATM   26  C11 MIQ B 502      -3.900  35.659   4.308  1.00144.08     0.149 C 
ENDBRANCH   5  21
TORSDOF 2
ENDMDL
MODEL 3
REMARK VINA RESULT:      -5.9     17.325     21.006
REMARK  2 active torsions:
REMARK  status: ('A' for Active; 'I' for Inactive)
REMARK    1  A    between atoms: C5_5  and  N6_21 
REMARK    2  A    between atoms: C18_14  and  N17_19 
ROOT
HETATM    1  O1  MIQ B 502      -5.023  25.412  13.678  1.00142.91    -0.171 OA
HETATM    2  C2  MIQ B 502      -5.497  24.889  12.473  1.00141.17     0.195 A 
HETATM    3  C3  MIQ B 502      -5.946  23.414  12.221  1.00141.71     0.035 A 
HETATM    4  C4  MIQ B 502      -6.015  22.209  13.081  1.00142.86     0.046 A 
HETATM    5  C5  MIQ B 502      -6.480  20.978  12.553  1.00139.53     0.031 A 
HETATM    6  C12 MIQ B 502      -6.892  20.898  11.159  1.00139.38     0.030 A 
HETATM    7  C13 MIQ B 502      -6.828  22.054  10.335  1.00141.18     0.019 A 
HETATM    8  C14 MIQ B 502      -6.341  23.344  10.895  1.00138.77     0.033 A 
HETATM    9  C15 MIQ B 502      -6.136  24.784  10.321  1.00142.10     0.195 A 
HETATM   10  N17 MIQ B 502      -5.669  25.513  11.320  1.00139.42    -0.288 N 
HETATM   11  O16 MIQ B 502      -6.394  25.208   9.016  1.00148.93    -0.171 OA
ENDROOT
BRANCH  10  12
HETATM   12  C18 MIQ B 502      -5.343  26.917  11.147  1.00139.82     0.187 C 
HETATM   13  C19 MIQ B 502      -3.892  27.120  11.599  1.00140.06     0.247 C 
HETATM   14  O25 MIQ B 502      -3.050  26.416  11.165  1.00143.95    -0.271 OA
HETATM   15  N20 MIQ B 502      -3.523  28.157  12.540  1.00140.02    -0.296 N 
HETATM   16  H13 MIQ B 502      -2.573  28.275  12.831  1.00142.77     0.171 HD
HETATM   17  C21 MIQ B 502      -4.570  28.997  13.063  1.00142.22     0.224 C 
HETATM   18  C22 MIQ B 502      -5.927  28.350  13.259  1.00139.52     0.106 C 
HETATM   19  O24 MIQ B 502      -4.378  30.134  13.320  1.00146.13    -0.273 OA
HETATM   20  C23 MIQ B 502      -6.338  27.791  11.909  1.00139.15     0.045 C 
ENDBRANCH  10  12
BRANCH   5  21
HETATM   21  N6  MIQ B 502      -6.528  19.802  13.403  1.00140.95    -0.377 N 
HETATM   22  C7  MIQ B 502      -5.310  19.375  14.068  1.00142.12     0.149 C 
HETATM   23  C8  MIQ B 502      -5.315  17.880  14.361  1.00144.10     0.187 C 
HETATM   24  O9  MIQ B 502      -6.502  17.446  14.954  1.00148.65    -0.388 OA
HETATM   25  C10 MIQ B 502      -7.609  18.296  15.026  1.00147.44     0.187 C 
HETATM   26  C11 MIQ B 502      -7.801  19.338  13.928  1.00144.08     0.149 C 
ENDBRANCH   5  21
TORSDOF 2
ENDMDL
MODEL 4
REMARK VINA RESULT:      -5.7      2.726      7.394
REMARK  2 active torsions:
REMARK  status: ('A' for Active; 'I' for Inactive)
REMARK    1  A    between atoms: C5_5  and  N6_21 
REMARK    2  A    between atoms: C18_14  and  N17_19 
ROOT
HETATM    1  O1  MIQ B 502     -16.975  38.157   2.390  1.00142.91    -0.171 OA
HETATM    2  C2  MIQ B 502     -17.370  36.852   2.694  1.00141.17     0.195 A 
HETATM    3  C3  MIQ B 502     -17.275  36.162   4.092  1.00141.71     0.035 A 
HETATM    4  C4  MIQ B 502     -16.790  36.610   5.419  1.00142.86     0.046 A 
HETATM    5  C5  MIQ B 502     -16.834  35.732   6.531  1.00139.53     0.031 A 
HETATM    6  C12 MIQ B 502     -17.357  34.383   6.368  1.00139.38     0.030 A 
HETATM    7  C13 MIQ B 502     -17.823  33.954   5.096  1.00141.18     0.019 A 
HETATM    8  C14 MIQ B 502     -17.777  34.880   3.932  1.00138.77     0.033 A 
HETATM    9  C15 MIQ B 502     -18.187  34.776   2.427  1.00142.10     0.195 A 
HETATM   10  N17 MIQ B 502     -17.899  35.949   1.887  1.00139.42    -0.288 N 
HETATM   11  O16 MIQ B 502     -18.742  33.666   1.787  1.00148.93    -0.171 OA
ENDROOT
BRANCH  10  12
HETATM   12  C18 MIQ B 502     -18.135  36.213   0.480  1.00139.82     0.187 C 
HETATM   13  C19 MIQ B 502     -16.850  36.812  -0.105  1.00140.06     0.247 C 
HETATM   14  O25 MIQ B 502     -15.824  36.259   0.073  1.00143.95    -0.271 OA
HETATM   15  N20 MIQ B 502     -16.861  38.038  -0.876  1.00140.02    -0.296 N 
HETATM   16  H13 MIQ B 502     -16.014  38.422  -1.247  1.00142.77     0.171 HD
HETATM   17  C21 MIQ B 502     -18.125  38.701  -1.071  1.00142.22     0.224 C 
HETATM   18  C22 MIQ B 502     -19.129  38.599   0.061  1.00139.52     0.106 C 
HETATM   19  O24 MIQ B 502     -18.366  39.290  -2.067  1.00146.13    -0.273 OA
HETATM   20  C23 MIQ B 502     -19.353  37.118   0.306  1.00139.15     0.045 C 
ENDBRANCH  10  12
BRANCH   5  21
HETATM   21  N6  MIQ B 502     -16.342  36.179   7.822  1.00140.95    -0.377 N 
HETATM   22  C7  MIQ B 502     -15.366  37.254   7.859  1.00142.12     0.149 C 
HETATM   23  C8  MIQ B 502     -14.492  37.187   9.104  1.00144.10     0.187 C 
HETATM   24  O9  MIQ B 502     -15.229  37.009  10.277  1.00148.65    -0.388 OA
HETATM   25  C10 MIQ B 502     -16.590  36.698  10.217  1.00147.44     0.187 C 
HETATM   26  C11 MIQ B 502     -17.103  35.895   9.026  1.00144.08     0.149 C 
ENDBRANCH   5  21
TORSDOF 2
ENDMDL
MODEL 5
REMARK VINA RESULT:      -5.7     16.839     19.676
REMARK  2 active torsions:
REMARK  status: ('A' for Active; 'I' for Inactive)
REMARK    1  A    between atoms: C5_5  and  N6_21 
REMARK    2  A    between atoms: C18_14  and  N17_19 
ROOT
HETATM    1  O1  MIQ B 502      -6.293  22.396  14.363  1.00142.91    -0.171 OA
HETATM    2  C2  MIQ B 502      -6.421  22.583  12.985  1.00141.17     0.195 A 
HETATM    3  C3  MIQ B 502      -6.248  23.931  12.216  1.00141.71     0.035 A 
HETATM    4  C4  MIQ B 502      -5.923  25.313  12.643  1.00142.86     0.046 A 
HETATM    5  C5  MIQ B 502      -5.832  26.356  11.687  1.00139.53     0.031 A 
HETATM    6  C12 MIQ B 502      -6.059  26.067  10.278  1.00139.38     0.030 A 
HETATM    7  C13 MIQ B 502      -6.369  24.742   9.868  1.00141.18     0.019 A 
HETATM    8  C14 MIQ B 502      -6.461  23.651  10.876  1.00138.77     0.033 A 
HETATM    9  C15 MIQ B 502      -6.767  22.119  10.813  1.00142.10     0.195 A 
HETATM   10  N17 MIQ B 502      -6.702  21.681  12.059  1.00139.42    -0.288 N 
HETATM   11  O16 MIQ B 502      -7.052  21.370   9.669  1.00148.93    -0.171 OA
ENDROOT
BRANCH  10  12
HETATM   12  C18 MIQ B 502      -6.950  20.290  12.388  1.00139.82     0.187 C 
HETATM   13  C19 MIQ B 502      -7.933  20.254  13.565  1.00140.06     0.247 C 
HETATM   14  O25 MIQ B 502      -8.933  20.876  13.499  1.00143.95    -0.271 OA
HETATM   15  N20 MIQ B 502      -7.670  19.473  14.756  1.00140.02    -0.296 N 
HETATM   16  H13 MIQ B 502      -8.316  19.464  15.520  1.00142.77     0.171 HD
HETATM   17  C21 MIQ B 502      -6.437  18.731  14.817  1.00142.22     0.224 C 
HETATM   18  C22 MIQ B 502      -5.235  19.348  14.128  1.00139.52     0.106 C 
HETATM   19  O24 MIQ B 502      -6.369  17.690  15.373  1.00146.13    -0.273 OA
HETATM   20  C23 MIQ B 502      -5.635  19.570  12.681  1.00139.15     0.045 C 
ENDBRANCH  10  12
BRANCH   5  21
HETATM   21  N6  MIQ B 502      -5.528  27.707  12.121  1.00140.95    -0.377 N 
HETATM   22  C7  MIQ B 502      -5.795  28.807  11.210  1.00142.12     0.149 C 
HETATM   23  C8  MIQ B 502      -4.889  30.001  11.478  1.00144.10     0.187 C 
HETATM   24  O9  MIQ B 502      -4.832  30.347  12.829  1.00148.65    -0.388 OA
HETATM   25  C10 MIQ B 502      -5.380  29.504  13.800  1.00147.44     0.187 C 
HETATM   26  C11 MIQ B 502      -5.393  28.002  13.537  1.00144.08     0.149 C 
ENDBRANCH   5  21
TORSDOF 2
ENDMDL
MODEL 6
REMARK VINA RESULT:      -5.6     18.174     21.212
REMARK  2 active torsions:
REMARK  status: ('A' for Active; 'I' for Inactive)
REMARK    1  A    between atoms: C5_5  and  N6_21 
REMARK    2  A    between atoms: C18_14  and  N17_19 
ROOT
HETATM    1  O1  MIQ B 502      -8.599  24.258  13.038  1.00142.91    -0.171 OA
HETATM    2  C2  MIQ B 502      -8.418  22.905  13.331  1.00141.17     0.195 A 
HETATM    3  C3  MIQ B 502      -9.382  22.006  14.170  1.00141.71     0.035 A 
HETATM    4  C4  MIQ B 502     -10.671  22.258  14.857  1.00142.86     0.046 A 
HETATM    5  C5  MIQ B 502     -11.327  21.213  15.555  1.00139.53     0.031 A 
HETATM    6  C12 MIQ B 502     -10.731  19.886  15.596  1.00139.38     0.030 A 
HETATM    7  C13 MIQ B 502      -9.496  19.643  14.936  1.00141.18     0.019 A 
HETATM    8  C14 MIQ B 502      -8.812  20.744  14.203  1.00138.77     0.033 A 
HETATM    9  C15 MIQ B 502      -7.488  20.859  13.379  1.00142.10     0.195 A 
HETATM   10  N17 MIQ B 502      -7.423  22.115  12.967  1.00139.42    -0.288 N 
HETATM   11  O16 MIQ B 502      -6.565  19.842  13.135  1.00148.93    -0.171 OA
ENDROOT
BRANCH  10  12
HETATM   12  C18 MIQ B 502      -6.305  22.595  12.177  1.00139.82     0.187 C 
HETATM   13  C19 MIQ B 502      -5.750  23.848  12.866  1.00140.06     0.247 C 
HETATM   14  O25 MIQ B 502      -5.491  23.807  14.016  1.00143.95    -0.271 OA
HETATM   15  N20 MIQ B 502      -5.529  25.083  12.142  1.00140.02    -0.296 N 
HETATM   16  H13 MIQ B 502      -5.172  25.896  12.604  1.00142.77     0.171 HD
HETATM   17  C21 MIQ B 502      -5.863  25.112  10.741  1.00142.22     0.224 C 
HETATM   18  C22 MIQ B 502      -7.045  24.269  10.304  1.00139.52     0.106 C 
HETATM   19  O24 MIQ B 502      -5.241  25.759   9.971  1.00146.13    -0.273 OA
HETATM   20  C23 MIQ B 502      -6.741  22.845  10.735  1.00139.15     0.045 C 
ENDBRANCH  10  12
BRANCH   5  21
HETATM   21  N6  MIQ B 502     -12.581  21.478  16.237  1.00140.95    -0.377 N 
HETATM   22  C7  MIQ B 502     -12.802  22.801  16.795  1.00142.12     0.149 C 
HETATM   23  C8  MIQ B 502     -13.771  22.767  17.970  1.00144.10     0.187 C 
HETATM   24  O9  MIQ B 502     -14.927  22.032  17.700  1.00148.65    -0.388 OA
HETATM   25  C10 MIQ B 502     -15.013  21.245  16.549  1.00147.44     0.187 C 
HETATM   26  C11 MIQ B 502     -13.735  20.631  15.988  1.00144.08     0.149 C 
ENDBRANCH   5  21
TORSDOF 2
ENDMDL
MODEL 7
REMARK VINA RESULT:      -5.5      1.962      2.358
REMARK  2 active torsions:
REMARK  status: ('A' for Active; 'I' for Inactive)
REMARK    1  A    between atoms: C5_5  and  N6_21 
REMARK    2  A    between atoms: C18_14  and  N17_19 
ROOT
HETATM    1  O1  MIQ B 502     -16.530  37.930   5.277  1.00142.91    -0.171 OA
HETATM    2  C2  MIQ B 502     -16.960  36.849   4.505  1.00141.17     0.195 A 
HETATM    3  C3  MIQ B 502     -17.095  36.823   2.949  1.00141.71     0.035 A 
HETATM    4  C4  MIQ B 502     -16.836  37.823   1.887  1.00142.86     0.046 A 
HETATM    5  C5  MIQ B 502     -17.056  37.497   0.525  1.00139.53     0.031 A 
HETATM    6  C12 MIQ B 502     -17.539  36.170   0.169  1.00139.38     0.030 A 
HETATM    7  C13 MIQ B 502     -17.786  35.210   1.187  1.00141.18     0.019 A 
HETATM    8  C14 MIQ B 502     -17.551  35.558   2.615  1.00138.77     0.033 A 
HETATM    9  C15 MIQ B 502     -17.700  34.794   3.971  1.00142.10     0.195 A 
HETATM   10  N17 MIQ B 502     -17.332  35.647   4.913  1.00139.42    -0.288 N 
HETATM   11  O16 MIQ B 502     -18.136  33.480   4.147  1.00148.93    -0.171 OA
ENDROOT
BRANCH  10  12
HETATM   12  C18 MIQ B 502     -17.358  35.283   6.317  1.00139.82     0.187 C 
HETATM   13  C19 MIQ B 502     -18.231  36.308   7.050  1.00140.06     0.247 C 
HETATM   14  O25 MIQ B 502     -19.310  36.546   6.637  1.00143.95    -0.271 OA
HETATM   15  N20 MIQ B 502     -17.770  36.990   8.242  1.00140.02    -0.296 N 
HETATM   16  H13 MIQ B 502     -18.348  37.663   8.708  1.00142.77     0.171 HD
HETATM   17  C21 MIQ B 502     -16.445  36.691   8.721  1.00142.22     0.224 C 
HETATM   18  C22 MIQ B 502     -15.398  36.370   7.672  1.00139.52     0.106 C 
HETATM   19  O24 MIQ B 502     -16.191  36.691   9.875  1.00146.13    -0.273 OA
HETATM   20  C23 MIQ B 502     -15.936  35.198   6.871  1.00139.15     0.045 C 
ENDBRANCH  10  12
BRANCH   5  21
HETATM   21  N6  MIQ B 502     -16.813  38.491  -0.504  1.00140.95    -0.377 N 
HETATM   22  C7  MIQ B 502     -17.804  39.533  -0.712  1.00142.12     0.149 C 
HETATM   23  C8  MIQ B 502     -17.775  40.069  -2.137  1.00144.10     0.187 C 
HETATM   24  O9  MIQ B 502     -16.486  40.376  -2.577  1.00148.65    -0.388 OA
HETATM   25  C10 MIQ B 502     -15.372  39.987  -1.828  1.00147.44     0.187 C 
HETATM   26  C11 MIQ B 502     -15.463  38.715  -0.992  1.00144.08     0.149 C 
ENDBRANCH   5  21
TORSDOF 2
ENDMDL
MODEL 8
REMARK VINA RESULT:      -5.5     10.325     12.203
REMARK  2 active torsions:
REMARK  status: ('A' for Active; 'I' for Inactive)
REMARK    1  A    between atoms: C5_5  and  N6_21 
REMARK    2  A    between atoms: C18_14  and  N17_19 
ROOT
HETATM    1  O1  MIQ B 502      -6.637  33.426   2.283  1.00142.91    -0.171 OA
HETATM    2  C2  MIQ B 502      -6.539  34.755   1.867  1.00141.17     0.195 A 
HETATM    3  C3  MIQ B 502      -6.461  36.009   2.796  1.00141.71     0.035 A 
HETATM    4  C4  MIQ B 502      -6.461  36.189   4.267  1.00142.86     0.046 A 
HETATM    5  C5  MIQ B 502      -6.374  37.487   4.831  1.00139.53     0.031 A 
HETATM    6  C12 MIQ B 502      -6.285  38.649   3.958  1.00139.38     0.030 A 
HETATM    7  C13 MIQ B 502      -6.284  38.477   2.547  1.00141.18     0.019 A 
HETATM    8  C14 MIQ B 502      -6.373  37.111   1.962  1.00138.77     0.033 A 
HETATM    9  C15 MIQ B 502      -6.396  36.539   0.507  1.00142.10     0.195 A 
HETATM   10  N17 MIQ B 502      -6.488  35.225   0.633  1.00139.42    -0.288 N 
HETATM   11  O16 MIQ B 502      -6.334  37.271  -0.680  1.00148.93    -0.171 OA
ENDROOT
BRANCH  10  12
HETATM   12  C18 MIQ B 502      -6.551  34.356  -0.527  1.00139.82     0.187 C 
HETATM   13  C19 MIQ B 502      -7.703  33.367  -0.309  1.00140.06     0.247 C 
HETATM   14  O25 MIQ B 502      -8.767  33.779  -0.009  1.00143.95    -0.271 OA
HETATM   15  N20 MIQ B 502      -7.523  31.938  -0.466  1.00140.02    -0.296 N 
HETATM   16  H13 MIQ B 502      -8.281  31.303  -0.314  1.00142.77     0.171 HD
HETATM   17  C21 MIQ B 502      -6.212  31.459  -0.822  1.00142.22     0.224 C 
HETATM   18  C22 MIQ B 502      -5.031  32.238  -0.278  1.00139.52     0.106 C 
HETATM   19  O24 MIQ B 502      -6.068  30.507  -1.508  1.00146.13    -0.273 OA
HETATM   20  C23 MIQ B 502      -5.204  33.670  -0.752  1.00139.15     0.045 C 
ENDBRANCH  10  12
BRANCH   5  21
HETATM   21  N6  MIQ B 502      -6.390  37.649   6.273  1.00140.95    -0.377 N 
HETATM   22  C7  MIQ B 502      -7.546  37.174   7.013  1.00142.12     0.149 C 
HETATM   23  C8  MIQ B 502      -7.742  37.938   8.316  1.00144.10     0.187 C 
HETATM   24  O9  MIQ B 502      -6.565  38.056   9.058  1.00148.65    -0.388 OA
HETATM   25  C10 MIQ B 502      -5.336  37.697   8.499  1.00147.44     0.187 C 
HETATM   26  C11 MIQ B 502      -5.146  37.855   6.994  1.00144.08     0.149 C 
ENDBRANCH   5  21
TORSDOF 2
ENDMDL
MODEL 9
REMARK VINA RESULT:      -5.5      3.091      5.930
REMARK  2 active torsions:
REMARK  status: ('A' for Active; 'I' for Inactive)
REMARK    1  A    between atoms: C5_5  and  N6_21 
REMARK    2  A    between atoms: C18_14  and  N17_19 
ROOT
HETATM    1  O1  MIQ B 502     -19.580  37.308   8.246  1.00142.91    -0.171 OA
HETATM    2  C2  MIQ B 502     -18.847  36.121   8.195  1.00141.17     0.195 A 
HETATM    3  C3  MIQ B 502     -18.041  35.586   6.969  1.00141.71     0.035 A 
HETATM    4  C4  MIQ B 502     -17.807  36.102   5.599  1.00142.86     0.046 A 
HETATM    5  C5  MIQ B 502     -17.007  35.372   4.685  1.00139.53     0.031 A 
HETATM    6  C12 MIQ B 502     -16.412  34.109   5.095  1.00139.38     0.030 A 
HETATM    7  C13 MIQ B 502     -16.635  33.613   6.408  1.00141.18     0.019 A 
HETATM    8  C14 MIQ B 502     -17.474  34.385   7.364  1.00138.77     0.033 A 
HETATM    9  C15 MIQ B 502     -17.929  34.174   8.845  1.00142.10     0.195 A 
HETATM   10  N17 MIQ B 502     -18.677  35.222   9.150  1.00139.42    -0.288 N 
HETATM   11  O16 MIQ B 502     -17.611  33.096   9.672  1.00148.93    -0.171 OA
ENDROOT
BRANCH  10  12
HETATM   12  C18 MIQ B 502     -19.293  35.359  10.457  1.00139.82     0.187 C 
HETATM   13  C19 MIQ B 502     -18.191  35.199  11.512  1.00140.06     0.247 C 
HETATM   14  O25 MIQ B 502     -17.207  35.844  11.419  1.00143.95    -0.271 OA
HETATM   15  N20 MIQ B 502     -18.326  34.283  12.625  1.00140.02    -0.296 N 
HETATM   16  H13 MIQ B 502     -17.597  34.183  13.303  1.00142.77     0.171 HD
HETATM   17  C21 MIQ B 502     -19.532  33.500  12.711  1.00142.22     0.224 C 
HETATM   18  C22 MIQ B 502     -20.165  33.077  11.400  1.00139.52     0.106 C 
HETATM   19  O24 MIQ B 502     -20.005  33.207  13.754  1.00146.13    -0.273 OA
HETATM   20  C23 MIQ B 502     -20.429  34.350  10.618  1.00139.15     0.045 C 
ENDBRANCH  10  12
BRANCH   5  21
HETATM   21  N6  MIQ B 502     -16.798  35.883   3.342  1.00140.95    -0.377 N 
HETATM   22  C7  MIQ B 502     -17.810  35.618   2.333  1.00142.12     0.149 C 
HETATM   23  C8  MIQ B 502     -17.223  35.612   0.928  1.00144.10     0.187 C 
HETATM   24  O9  MIQ B 502     -16.403  36.714   0.676  1.00148.65    -0.388 OA
HETATM   25  C10 MIQ B 502     -16.019  37.562   1.718  1.00147.44     0.187 C 
HETATM   26  C11 MIQ B 502     -15.869  36.977   3.118  1.00144.08     0.149 C 
ENDBRANCH   5  21
TORSDOF 2
ENDMDL
