MODEL 1
REMARK VINA RESULT:      -6.3      0.000      0.000
REMARK  2 active torsions:
REMARK  status: ('A' for Active; 'I' for Inactive)
REMARK    1  A    between atoms: C5_5  and  N6_21 
REMARK    2  A    between atoms: C18_14  and  N17_19 
ROOT
HETATM    1  O1  MIQ B 502      16.124  21.953  -4.716  1.00142.91    -0.171 OA
HETATM    2  C2  MIQ B 502      15.959  23.260  -4.253  1.00141.17     0.195 A 
HETATM    3  C3  MIQ B 502      16.106  24.564  -5.101  1.00141.71     0.035 A 
HETATM    4  C4  MIQ B 502      16.432  24.824  -6.523  1.00142.86     0.046 A 
HETATM    5  C5  MIQ B 502      16.493  26.153  -7.013  1.00139.53     0.031 A 
HETATM    6  C12 MIQ B 502      16.233  27.268  -6.114  1.00139.38     0.030 A 
HETATM    7  C13 MIQ B 502      15.920  27.019  -4.750  1.00141.18     0.019 A 
HETATM    8  C14 MIQ B 502      15.855  25.622  -4.242  1.00138.77     0.033 A 
HETATM    9  C15 MIQ B 502      15.549  24.971  -2.853  1.00142.10     0.195 A 
HETATM   10  N17 MIQ B 502      15.645  23.664  -3.034  1.00139.42    -0.288 N 
HETATM   11  O16 MIQ B 502      15.240  25.638  -1.667  1.00148.93    -0.171 OA
ENDROOT
BRANCH  10  12
HETATM   12  C18 MIQ B 502      15.438  22.731  -1.942  1.00139.82     0.187 C 
HETATM   13  C19 MIQ B 502      14.028  22.967  -1.386  1.00140.06     0.247 C 
HETATM   14  O25 MIQ B 502      13.112  22.986  -2.129  1.00143.95    -0.271 OA
HETATM   15  N20 MIQ B 502      13.788  23.162   0.029  1.00140.02    -0.296 N 
HETATM   16  H13 MIQ B 502      12.863  23.322   0.378  1.00142.77     0.171 HD
HETATM   17  C21 MIQ B 502      14.923  23.146   0.914  1.00142.22     0.224 C 
HETATM   18  C22 MIQ B 502      16.226  23.693   0.363  1.00139.52     0.106 C 
HETATM   19  O24 MIQ B 502      14.843  22.721   2.014  1.00146.13    -0.273 OA
HETATM   20  C23 MIQ B 502      16.534  22.893  -0.889  1.00139.15     0.045 C 
ENDBRANCH  10  12
BRANCH   5  21
HETATM   21  N6  MIQ B 502      16.827  26.393  -8.405  1.00140.95    -0.377 N 
HETATM   22  C7  MIQ B 502      16.872  27.765  -8.882  1.00142.12     0.149 C 
HETATM   23  C8  MIQ B 502      16.588  27.857 -10.376  1.00144.10     0.187 C 
HETATM   24  O9  MIQ B 502      17.326  26.939 -11.127  1.00148.65    -0.388 OA
HETATM   25  C10 MIQ B 502      18.045  25.922 -10.494  1.00147.44     0.187 C 
HETATM   26  C11 MIQ B 502      17.521  25.372  -9.171  1.00144.08     0.149 C 
ENDBRANCH   5  21
TORSDOF 2
ENDMDL
MODEL 2
REMARK VINA RESULT:      -6.1     12.448     15.430
REMARK  2 active torsions:
REMARK  status: ('A' for Active; 'I' for Inactive)
REMARK    1  A    between atoms: C5_5  and  N6_21 
REMARK    2  A    between atoms: C18_14  and  N17_19 
ROOT
HETATM    1  O1  MIQ B 502      16.837  13.954 -14.892  1.00142.91    -0.171 OA
HETATM    2  C2  MIQ B 502      15.788  14.732 -15.386  1.00141.17     0.195 A 
HETATM    3  C3  MIQ B 502      15.559  16.253 -15.111  1.00141.71     0.035 A 
HETATM    4  C4  MIQ B 502      16.299  17.269 -14.326  1.00142.86     0.046 A 
HETATM    5  C5  MIQ B 502      15.833  18.607 -14.265  1.00139.53     0.031 A 
HETATM    6  C12 MIQ B 502      14.622  18.983 -14.980  1.00139.38     0.030 A 
HETATM    7  C13 MIQ B 502      13.913  18.009 -15.735  1.00141.18     0.019 A 
HETATM    8  C14 MIQ B 502      14.408  16.607 -15.796  1.00138.77     0.033 A 
HETATM    9  C15 MIQ B 502      13.920  15.299 -16.500  1.00142.10     0.195 A 
HETATM   10  N17 MIQ B 502      14.793  14.361 -16.173  1.00139.42    -0.288 N 
HETATM   11  O16 MIQ B 502      12.789  15.156 -17.306  1.00148.93    -0.171 OA
ENDROOT
BRANCH  10  12
HETATM   12  C18 MIQ B 502      14.647  12.995 -16.640  1.00139.82     0.187 C 
HETATM   13  C19 MIQ B 502      14.542  13.032 -18.170  1.00140.06     0.247 C 
HETATM   14  O25 MIQ B 502      15.353  13.625 -18.789  1.00143.95    -0.271 OA
HETATM   15  N20 MIQ B 502      13.477  12.354 -18.879  1.00140.02    -0.296 N 
HETATM   16  H13 MIQ B 502      13.415  12.392 -19.878  1.00142.77     0.171 HD
HETATM   17  C21 MIQ B 502      12.493  11.646 -18.101  1.00142.22     0.224 C 
HETATM   18  C22 MIQ B 502      12.145  12.232 -16.747  1.00139.52     0.106 C 
HETATM   19  O24 MIQ B 502      11.988  10.654 -18.499  1.00146.13    -0.273 OA
HETATM   20  C23 MIQ B 502      13.446  12.329 -15.971  1.00139.15     0.045 C 
ENDBRANCH  10  12
BRANCH   5  21
HETATM   21  N6  MIQ B 502      16.559  19.588 -13.480  1.00140.95    -0.377 N 
HETATM   22  C7  MIQ B 502      16.805  19.310 -12.076  1.00142.12     0.149 C 
HETATM   23  C8  MIQ B 502      16.960  20.587 -11.261  1.00144.10     0.187 C 
HETATM   24  O9  MIQ B 502      17.834  21.504 -11.850  1.00148.65    -0.388 OA
HETATM   25  C10 MIQ B 502      18.293  21.307 -13.154  1.00147.44     0.187 C 
HETATM   26  C11 MIQ B 502      17.389  20.578 -14.143  1.00144.08     0.149 C 
ENDBRANCH   5  21
TORSDOF 2
ENDMDL
MODEL 3
REMARK VINA RESULT:      -6.1     22.911     24.659
REMARK  2 active torsions:
REMARK  status: ('A' for Active; 'I' for Inactive)
REMARK    1  A    between atoms: C5_5  and  N6_21 
REMARK    2  A    between atoms: C18_14  and  N17_19 
ROOT
HETATM    1  O1  MIQ B 502      -3.127  21.352 -13.615  1.00142.91    -0.171 OA
HETATM    2  C2  MIQ B 502      -4.442  20.926 -13.419  1.00141.17     0.195 A 
HETATM    3  C3  MIQ B 502      -5.311  21.172 -12.144  1.00141.71     0.035 A 
HETATM    4  C4  MIQ B 502      -5.061  21.867 -10.859  1.00142.86     0.046 A 
HETATM    5  C5  MIQ B 502      -6.073  21.928  -9.868  1.00139.53     0.031 A 
HETATM    6  C12 MIQ B 502      -7.365  21.303 -10.116  1.00139.38     0.030 A 
HETATM    7  C13 MIQ B 502      -7.605  20.638 -11.348  1.00141.18     0.019 A 
HETATM    8  C14 MIQ B 502      -6.539  20.580 -12.386  1.00138.77     0.033 A 
HETATM    9  C15 MIQ B 502      -6.433  19.962 -13.818  1.00142.10     0.195 A 
HETATM   10  N17 MIQ B 502      -5.214  20.245 -14.248  1.00139.42    -0.288 N 
HETATM   11  O16 MIQ B 502      -7.425  19.255 -14.500  1.00148.93    -0.171 OA
ENDROOT
BRANCH  10  12
HETATM   12  C18 MIQ B 502      -4.751  19.809 -15.552  1.00139.82     0.187 C 
HETATM   13  C19 MIQ B 502      -5.758  20.307 -16.597  1.00140.06     0.247 C 
HETATM   14  O25 MIQ B 502      -6.071  21.444 -16.598  1.00143.95    -0.271 OA
HETATM   15  N20 MIQ B 502      -6.332  19.419 -17.587  1.00140.02    -0.296 N 
HETATM   16  H13 MIQ B 502      -6.993  19.755 -18.260  1.00142.77     0.171 HD
HETATM   17  C21 MIQ B 502      -5.942  18.033 -17.558  1.00142.22     0.224 C 
HETATM   18  C22 MIQ B 502      -5.651  17.436 -16.195  1.00139.52     0.106 C 
HETATM   19  O24 MIQ B 502      -5.848  17.397 -18.550  1.00146.13    -0.273 OA
HETATM   20  C23 MIQ B 502      -4.565  18.293 -15.571  1.00139.15     0.045 C 
ENDBRANCH  10  12
BRANCH   5  21
HETATM   21  N6  MIQ B 502      -5.809  22.599  -8.609  1.00140.95    -0.377 N 
HETATM   22  C7  MIQ B 502      -5.559  24.030  -8.623  1.00142.12     0.149 C 
HETATM   23  C8  MIQ B 502      -4.701  24.469  -7.444  1.00144.10     0.187 C 
HETATM   24  O9  MIQ B 502      -5.146  23.953  -6.225  1.00148.65    -0.388 OA
HETATM   25  C10 MIQ B 502      -6.131  22.963  -6.194  1.00147.44     0.187 C 
HETATM   26  C11 MIQ B 502      -6.216  21.981  -7.358  1.00144.08     0.149 C 
ENDBRANCH   5  21
TORSDOF 2
ENDMDL
MODEL 4
REMARK VINA RESULT:      -6.0      1.826      2.679
REMARK  2 active torsions:
REMARK  status: ('A' for Active; 'I' for Inactive)
REMARK    1  A    between atoms: C5_5  and  N6_21 
REMARK    2  A    between atoms: C18_14  and  N17_19 
ROOT
HETATM    1  O1  MIQ B 502      17.333  25.248  -1.743  1.00142.91    -0.171 OA
HETATM    2  C2  MIQ B 502      16.240  24.617  -2.341  1.00141.17     0.195 A 
HETATM    3  C3  MIQ B 502      15.696  24.884  -3.781  1.00141.71     0.035 A 
HETATM    4  C4  MIQ B 502      16.113  25.792  -4.876  1.00142.86     0.046 A 
HETATM    5  C5  MIQ B 502      15.403  25.807  -6.103  1.00139.53     0.031 A 
HETATM    6  C12 MIQ B 502      14.259  24.925  -6.288  1.00139.38     0.030 A 
HETATM    7  C13 MIQ B 502      13.860  24.054  -5.238  1.00141.18     0.019 A 
HETATM    8  C14 MIQ B 502      14.611  24.040  -3.953  1.00138.77     0.033 A 
HETATM    9  C15 MIQ B 502      14.480  23.245  -2.613  1.00142.10     0.195 A 
HETATM   10  N17 MIQ B 502      15.456  23.682  -1.833  1.00139.42    -0.288 N 
HETATM   11  O16 MIQ B 502      13.524  22.276  -2.306  1.00148.93    -0.171 OA
ENDROOT
BRANCH  10  12
HETATM   12  C18 MIQ B 502      15.635  23.171  -0.487  1.00139.82     0.187 C 
HETATM   13  C19 MIQ B 502      15.680  24.371   0.467  1.00140.06     0.247 C 
HETATM   14  O25 MIQ B 502      14.824  25.181   0.413  1.00143.95    -0.271 OA
HETATM   15  N20 MIQ B 502      16.743  24.536   1.437  1.00140.02    -0.296 N 
HETATM   16  H13 MIQ B 502      16.764  25.328   2.050  1.00142.77     0.171 HD
HETATM   17  C21 MIQ B 502      17.782  23.540   1.476  1.00142.22     0.224 C 
HETATM   18  C22 MIQ B 502      18.159  22.898   0.155  1.00139.52     0.106 C 
HETATM   19  O24 MIQ B 502      18.309  23.236   2.489  1.00146.13    -0.273 OA
HETATM   20  C23 MIQ B 502      16.886  22.297  -0.412  1.00139.15     0.045 C 
ENDBRANCH  10  12
BRANCH   5  21
HETATM   21  N6  MIQ B 502      15.813  26.712  -7.161  1.00140.95    -0.377 N 
HETATM   22  C7  MIQ B 502      16.943  27.594  -6.922  1.00142.12     0.149 C 
HETATM   23  C8  MIQ B 502      16.865  28.860  -7.766  1.00144.10     0.187 C 
HETATM   24  O9  MIQ B 502      16.583  28.601  -9.109  1.00148.65    -0.388 OA
HETATM   25  C10 MIQ B 502      16.194  27.322  -9.517  1.00147.44     0.187 C 
HETATM   26  C11 MIQ B 502      15.423  26.447  -8.535  1.00144.08     0.149 C 
ENDBRANCH   5  21
TORSDOF 2
ENDMDL
MODEL 5
REMARK VINA RESULT:      -6.0     11.323     14.154
REMARK  2 active torsions:
REMARK  status: ('A' for Active; 'I' for Inactive)
REMARK    1  A    between atoms: C5_5  and  N6_21 
REMARK    2  A    between atoms: C18_14  and  N17_19 
ROOT
HETATM    1  O1  MIQ B 502      15.655  18.133 -13.158  1.00142.91    -0.171 OA
HETATM    2  C2  MIQ B 502      16.684  17.373 -13.720  1.00141.17     0.195 A 
HETATM    3  C3  MIQ B 502      16.510  16.131 -14.651  1.00141.71     0.035 A 
HETATM    4  C4  MIQ B 502      15.327  15.423 -15.194  1.00142.86     0.046 A 
HETATM    5  C5  MIQ B 502      15.492  14.295 -16.038  1.00139.53     0.031 A 
HETATM    6  C12 MIQ B 502      16.832  13.833 -16.372  1.00139.38     0.030 A 
HETATM    7  C13 MIQ B 502      17.966  14.513 -15.852  1.00141.18     0.019 A 
HETATM    8  C14 MIQ B 502      17.786  15.697 -14.969  1.00138.77     0.033 A 
HETATM    9  C15 MIQ B 502      18.758  16.676 -14.232  1.00142.10     0.195 A 
HETATM   10  N17 MIQ B 502      17.989  17.541 -13.591  1.00139.42    -0.288 N 
HETATM   11  O16 MIQ B 502      20.153  16.637 -14.247  1.00148.93    -0.171 OA
ENDROOT
BRANCH  10  12
HETATM   12  C18 MIQ B 502      18.555  18.600 -12.777  1.00139.82     0.187 C 
HETATM   13  C19 MIQ B 502      17.850  18.570 -11.415  1.00140.06     0.247 C 
HETATM   14  O25 MIQ B 502      17.778  17.551 -10.825  1.00143.95    -0.271 OA
HETATM   15  N20 MIQ B 502      17.272  19.762 -10.829  1.00140.02    -0.296 N 
HETATM   16  H13 MIQ B 502      16.808  19.729  -9.942  1.00142.77     0.171 HD
HETATM   17  C21 MIQ B 502      17.362  20.992 -11.573  1.00142.22     0.224 C 
HETATM   18  C22 MIQ B 502      17.304  20.880 -13.084  1.00139.52     0.106 C 
HETATM   19  O24 MIQ B 502      17.481  22.035 -11.030  1.00146.13    -0.273 OA
HETATM   20  C23 MIQ B 502      18.429  19.945 -13.491  1.00139.15     0.045 C 
ENDBRANCH  10  12
BRANCH   5  21
HETATM   21  N6  MIQ B 502      14.325  13.602 -16.551  1.00140.95    -0.377 N 
HETATM   22  C7  MIQ B 502      14.007  13.727 -17.963  1.00142.12     0.149 C 
HETATM   23  C8  MIQ B 502      12.520  13.535 -18.231  1.00144.10     0.187 C 
HETATM   24  O9  MIQ B 502      11.996  12.406 -17.599  1.00148.65    -0.388 OA
HETATM   25  C10 MIQ B 502      12.751  11.710 -16.652  1.00147.44     0.187 C 
HETATM   26  C11 MIQ B 502      13.762  12.484 -15.813  1.00144.08     0.149 C 
ENDBRANCH   5  21
TORSDOF 2
ENDMDL
MODEL 6
REMARK VINA RESULT:      -6.0     13.929     16.694
REMARK  2 active torsions:
REMARK  status: ('A' for Active; 'I' for Inactive)
REMARK    1  A    between atoms: C5_5  and  N6_21 
REMARK    2  A    between atoms: C18_14  and  N17_19 
ROOT
HETATM    1  O1  MIQ B 502      12.808  17.710 -16.118  1.00142.91    -0.171 OA
HETATM    2  C2  MIQ B 502      12.839  16.760 -17.141  1.00141.17     0.195 A 
HETATM    3  C3  MIQ B 502      11.993  16.790 -18.453  1.00141.71     0.035 A 
HETATM    4  C4  MIQ B 502      10.987  17.734 -18.996  1.00142.86     0.046 A 
HETATM    5  C5  MIQ B 502      10.375  17.486 -20.250  1.00139.53     0.031 A 
HETATM    6  C12 MIQ B 502      10.738  16.299 -21.010  1.00139.38     0.030 A 
HETATM    7  C13 MIQ B 502      11.704  15.394 -20.491  1.00141.18     0.019 A 
HETATM    8  C14 MIQ B 502      12.344  15.661 -19.174  1.00138.77     0.033 A 
HETATM    9  C15 MIQ B 502      13.416  14.925 -18.304  1.00142.10     0.195 A 
HETATM   10  N17 MIQ B 502      13.575  15.665 -17.219  1.00139.42    -0.288 N 
HETATM   11  O16 MIQ B 502      14.066  13.730 -18.614  1.00148.93    -0.171 OA
ENDROOT
BRANCH  10  12
HETATM   12  C18 MIQ B 502      14.494  15.275 -16.165  1.00139.82     0.187 C 
HETATM   13  C19 MIQ B 502      13.714  15.263 -14.845  1.00140.06     0.247 C 
HETATM   14  O25 MIQ B 502      12.696  14.670 -14.783  1.00143.95    -0.271 OA
HETATM   15  N20 MIQ B 502      14.195  15.956 -13.667  1.00140.02    -0.296 N 
HETATM   16  H13 MIQ B 502      13.673  15.946 -12.813  1.00142.77     0.171 HD
HETATM   17  C21 MIQ B 502      15.435  16.682 -13.771  1.00142.22     0.224 C 
HETATM   18  C22 MIQ B 502      15.738  17.324 -15.111  1.00139.52     0.106 C 
HETATM   19  O24 MIQ B 502      16.179  16.767 -12.858  1.00146.13    -0.273 OA
HETATM   20  C23 MIQ B 502      15.702  16.210 -16.141  1.00139.15     0.045 C 
ENDBRANCH  10  12
BRANCH   5  21
HETATM   21  N6  MIQ B 502       9.380  18.411 -20.762  1.00140.95    -0.377 N 
HETATM   22  C7  MIQ B 502       9.716  19.222 -21.920  1.00142.12     0.149 C 
HETATM   23  C8  MIQ B 502       8.926  20.524 -21.952  1.00144.10     0.187 C 
HETATM   24  O9  MIQ B 502       7.560  20.335 -21.732  1.00148.65    -0.388 OA
HETATM   25  C10 MIQ B 502       7.077  19.097 -21.302  1.00147.44     0.187 C 
HETATM   26  C11 MIQ B 502       7.978  18.223 -20.435  1.00144.08     0.149 C 
ENDBRANCH   5  21
TORSDOF 2
ENDMDL
MODEL 7
REMARK VINA RESULT:      -6.0      2.373      8.319
REMARK  2 active torsions:
REMARK  status: ('A' for Active; 'I' for Inactive)
REMARK    1  A    between atoms: C5_5  and  N6_21 
REMARK    2  A    between atoms: C18_14  and  N17_19 
ROOT
HETATM    1  O1  MIQ B 502      17.118  27.318  -4.858  1.00142.91    -0.171 OA
HETATM    2  C2  MIQ B 502      16.150  26.317  -4.745  1.00141.17     0.195 A 
HETATM    3  C3  MIQ B 502      15.596  25.715  -3.415  1.00141.71     0.035 A 
HETATM    4  C4  MIQ B 502      15.877  25.976  -1.983  1.00142.86     0.046 A 
HETATM    5  C5  MIQ B 502      15.194  25.250  -0.975  1.00139.53     0.031 A 
HETATM    6  C12 MIQ B 502      14.211  24.244  -1.349  1.00139.38     0.030 A 
HETATM    7  C13 MIQ B 502      13.940  23.994  -2.721  1.00141.18     0.019 A 
HETATM    8  C14 MIQ B 502      14.658  24.761  -3.776  1.00138.77     0.033 A 
HETATM    9  C15 MIQ B 502      14.630  24.771  -5.339  1.00142.10     0.195 A 
HETATM   10  N17 MIQ B 502      15.508  25.687  -5.714  1.00139.42    -0.288 N 
HETATM   11  O16 MIQ B 502      13.839  23.972  -6.166  1.00148.93    -0.171 OA
ENDROOT
BRANCH  10  12
HETATM   12  C18 MIQ B 502      15.763  25.962  -7.116  1.00139.82     0.187 C 
HETATM   13  C19 MIQ B 502      17.276  25.862  -7.345  1.00140.06     0.247 C 
HETATM   14  O25 MIQ B 502      17.853  24.902  -6.972  1.00143.95    -0.271 OA
HETATM   15  N20 MIQ B 502      18.019  26.912  -8.011  1.00140.02    -0.296 N 
HETATM   16  H13 MIQ B 502      19.008  26.837  -8.148  1.00142.77     0.171 HD
HETATM   17  C21 MIQ B 502      17.295  28.078  -8.447  1.00142.22     0.224 C 
HETATM   18  C22 MIQ B 502      16.123  28.513  -7.588  1.00139.52     0.106 C 
HETATM   19  O24 MIQ B 502      17.598  28.663  -9.428  1.00146.13    -0.273 OA
HETATM   20  C23 MIQ B 502      15.185  27.322  -7.504  1.00139.15     0.045 C 
ENDBRANCH  10  12
BRANCH   5  21
HETATM   21  N6  MIQ B 502      15.491  25.506   0.423  1.00140.95    -0.377 N 
HETATM   22  C7  MIQ B 502      16.288  26.672   0.762  1.00142.12     0.149 C 
HETATM   23  C8  MIQ B 502      17.042  26.484   2.072  1.00144.10     0.187 C 
HETATM   24  O9  MIQ B 502      16.233  25.995   3.100  1.00148.65    -0.388 OA
HETATM   25  C10 MIQ B 502      14.945  25.527   2.825  1.00147.44     0.187 C 
HETATM   26  C11 MIQ B 502      14.671  24.904   1.460  1.00144.08     0.149 C 
ENDBRANCH   5  21
TORSDOF 2
ENDMDL
MODEL 8
REMARK VINA RESULT:      -5.9     22.317     23.263
REMARK  2 active torsions:
REMARK  status: ('A' for Active; 'I' for Inactive)
REMARK    1  A    between atoms: C5_5  and  N6_21 
REMARK    2  A    between atoms: C18_14  and  N17_19 
ROOT
HETATM    1  O1  MIQ B 502      -8.588  22.562 -11.610  1.00142.91    -0.171 OA
HETATM    2  C2  MIQ B 502      -7.326  22.293 -11.076  1.00141.17     0.195 A 
HETATM    3  C3  MIQ B 502      -6.092  21.743 -11.859  1.00141.71     0.035 A 
HETATM    4  C4  MIQ B 502      -5.868  21.367 -13.275  1.00142.86     0.046 A 
HETATM    5  C5  MIQ B 502      -4.603  20.887 -13.698  1.00139.53     0.031 A 
HETATM    6  C12 MIQ B 502      -3.518  20.765 -12.735  1.00139.38     0.030 A 
HETATM    7  C13 MIQ B 502      -3.731  21.126 -11.378  1.00141.18     0.019 A 
HETATM    8  C14 MIQ B 502      -5.061  21.632 -10.940  1.00138.77     0.033 A 
HETATM    9  C15 MIQ B 502      -5.659  22.116  -9.579  1.00142.10     0.195 A 
HETATM   10  N17 MIQ B 502      -6.915  22.447  -9.829  1.00139.42    -0.288 N 
HETATM   11  O16 MIQ B 502      -4.998  22.181  -8.351  1.00148.93    -0.171 OA
ENDROOT
BRANCH  10  12
HETATM   12  C18 MIQ B 502      -7.794  22.931  -8.781  1.00139.82     0.187 C 
HETATM   13  C19 MIQ B 502      -7.090  24.102  -8.084  1.00140.06     0.247 C 
HETATM   14  O25 MIQ B 502      -6.655  24.983  -8.736  1.00143.95    -0.271 OA
HETATM   15  N20 MIQ B 502      -6.948  24.159  -6.643  1.00140.02    -0.296 N 
HETATM   16  H13 MIQ B 502      -6.480  24.926  -6.201  1.00142.77     0.171 HD
HETATM   17  C21 MIQ B 502      -7.477  23.067  -5.869  1.00142.22     0.224 C 
HETATM   18  C22 MIQ B 502      -7.421  21.691  -6.505  1.00139.52     0.106 C 
HETATM   19  O24 MIQ B 502      -7.938  23.237  -4.794  1.00146.13    -0.273 OA
HETATM   20  C23 MIQ B 502      -8.160  21.796  -7.827  1.00139.15     0.045 C 
ENDBRANCH  10  12
BRANCH   5  21
HETATM   21  N6  MIQ B 502      -4.402  20.508 -15.085  1.00140.95    -0.377 N 
HETATM   22  C7  MIQ B 502      -4.412  19.096 -15.427  1.00142.12     0.149 C 
HETATM   23  C8  MIQ B 502      -3.590  18.808 -16.677  1.00144.10     0.187 C 
HETATM   24  O9  MIQ B 502      -3.877  19.680 -17.729  1.00148.65    -0.388 OA
HETATM   25  C10 MIQ B 502      -4.666  20.813 -17.515  1.00147.44     0.187 C 
HETATM   26  C11 MIQ B 502      -4.631  21.477 -16.142  1.00144.08     0.149 C 
ENDBRANCH   5  21
TORSDOF 2
ENDMDL
MODEL 9
REMARK VINA RESULT:      -5.9      1.915      8.640
REMARK  2 active torsions:
REMARK  status: ('A' for Active; 'I' for Inactive)
REMARK    1  A    between atoms: C5_5  and  N6_21 
REMARK    2  A    between atoms: C18_14  and  N17_19 
ROOT
HETATM    1  O1  MIQ B 502      19.019  26.760  -6.045  1.00142.91    -0.171 OA
HETATM    2  C2  MIQ B 502      17.756  26.387  -6.511  1.00141.17     0.195 A 
HETATM    3  C3  MIQ B 502      16.655  25.640  -5.694  1.00141.71     0.035 A 
HETATM    4  C4  MIQ B 502      16.586  25.134  -4.302  1.00142.86     0.046 A 
HETATM    5  C5  MIQ B 502      15.418  24.480  -3.834  1.00139.53     0.031 A 
HETATM    6  C12 MIQ B 502      14.281  24.306  -4.727  1.00139.38     0.030 A 
HETATM    7  C13 MIQ B 502      14.347  24.791  -6.061  1.00141.18     0.019 A 
HETATM    8  C14 MIQ B 502      15.574  25.479  -6.545  1.00138.77     0.033 A 
HETATM    9  C15 MIQ B 502      16.007  26.131  -7.899  1.00142.10     0.195 A 
HETATM   10  N17 MIQ B 502      17.235  26.586  -7.709  1.00139.42    -0.288 N 
HETATM   11  O16 MIQ B 502      15.248  26.212  -9.068  1.00148.93    -0.171 OA
ENDROOT
BRANCH  10  12
HETATM   12  C18 MIQ B 502      17.970  27.247  -8.771  1.00139.82     0.187 C 
HETATM   13  C19 MIQ B 502      17.069  28.346  -9.350  1.00140.06     0.247 C 
HETATM   14  O25 MIQ B 502      16.562  29.119  -8.618  1.00143.95    -0.271 OA
HETATM   15  N20 MIQ B 502      16.828  28.465 -10.773  1.00140.02    -0.296 N 
HETATM   16  H13 MIQ B 502      16.233  29.182 -11.138  1.00142.77     0.171 HD
HETATM   17  C21 MIQ B 502      17.451  27.502 -11.645  1.00142.22     0.224 C 
HETATM   18  C22 MIQ B 502      17.622  26.098 -11.099  1.00139.52     0.106 C 
HETATM   19  O24 MIQ B 502      17.813  27.796 -12.731  1.00146.13    -0.273 OA
HETATM   20  C23 MIQ B 502      18.424  26.230  -9.817  1.00139.15     0.045 C 
ENDBRANCH  10  12
BRANCH   5  21
HETATM   21  N6  MIQ B 502      15.370  23.976  -2.474  1.00140.95    -0.377 N 
HETATM   22  C7  MIQ B 502      14.189  23.247  -2.045  1.00142.12     0.149 C 
HETATM   23  C8  MIQ B 502      13.974  23.348  -0.540  1.00144.10     0.187 C 
HETATM   24  O9  MIQ B 502      15.134  23.090   0.193  1.00148.65    -0.388 OA
HETATM   25  C10 MIQ B 502      16.370  22.992  -0.450  1.00147.44     0.187 C 
HETATM   26  C11 MIQ B 502      16.599  23.806  -1.719  1.00144.08     0.149 C 
ENDBRANCH   5  21
TORSDOF 2
ENDMDL
