MODEL 1
REMARK VINA RESULT:      -6.9      0.000      0.000
REMARK  2 active torsions:
REMARK  status: ('A' for Active; 'I' for Inactive)
REMARK    1  A    between atoms: C5_5  and  N6_21 
REMARK    2  A    between atoms: C18_14  and  N17_19 
ROOT
HETATM    1  O1  MIQ B 502      -6.399  -5.355 -14.344  1.00142.91    -0.171 OA
HETATM    2  C2  MIQ B 502      -7.015  -4.481 -15.243  1.00141.17     0.195 A 
HETATM    3  C3  MIQ B 502      -6.328  -3.299 -15.998  1.00141.71     0.035 A 
HETATM    4  C4  MIQ B 502      -4.945  -2.768 -16.015  1.00142.86     0.046 A 
HETATM    5  C5  MIQ B 502      -4.615  -1.652 -16.825  1.00139.53     0.031 A 
HETATM    6  C12 MIQ B 502      -5.643  -1.026 -17.645  1.00139.38     0.030 A 
HETATM    7  C13 MIQ B 502      -6.969  -1.536 -17.630  1.00141.18     0.019 A 
HETATM    8  C14 MIQ B 502      -7.308  -2.709 -16.779  1.00138.77     0.033 A 
HETATM    9  C15 MIQ B 502      -8.611  -3.530 -16.508  1.00142.10     0.195 A 
HETATM   10  N17 MIQ B 502      -8.276  -4.471 -15.641  1.00139.42    -0.288 N 
HETATM   11  O16 MIQ B 502      -9.871  -3.308 -17.068  1.00148.93    -0.171 OA
ENDROOT
BRANCH  10  12
HETATM   12  C18 MIQ B 502      -9.251  -5.423 -15.142  1.00139.82     0.187 C 
HETATM   13  C19 MIQ B 502      -9.225  -5.361 -13.610  1.00140.06     0.247 C 
HETATM   14  O25 MIQ B 502      -9.319  -4.314 -13.075  1.00143.95    -0.271 OA
HETATM   15  N20 MIQ B 502      -9.094  -6.554 -12.799  1.00140.02    -0.296 N 
HETATM   16  H13 MIQ B 502      -9.071  -6.499 -11.800  1.00142.77     0.171 HD
HETATM   17  C21 MIQ B 502      -8.970  -7.819 -13.476  1.00142.22     0.224 C 
HETATM   18  C22 MIQ B 502      -8.236  -7.813 -14.803  1.00139.52     0.106 C 
HETATM   19  O24 MIQ B 502      -9.424  -8.810 -13.020  1.00146.13    -0.273 OA
HETATM   20  C23 MIQ B 502      -8.960  -6.819 -15.692  1.00139.15     0.045 C 
ENDBRANCH  10  12
BRANCH   5  21
HETATM   21  N6  MIQ B 502      -3.260  -1.133 -16.820  1.00140.95    -0.377 N 
HETATM   22  C7  MIQ B 502      -2.157  -2.069 -16.951  1.00142.12     0.149 C 
HETATM   23  C8  MIQ B 502      -0.882  -1.539 -16.308  1.00144.10     0.187 C 
HETATM   24  O9  MIQ B 502      -0.594  -0.224 -16.676  1.00148.65    -0.388 OA
HETATM   25  C10 MIQ B 502      -1.537   0.540 -17.369  1.00147.44     0.187 C 
HETATM   26  C11 MIQ B 502      -3.018   0.266 -17.126  1.00144.08     0.149 C 
ENDBRANCH   5  21
TORSDOF 2
ENDMDL
MODEL 2
REMARK VINA RESULT:      -6.7     18.307     19.890
REMARK  2 active torsions:
REMARK  status: ('A' for Active; 'I' for Inactive)
REMARK    1  A    between atoms: C5_5  and  N6_21 
REMARK    2  A    between atoms: C18_14  and  N17_19 
ROOT
HETATM    1  O1  MIQ B 502     -13.857 -19.323  -2.962  1.00142.91    -0.171 OA
HETATM    2  C2  MIQ B 502     -13.372 -18.028  -3.154  1.00141.17     0.195 A 
HETATM    3  C3  MIQ B 502     -11.923 -17.531  -2.848  1.00141.71     0.035 A 
HETATM    4  C4  MIQ B 502     -10.710 -18.194  -2.313  1.00142.86     0.046 A 
HETATM    5  C5  MIQ B 502      -9.508 -17.461  -2.144  1.00139.53     0.031 A 
HETATM    6  C12 MIQ B 502      -9.467 -16.050  -2.498  1.00139.38     0.030 A 
HETATM    7  C13 MIQ B 502     -10.629 -15.414  -3.011  1.00141.18     0.019 A 
HETATM    8  C14 MIQ B 502     -11.888 -16.189  -3.189  1.00138.77     0.033 A 
HETATM    9  C15 MIQ B 502     -13.322 -15.851  -3.711  1.00142.10     0.195 A 
HETATM   10  N17 MIQ B 502     -14.015 -16.975  -3.628  1.00139.42    -0.288 N 
HETATM   11  O16 MIQ B 502     -13.775 -14.612  -4.168  1.00148.93    -0.171 OA
ENDROOT
BRANCH  10  12
HETATM   12  C18 MIQ B 502     -15.412 -17.034  -4.017  1.00139.82     0.187 C 
HETATM   13  C19 MIQ B 502     -15.553 -16.314  -5.364  1.00140.06     0.247 C 
HETATM   14  O25 MIQ B 502     -14.835 -16.608  -6.252  1.00143.95    -0.271 OA
HETATM   15  N20 MIQ B 502     -16.548 -15.283  -5.579  1.00140.02    -0.296 N 
HETATM   16  H13 MIQ B 502     -16.625 -14.816  -6.461  1.00142.77     0.171 HD
HETATM   17  C21 MIQ B 502     -17.406 -14.934  -4.476  1.00142.22     0.224 C 
HETATM   18  C22 MIQ B 502     -16.799 -15.016  -3.088  1.00139.52     0.106 C 
HETATM   19  O24 MIQ B 502     -18.528 -14.605  -4.646  1.00146.13    -0.273 OA
HETATM   20  C23 MIQ B 502     -16.295 -16.438  -2.922  1.00139.15     0.045 C 
ENDBRANCH  10  12
BRANCH   5  21
HETATM   21  N6  MIQ B 502      -8.332 -18.120  -1.605  1.00140.95    -0.377 N 
HETATM   22  C7  MIQ B 502      -7.047 -17.453  -1.725  1.00142.12     0.149 C 
HETATM   23  C8  MIQ B 502      -5.891 -18.445  -1.737  1.00144.10     0.187 C 
HETATM   24  O9  MIQ B 502      -5.978 -19.394  -0.716  1.00148.65    -0.388 OA
HETATM   25  C10 MIQ B 502      -7.143 -19.507   0.047  1.00147.44     0.187 C 
HETATM   26  C11 MIQ B 502      -8.479 -19.163  -0.605  1.00144.08     0.149 C 
ENDBRANCH   5  21
TORSDOF 2
ENDMDL
MODEL 3
REMARK VINA RESULT:      -6.7     22.776     25.718
REMARK  2 active torsions:
REMARK  status: ('A' for Active; 'I' for Inactive)
REMARK    1  A    between atoms: C5_5  and  N6_21 
REMARK    2  A    between atoms: C18_14  and  N17_19 
ROOT
HETATM    1  O1  MIQ B 502       6.695 -24.719 -13.116  1.00142.91    -0.171 OA
HETATM    2  C2  MIQ B 502       6.204 -24.372 -14.377  1.00141.17     0.195 A 
HETATM    3  C3  MIQ B 502       5.307 -25.263 -15.294  1.00141.71     0.035 A 
HETATM    4  C4  MIQ B 502       4.735 -26.623 -15.149  1.00142.86     0.046 A 
HETATM    5  C5  MIQ B 502       3.936 -27.178 -16.180  1.00139.53     0.031 A 
HETATM    6  C12 MIQ B 502       3.676 -26.407 -17.387  1.00139.38     0.030 A 
HETATM    7  C13 MIQ B 502       4.223 -25.103 -17.526  1.00141.18     0.019 A 
HETATM    8  C14 MIQ B 502       5.059 -24.524 -16.439  1.00138.77     0.033 A 
HETATM    9  C15 MIQ B 502       5.806 -23.167 -16.232  1.00142.10     0.195 A 
HETATM   10  N17 MIQ B 502       6.384 -23.245 -15.044  1.00139.42    -0.288 N 
HETATM   11  O16 MIQ B 502       5.854 -22.094 -17.123  1.00148.93    -0.171 OA
ENDROOT
BRANCH  10  12
HETATM   12  C18 MIQ B 502       7.188 -22.158 -14.519  1.00139.82     0.187 C 
HETATM   13  C19 MIQ B 502       8.532 -22.744 -14.070  1.00140.06     0.247 C 
HETATM   14  O25 MIQ B 502       9.143 -23.422 -14.817  1.00143.95    -0.271 OA
HETATM   15  N20 MIQ B 502       9.077 -22.483 -12.753  1.00140.02    -0.296 N 
HETATM   16  H13 MIQ B 502       9.953 -22.877 -12.470  1.00142.77     0.171 HD
HETATM   17  C21 MIQ B 502       8.308 -21.661 -11.856  1.00142.22     0.224 C 
HETATM   18  C22 MIQ B 502       6.799 -21.766 -11.959  1.00139.52     0.106 C 
HETATM   19  O24 MIQ B 502       8.829 -20.936 -11.081  1.00146.13    -0.273 OA
HETATM   20  C23 MIQ B 502       6.441 -21.438 -13.398  1.00139.15     0.045 C 
ENDBRANCH  10  12
BRANCH   5  21
HETATM   21  N6  MIQ B 502       3.395 -28.517 -16.031  1.00140.95    -0.377 N 
HETATM   22  C7  MIQ B 502       3.328 -29.374 -17.203  1.00142.12     0.149 C 
HETATM   23  C8  MIQ B 502       2.219 -30.411 -17.087  1.00144.10     0.187 C 
HETATM   24  O9  MIQ B 502       2.225 -31.078 -15.860  1.00148.65    -0.388 OA
HETATM   25  C10 MIQ B 502       3.035 -30.628 -14.814  1.00147.44     0.187 C 
HETATM   26  C11 MIQ B 502       3.343 -29.137 -14.719  1.00144.08     0.149 C 
ENDBRANCH   5  21
TORSDOF 2
ENDMDL
MODEL 4
REMARK VINA RESULT:      -6.5     22.290     23.888
REMARK  2 active torsions:
REMARK  status: ('A' for Active; 'I' for Inactive)
REMARK    1  A    between atoms: C5_5  and  N6_21 
REMARK    2  A    between atoms: C18_14  and  N17_19 
ROOT
HETATM    1  O1  MIQ B 502       5.689 -22.016 -18.205  1.00142.91    -0.171 OA
HETATM    2  C2  MIQ B 502       5.635 -23.200 -17.467  1.00141.17     0.195 A 
HETATM    3  C3  MIQ B 502       6.083 -23.383 -15.982  1.00141.71     0.035 A 
HETATM    4  C4  MIQ B 502       6.651 -22.462 -14.969  1.00142.86     0.046 A 
HETATM    5  C5  MIQ B 502       6.964 -22.933 -13.668  1.00139.53     0.031 A 
HETATM    6  C12 MIQ B 502       6.725 -24.328 -13.328  1.00139.38     0.030 A 
HETATM    7  C13 MIQ B 502       6.179 -25.211 -14.299  1.00141.18     0.019 A 
HETATM    8  C14 MIQ B 502       5.851 -24.710 -15.662  1.00138.77     0.033 A 
HETATM    9  C15 MIQ B 502       5.254 -25.355 -16.955  1.00142.10     0.195 A 
HETATM   10  N17 MIQ B 502       5.199 -24.386 -17.854  1.00139.42    -0.288 N 
HETATM   11  O16 MIQ B 502       4.863 -26.685 -17.122  1.00148.93    -0.171 OA
ENDROOT
BRANCH  10  12
HETATM   12  C18 MIQ B 502       4.705 -24.627 -19.197  1.00139.82     0.187 C 
HETATM   13  C19 MIQ B 502       5.749 -24.088 -20.183  1.00140.06     0.247 C 
HETATM   14  O25 MIQ B 502       6.876 -24.413 -20.063  1.00143.95    -0.271 OA
HETATM   15  N20 MIQ B 502       5.388 -23.192 -21.263  1.00140.02    -0.296 N 
HETATM   16  H13 MIQ B 502       6.080 -22.842 -21.895  1.00142.77     0.171 HD
HETATM   17  C21 MIQ B 502       4.008 -22.800 -21.382  1.00142.22     0.224 C 
HETATM   18  C22 MIQ B 502       3.226 -22.659 -20.090  1.00139.52     0.106 C 
HETATM   19  O24 MIQ B 502       3.510 -22.604 -22.436  1.00146.13    -0.273 OA
HETATM   20  C23 MIQ B 502       3.325 -23.996 -19.378  1.00139.15     0.045 C 
ENDBRANCH  10  12
BRANCH   5  21
HETATM   21  N6  MIQ B 502       7.534 -22.024 -12.690  1.00140.95    -0.377 N 
HETATM   22  C7  MIQ B 502       8.713 -22.447 -11.953  1.00142.12     0.149 C 
HETATM   23  C8  MIQ B 502       8.812 -21.761 -10.597  1.00144.10     0.187 C 
HETATM   24  O9  MIQ B 502       8.618 -20.380 -10.671  1.00148.65    -0.388 OA
HETATM   25  C10 MIQ B 502       8.154 -19.793 -11.852  1.00147.44     0.187 C 
HETATM   26  C11 MIQ B 502       7.234 -20.605 -12.757  1.00144.08     0.149 C 
ENDBRANCH   5  21
TORSDOF 2
ENDMDL
MODEL 5
REMARK VINA RESULT:      -6.4      3.142      8.229
REMARK  2 active torsions:
REMARK  status: ('A' for Active; 'I' for Inactive)
REMARK    1  A    between atoms: C5_5  and  N6_21 
REMARK    2  A    between atoms: C18_14  and  N17_19 
ROOT
HETATM    1  O1  MIQ B 502      -6.942  -5.732 -13.656  1.00142.91    -0.171 OA
HETATM    2  C2  MIQ B 502      -7.638  -4.880 -14.515  1.00141.17     0.195 A 
HETATM    3  C3  MIQ B 502      -9.155  -4.516 -14.424  1.00141.71     0.035 A 
HETATM    4  C4  MIQ B 502     -10.242  -4.906 -13.496  1.00142.86     0.046 A 
HETATM    5  C5  MIQ B 502     -11.553  -4.396 -13.673  1.00139.53     0.031 A 
HETATM    6  C12 MIQ B 502     -11.831  -3.483 -14.772  1.00139.38     0.030 A 
HETATM    7  C13 MIQ B 502     -10.788  -3.108 -15.662  1.00141.18     0.019 A 
HETATM    8  C14 MIQ B 502      -9.413  -3.645 -15.470  1.00138.77     0.033 A 
HETATM    9  C15 MIQ B 502      -8.050  -3.466 -16.214  1.00142.10     0.195 A 
HETATM   10  N17 MIQ B 502      -7.176  -4.212 -15.559  1.00139.42    -0.288 N 
HETATM   11  O16 MIQ B 502      -7.810  -2.680 -17.342  1.00148.93    -0.171 OA
ENDROOT
BRANCH  10  12
HETATM   12  C18 MIQ B 502      -5.791  -4.305 -15.982  1.00139.82     0.187 C 
HETATM   13  C19 MIQ B 502      -5.255  -2.877 -16.143  1.00140.06     0.247 C 
HETATM   14  O25 MIQ B 502      -5.395  -2.106 -15.261  1.00143.95    -0.271 OA
HETATM   15  N20 MIQ B 502      -4.574  -2.447 -17.347  1.00140.02    -0.296 N 
HETATM   16  H13 MIQ B 502      -4.235  -1.511 -17.442  1.00142.77     0.171 HD
HETATM   17  C21 MIQ B 502      -4.424  -3.403 -18.414  1.00142.22     0.224 C 
HETATM   18  C22 MIQ B 502      -5.542  -4.413 -18.586  1.00139.52     0.106 C 
HETATM   19  O24 MIQ B 502      -3.473  -3.402 -19.115  1.00146.13    -0.273 OA
HETATM   20  C23 MIQ B 502      -5.679  -5.136 -17.259  1.00139.15     0.045 C 
ENDBRANCH  10  12
BRANCH   5  21
HETATM   21  N6  MIQ B 502     -12.612  -4.799 -12.765  1.00140.95    -0.377 N 
HETATM   22  C7  MIQ B 502     -13.970  -4.366 -13.047  1.00142.12     0.149 C 
HETATM   23  C8  MIQ B 502     -14.813  -4.279 -11.781  1.00144.10     0.187 C 
HETATM   24  O9  MIQ B 502     -14.703  -5.415 -10.976  1.00148.65    -0.388 OA
HETATM   25  C10 MIQ B 502     -13.730  -6.381 -11.244  1.00147.44     0.187 C 
HETATM   26  C11 MIQ B 502     -12.418  -5.937 -11.884  1.00144.08     0.149 C 
ENDBRANCH   5  21
TORSDOF 2
ENDMDL
MODEL 6
REMARK VINA RESULT:      -6.4      1.473      1.937
REMARK  2 active torsions:
REMARK  status: ('A' for Active; 'I' for Inactive)
REMARK    1  A    between atoms: C5_5  and  N6_21 
REMARK    2  A    between atoms: C18_14  and  N17_19 
ROOT
HETATM    1  O1  MIQ B 502      -4.445  -5.720 -14.459  1.00142.91    -0.171 OA
HETATM    2  C2  MIQ B 502      -5.403  -4.897 -15.056  1.00141.17     0.195 A 
HETATM    3  C3  MIQ B 502      -5.125  -3.570 -15.832  1.00141.71     0.035 A 
HETATM    4  C4  MIQ B 502      -3.889  -2.823 -16.161  1.00142.86     0.046 A 
HETATM    5  C5  MIQ B 502      -3.957  -1.615 -16.901  1.00139.53     0.031 A 
HETATM    6  C12 MIQ B 502      -5.250  -1.108 -17.339  1.00139.38     0.030 A 
HETATM    7  C13 MIQ B 502      -6.435  -1.825 -17.024  1.00141.18     0.019 A 
HETATM    8  C14 MIQ B 502      -6.357  -3.094 -16.250  1.00138.77     0.033 A 
HETATM    9  C15 MIQ B 502      -7.406  -4.131 -15.731  1.00142.10     0.195 A 
HETATM   10  N17 MIQ B 502      -6.714  -5.063 -15.097  1.00139.42    -0.288 N 
HETATM   11  O16 MIQ B 502      -8.790  -4.078 -15.903  1.00148.93    -0.171 OA
ENDROOT
BRANCH  10  12
HETATM   12  C18 MIQ B 502      -7.369  -6.193 -14.463  1.00139.82     0.187 C 
HETATM   13  C19 MIQ B 502      -8.266  -6.862 -15.512  1.00140.06     0.247 C 
HETATM   14  O25 MIQ B 502      -7.810  -7.149 -16.561  1.00143.95    -0.271 OA
HETATM   15  N20 MIQ B 502      -9.660  -7.157 -15.248  1.00140.02    -0.296 N 
HETATM   16  H13 MIQ B 502     -10.236  -7.588 -15.944  1.00142.77     0.171 HD
HETATM   17  C21 MIQ B 502     -10.196  -6.788 -13.964  1.00142.22     0.224 C 
HETATM   18  C22 MIQ B 502      -9.634  -5.532 -13.327  1.00139.52     0.106 C 
HETATM   19  O24 MIQ B 502     -11.030  -7.435 -13.433  1.00146.13    -0.273 OA
HETATM   20  C23 MIQ B 502      -8.133  -5.736 -13.221  1.00139.15     0.045 C 
ENDBRANCH  10  12
BRANCH   5  21
HETATM   21  N6  MIQ B 502      -2.739  -0.885 -17.204  1.00140.95    -0.377 N 
HETATM   22  C7  MIQ B 502      -1.471  -1.435 -16.757  1.00142.12     0.149 C 
HETATM   23  C8  MIQ B 502      -0.422  -0.349 -16.551  1.00144.10     0.187 C 
HETATM   24  O9  MIQ B 502      -0.342   0.540 -17.624  1.00148.65    -0.388 OA
HETATM   25  C10 MIQ B 502      -1.308   0.519 -18.634  1.00147.44     0.187 C 
HETATM   26  C11 MIQ B 502      -2.728   0.094 -18.277  1.00144.08     0.149 C 
ENDBRANCH   5  21
TORSDOF 2
ENDMDL
MODEL 7
REMARK VINA RESULT:      -6.4     22.644     25.057
REMARK  2 active torsions:
REMARK  status: ('A' for Active; 'I' for Inactive)
REMARK    1  A    between atoms: C5_5  and  N6_21 
REMARK    2  A    between atoms: C18_14  and  N17_19 
ROOT
HETATM    1  O1  MIQ B 502       5.872 -22.126 -17.292  1.00142.91    -0.171 OA
HETATM    2  C2  MIQ B 502       5.796 -23.166 -16.364  1.00141.17     0.195 A 
HETATM    3  C3  MIQ B 502       5.003 -24.500 -16.536  1.00141.71     0.035 A 
HETATM    4  C4  MIQ B 502       4.160 -25.051 -17.624  1.00142.86     0.046 A 
HETATM    5  C5  MIQ B 502       3.557 -26.327 -17.487  1.00139.53     0.031 A 
HETATM    6  C12 MIQ B 502       3.767 -27.099 -16.271  1.00139.38     0.030 A 
HETATM    7  C13 MIQ B 502       4.576 -26.572 -15.229  1.00141.18     0.019 A 
HETATM    8  C14 MIQ B 502       5.209 -25.233 -15.379  1.00138.77     0.033 A 
HETATM    9  C15 MIQ B 502       6.136 -24.349 -14.483  1.00142.10     0.195 A 
HETATM   10  N17 MIQ B 502       6.368 -23.245 -15.174  1.00139.42    -0.288 N 
HETATM   11  O16 MIQ B 502       6.617 -24.664 -13.211  1.00148.93    -0.171 OA
ENDROOT
BRANCH  10  12
HETATM   12  C18 MIQ B 502       7.189 -22.175 -14.640  1.00139.82     0.187 C 
HETATM   13  C19 MIQ B 502       8.502 -22.795 -14.145  1.00140.06     0.247 C 
HETATM   14  O25 MIQ B 502       9.113 -23.501 -14.866  1.00143.95    -0.271 OA
HETATM   15  N20 MIQ B 502       9.017 -22.534 -12.817  1.00140.02    -0.296 N 
HETATM   16  H13 MIQ B 502       9.872 -22.950 -12.504  1.00142.77     0.171 HD
HETATM   17  C21 MIQ B 502       8.248 -21.677 -11.952  1.00142.22     0.224 C 
HETATM   18  C22 MIQ B 502       6.740 -21.739 -12.097  1.00139.52     0.106 C 
HETATM   19  O24 MIQ B 502       8.769 -20.959 -11.171  1.00146.13    -0.273 OA
HETATM   20  C23 MIQ B 502       6.433 -21.419 -13.549  1.00139.15     0.045 C 
ENDBRANCH  10  12
BRANCH   5  21
HETATM   21  N6  MIQ B 502       2.722 -26.848 -18.554  1.00140.95    -0.377 N 
HETATM   22  C7  MIQ B 502       1.782 -27.912 -18.245  1.00142.12     0.149 C 
HETATM   23  C8  MIQ B 502       1.473 -28.770 -19.465  1.00144.10     0.187 C 
HETATM   24  O9  MIQ B 502       1.167 -28.014 -20.598  1.00148.65    -0.388 OA
HETATM   25  C10 MIQ B 502       1.371 -26.632 -20.603  1.00147.44     0.187 C 
HETATM   26  C11 MIQ B 502       2.501 -26.059 -19.754  1.00144.08     0.149 C 
ENDBRANCH   5  21
TORSDOF 2
ENDMDL
MODEL 8
REMARK VINA RESULT:      -6.4      6.590      9.757
REMARK  2 active torsions:
REMARK  status: ('A' for Active; 'I' for Inactive)
REMARK    1  A    between atoms: C5_5  and  N6_21 
REMARK    2  A    between atoms: C18_14  and  N17_19 
ROOT
HETATM    1  O1  MIQ B 502     -15.091  -2.513 -14.364  1.00142.91    -0.171 OA
HETATM    2  C2  MIQ B 502     -15.175  -3.458 -13.339  1.00141.17     0.195 A 
HETATM    3  C3  MIQ B 502     -14.025  -4.398 -12.855  1.00141.71     0.035 A 
HETATM    4  C4  MIQ B 502     -12.614  -4.581 -13.271  1.00142.86     0.046 A 
HETATM    5  C5  MIQ B 502     -11.794  -5.539 -12.624  1.00139.53     0.031 A 
HETATM    6  C12 MIQ B 502     -12.341  -6.346 -11.543  1.00139.38     0.030 A 
HETATM    7  C13 MIQ B 502     -13.693  -6.171 -11.143  1.00141.18     0.019 A 
HETATM    8  C14 MIQ B 502     -14.549  -5.162 -11.825  1.00138.77     0.033 A 
HETATM    9  C15 MIQ B 502     -16.033  -4.693 -11.668  1.00142.10     0.195 A 
HETATM   10  N17 MIQ B 502     -16.215  -3.748 -12.576  1.00139.42    -0.288 N 
HETATM   11  O16 MIQ B 502     -16.971  -5.179 -10.756  1.00148.93    -0.171 OA
ENDROOT
BRANCH  10  12
HETATM   12  C18 MIQ B 502     -17.496  -3.086 -12.734  1.00139.82     0.187 C 
HETATM   13  C19 MIQ B 502     -17.904  -3.202 -14.207  1.00140.06     0.247 C 
HETATM   14  O25 MIQ B 502     -17.889  -4.260 -14.728  1.00143.95    -0.271 OA
HETATM   15  N20 MIQ B 502     -18.315  -2.047 -14.979  1.00140.02    -0.296 N 
HETATM   16  H13 MIQ B 502     -18.573  -2.135 -15.942  1.00142.77     0.171 HD
HETATM   17  C21 MIQ B 502     -18.316  -0.764 -14.325  1.00142.22     0.224 C 
HETATM   18  C22 MIQ B 502     -17.248  -0.535 -13.273  1.00139.52     0.106 C 
HETATM   19  O24 MIQ B 502     -19.114   0.066 -14.593  1.00146.13    -0.273 OA
HETATM   20  C23 MIQ B 502     -17.411  -1.641 -12.245  1.00139.15     0.045 C 
ENDBRANCH  10  12
BRANCH   5  21
HETATM   21  N6  MIQ B 502     -10.419  -5.717 -13.052  1.00140.95    -0.377 N 
HETATM   22  C7  MIQ B 502     -10.028  -6.997 -13.618  1.00142.12     0.149 C 
HETATM   23  C8  MIQ B 502      -8.544  -7.277 -13.420  1.00144.10     0.187 C 
HETATM   24  O9  MIQ B 502      -7.735  -6.196 -13.775  1.00148.65    -0.388 OA
HETATM   25  C10 MIQ B 502      -8.301  -4.948 -14.047  1.00147.44     0.187 C 
HETATM   26  C11 MIQ B 502      -9.588  -4.558 -13.328  1.00144.08     0.149 C 
ENDBRANCH   5  21
TORSDOF 2
ENDMDL
MODEL 9
REMARK VINA RESULT:      -6.3      4.472      9.705
REMARK  2 active torsions:
REMARK  status: ('A' for Active; 'I' for Inactive)
REMARK    1  A    between atoms: C5_5  and  N6_21 
REMARK    2  A    between atoms: C18_14  and  N17_19 
ROOT
HETATM    1  O1  MIQ B 502     -10.188  -8.421 -13.054  1.00142.91    -0.171 OA
HETATM    2  C2  MIQ B 502     -10.453  -7.090 -13.384  1.00141.17     0.195 A 
HETATM    3  C3  MIQ B 502     -11.723  -6.275 -12.980  1.00141.71     0.035 A 
HETATM    4  C4  MIQ B 502     -12.937  -6.603 -12.196  1.00142.86     0.046 A 
HETATM    5  C5  MIQ B 502     -13.945  -5.627 -11.992  1.00139.53     0.031 A 
HETATM    6  C12 MIQ B 502     -13.784  -4.295 -12.557  1.00139.38     0.030 A 
HETATM    7  C13 MIQ B 502     -12.620  -3.980 -13.309  1.00141.18     0.019 A 
HETATM    8  C14 MIQ B 502     -11.565  -5.008 -13.517  1.00138.77     0.033 A 
HETATM    9  C15 MIQ B 502     -10.188  -5.036 -14.258  1.00142.10     0.195 A 
HETATM   10  N17 MIQ B 502      -9.705  -6.256 -14.085  1.00139.42    -0.288 N 
HETATM   11  O16 MIQ B 502      -9.595  -3.985 -14.960  1.00148.93    -0.171 OA
ENDROOT
BRANCH  10  12
HETATM   12  C18 MIQ B 502      -8.432  -6.654 -14.656  1.00139.82     0.187 C 
HETATM   13  C19 MIQ B 502      -7.369  -5.662 -14.167  1.00140.06     0.247 C 
HETATM   14  O25 MIQ B 502      -7.282  -5.433 -13.013  1.00143.95    -0.271 OA
HETATM   15  N20 MIQ B 502      -6.463  -5.000 -15.083  1.00140.02    -0.296 N 
HETATM   16  H13 MIQ B 502      -5.778  -4.349 -14.752  1.00142.77     0.171 HD
HETATM   17  C21 MIQ B 502      -6.596  -5.287 -16.489  1.00142.22     0.224 C 
HETATM   18  C22 MIQ B 502      -7.997  -5.565 -16.998  1.00139.52     0.106 C 
HETATM   19  O24 MIQ B 502      -5.657  -5.310 -17.206  1.00146.13    -0.273 OA
HETATM   20  C23 MIQ B 502      -8.531  -6.726 -16.179  1.00139.15     0.045 C 
ENDBRANCH  10  12
BRANCH   5  21
HETATM   21  N6  MIQ B 502     -15.135  -5.966 -11.234  1.00140.95    -0.377 N 
HETATM   22  C7  MIQ B 502     -16.424  -5.509 -11.724  1.00142.12     0.149 C 
HETATM   23  C8  MIQ B 502     -17.437  -5.351 -10.597  1.00144.10     0.187 C 
HETATM   24  O9  MIQ B 502     -17.480  -6.458  -9.747  1.00148.65    -0.388 OA
HETATM   25  C10 MIQ B 502     -16.510  -7.458  -9.838  1.00147.44     0.187 C 
HETATM   26  C11 MIQ B 502     -15.106  -7.074 -10.296  1.00144.08     0.149 C 
ENDBRANCH   5  21
TORSDOF 2
ENDMDL
