MODEL 1
REMARK VINA RESULT:      -6.5      0.000      0.000
REMARK  2 active torsions:
REMARK  status: ('A' for Active; 'I' for Inactive)
REMARK    1  A    between atoms: C5_5  and  N6_21 
REMARK    2  A    between atoms: C18_14  and  N17_19 
ROOT
HETATM    1  O1  MIQ B 502     -11.312  19.791   6.637  1.00142.91    -0.171 OA
HETATM    2  C2  MIQ B 502     -12.652  19.823   7.028  1.00141.17     0.195 A 
HETATM    3  C3  MIQ B 502     -13.351  20.962   7.835  1.00141.71     0.035 A 
HETATM    4  C4  MIQ B 502     -12.879  22.252   8.393  1.00142.86     0.046 A 
HETATM    5  C5  MIQ B 502     -13.774  23.098   9.097  1.00139.53     0.031 A 
HETATM    6  C12 MIQ B 502     -15.162  22.697   9.271  1.00139.38     0.030 A 
HETATM    7  C13 MIQ B 502     -15.615  21.461   8.735  1.00141.18     0.019 A 
HETATM    8  C14 MIQ B 502     -14.672  20.578   7.995  1.00138.77     0.033 A 
HETATM    9  C15 MIQ B 502     -14.794  19.192   7.282  1.00142.10     0.195 A 
HETATM   10  N17 MIQ B 502     -13.592  18.922   6.800  1.00139.42    -0.288 N 
HETATM   11  O16 MIQ B 502     -15.941  18.403   7.181  1.00148.93    -0.171 OA
ENDROOT
BRANCH  10  12
HETATM   12  C18 MIQ B 502     -13.324  17.691   6.080  1.00139.82     0.187 C 
HETATM   13  C19 MIQ B 502     -12.115  17.017   6.739  1.00140.06     0.247 C 
HETATM   14  O25 MIQ B 502     -12.112  16.853   7.907  1.00143.95    -0.271 OA
HETATM   15  N20 MIQ B 502     -10.974  16.570   5.966  1.00140.02    -0.296 N 
HETATM   16  H13 MIQ B 502     -10.188  16.138   6.409  1.00142.77     0.171 HD
HETATM   17  C21 MIQ B 502     -10.996  16.791   4.543  1.00142.22     0.224 C 
HETATM   18  C22 MIQ B 502     -11.698  18.045   4.058  1.00139.52     0.106 C 
HETATM   19  O24 MIQ B 502     -10.495  16.028   3.792  1.00146.13    -0.273 OA
HETATM   20  C23 MIQ B 502     -13.116  17.979   4.594  1.00139.15     0.045 C 
ENDBRANCH  10  12
BRANCH   5  21
HETATM   21  N6  MIQ B 502     -13.295  24.351   9.651  1.00140.95    -0.377 N 
HETATM   22  C7  MIQ B 502     -13.846  25.594   9.138  1.00142.12     0.149 C 
HETATM   23  C8  MIQ B 502     -12.873  26.755   9.291  1.00144.10     0.187 C 
HETATM   24  O9  MIQ B 502     -12.316  26.832  10.570  1.00148.65    -0.388 OA
HETATM   25  C10 MIQ B 502     -12.495  25.790  11.483  1.00147.44     0.187 C 
HETATM   26  C11 MIQ B 502     -12.644  24.369  10.950  1.00144.08     0.149 C 
ENDBRANCH   5  21
TORSDOF 2
ENDMDL
MODEL 2
REMARK VINA RESULT:      -6.4      3.194      8.319
REMARK  2 active torsions:
REMARK  status: ('A' for Active; 'I' for Inactive)
REMARK    1  A    between atoms: C5_5  and  N6_21 
REMARK    2  A    between atoms: C18_14  and  N17_19 
ROOT
HETATM    1  O1  MIQ B 502     -14.707  21.011   6.206  1.00142.91    -0.171 OA
HETATM    2  C2  MIQ B 502     -13.773  19.977   6.108  1.00141.17     0.195 A 
HETATM    3  C3  MIQ B 502     -13.782  18.823   5.055  1.00141.71     0.035 A 
HETATM    4  C4  MIQ B 502     -14.682  18.477   3.930  1.00142.86     0.046 A 
HETATM    5  C5  MIQ B 502     -14.423  17.336   3.129  1.00139.53     0.031 A 
HETATM    6  C12 MIQ B 502     -13.265  16.501   3.415  1.00139.38     0.030 A 
HETATM    7  C13 MIQ B 502     -12.401  16.833   4.493  1.00141.18     0.019 A 
HETATM    8  C14 MIQ B 502     -12.677  18.033   5.329  1.00138.77     0.033 A 
HETATM    9  C15 MIQ B 502     -11.978  18.702   6.557  1.00142.10     0.195 A 
HETATM   10  N17 MIQ B 502     -12.707  19.763   6.860  1.00139.42    -0.288 N 
HETATM   11  O16 MIQ B 502     -10.820  18.262   7.201  1.00148.93    -0.171 OA
ENDROOT
BRANCH  10  12
HETATM   12  C18 MIQ B 502     -12.362  20.626   7.974  1.00139.82     0.187 C 
HETATM   13  C19 MIQ B 502     -13.608  20.772   8.857  1.00140.06     0.247 C 
HETATM   14  O25 MIQ B 502     -14.179  19.803   9.212  1.00143.95    -0.271 OA
HETATM   15  N20 MIQ B 502     -14.101  22.069   9.273  1.00140.02    -0.296 N 
HETATM   16  H13 MIQ B 502     -14.920  22.151   9.843  1.00142.77     0.171 HD
HETATM   17  C21 MIQ B 502     -13.393  23.238   8.818  1.00142.22     0.224 C 
HETATM   18  C22 MIQ B 502     -12.761  23.159   7.441  1.00139.52     0.106 C 
HETATM   19  O24 MIQ B 502     -13.306  24.207   9.488  1.00146.13    -0.273 OA
HETATM   20  C23 MIQ B 502     -11.827  21.963   7.464  1.00139.15     0.045 C 
ENDBRANCH  10  12
BRANCH   5  21
HETATM   21  N6  MIQ B 502     -15.321  17.001   2.039  1.00140.95    -0.377 N 
HETATM   22  C7  MIQ B 502     -16.649  17.591   2.027  1.00142.12     0.149 C 
HETATM   23  C8  MIQ B 502     -17.651  16.721   1.280  1.00144.10     0.187 C 
HETATM   24  O9  MIQ B 502     -17.177  16.291   0.038  1.00148.65    -0.388 OA
HETATM   25  C10 MIQ B 502     -15.838  16.477  -0.311  1.00147.44     0.187 C 
HETATM   26  C11 MIQ B 502     -14.788  16.475   0.795  1.00144.08     0.149 C 
ENDBRANCH   5  21
TORSDOF 2
ENDMDL
MODEL 3
REMARK VINA RESULT:      -6.1      4.676      5.719
REMARK  2 active torsions:
REMARK  status: ('A' for Active; 'I' for Inactive)
REMARK    1  A    between atoms: C5_5  and  N6_21 
REMARK    2  A    between atoms: C18_14  and  N17_19 
ROOT
HETATM    1  O1  MIQ B 502     -11.519  18.941   6.204  1.00142.91    -0.171 OA
HETATM    2  C2  MIQ B 502     -12.114  17.913   6.939  1.00141.17     0.195 A 
HETATM    3  C3  MIQ B 502     -11.704  17.447   8.372  1.00141.71     0.035 A 
HETATM    4  C4  MIQ B 502     -10.663  17.891   9.329  1.00142.86     0.046 A 
HETATM    5  C5  MIQ B 502     -10.531  17.256  10.590  1.00139.53     0.031 A 
HETATM    6  C12 MIQ B 502     -11.425  16.163  10.946  1.00139.38     0.030 A 
HETATM    7  C13 MIQ B 502     -12.424  15.738  10.029  1.00141.18     0.019 A 
HETATM    8  C14 MIQ B 502     -12.559  16.409   8.707  1.00138.77     0.033 A 
HETATM    9  C15 MIQ B 502     -13.506  16.232   7.476  1.00142.10     0.195 A 
HETATM   10  N17 MIQ B 502     -13.128  17.139   6.591  1.00139.42    -0.288 N 
HETATM   11  O16 MIQ B 502     -14.536  15.300   7.342  1.00148.93    -0.171 OA
ENDROOT
BRANCH  10  12
HETATM   12  C18 MIQ B 502     -13.783  17.258   5.301  1.00139.82     0.187 C 
HETATM   13  C19 MIQ B 502     -12.692  17.298   4.224  1.00140.06     0.247 C 
HETATM   14  O25 MIQ B 502     -11.858  16.464   4.219  1.00143.95    -0.271 OA
HETATM   15  N20 MIQ B 502     -12.660  18.329   3.207  1.00140.02    -0.296 N 
HETATM   16  H13 MIQ B 502     -11.939  18.348   2.514  1.00142.77     0.171 HD
HETATM   17  C21 MIQ B 502     -13.684  19.342   3.241  1.00142.22     0.224 C 
HETATM   18  C22 MIQ B 502     -14.193  19.751   4.610  1.00139.52     0.106 C 
HETATM   19  O24 MIQ B 502     -14.108  19.825   2.249  1.00146.13    -0.273 OA
HETATM   20  C23 MIQ B 502     -14.695  18.484   5.279  1.00139.15     0.045 C 
ENDBRANCH  10  12
BRANCH   5  21
HETATM   21  N6  MIQ B 502      -9.498  17.692  11.511  1.00140.95    -0.377 N 
HETATM   22  C7  MIQ B 502      -9.009  19.056  11.413  1.00142.12     0.149 C 
HETATM   23  C8  MIQ B 502      -7.581  19.188  11.927  1.00144.10     0.187 C 
HETATM   24  O9  MIQ B 502      -7.391  18.574  13.166  1.00148.65    -0.388 OA
HETATM   25  C10 MIQ B 502      -8.380  17.746  13.705  1.00147.44     0.187 C 
HETATM   26  C11 MIQ B 502      -9.279  16.968  12.751  1.00144.08     0.149 C 
ENDBRANCH   5  21
TORSDOF 2
ENDMDL
MODEL 4
REMARK VINA RESULT:      -6.1      2.246      2.800
REMARK  2 active torsions:
REMARK  status: ('A' for Active; 'I' for Inactive)
REMARK    1  A    between atoms: C5_5  and  N6_21 
REMARK    2  A    between atoms: C18_14  and  N17_19 
ROOT
HETATM    1  O1  MIQ B 502     -11.081  18.683   8.450  1.00142.91    -0.171 OA
HETATM    2  C2  MIQ B 502     -12.029  19.654   8.117  1.00141.17     0.195 A 
HETATM    3  C3  MIQ B 502     -12.465  20.861   9.007  1.00141.71     0.035 A 
HETATM    4  C4  MIQ B 502     -12.062  21.331  10.354  1.00142.86     0.046 A 
HETATM    5  C5  MIQ B 502     -12.651  22.494  10.912  1.00139.53     0.031 A 
HETATM    6  C12 MIQ B 502     -13.656  23.229  10.158  1.00139.38     0.030 A 
HETATM    7  C13 MIQ B 502     -14.041  22.778   8.866  1.00141.18     0.019 A 
HETATM    8  C14 MIQ B 502     -13.418  21.558   8.284  1.00138.77     0.033 A 
HETATM    9  C15 MIQ B 502     -13.574  20.781   6.936  1.00142.10     0.195 A 
HETATM   10  N17 MIQ B 502     -12.736  19.759   7.005  1.00139.42    -0.288 N 
HETATM   11  O16 MIQ B 502     -14.428  21.102   5.880  1.00148.93    -0.171 OA
ENDROOT
BRANCH  10  12
HETATM   12  C18 MIQ B 502     -12.621  18.800   5.923  1.00139.82     0.187 C 
HETATM   13  C19 MIQ B 502     -12.807  17.399   6.518  1.00140.06     0.247 C 
HETATM   14  O25 MIQ B 502     -13.744  17.183   7.201  1.00143.95    -0.271 OA
HETATM   15  N20 MIQ B 502     -11.865  16.329   6.261  1.00140.02    -0.296 N 
HETATM   16  H13 MIQ B 502     -11.993  15.420   6.662  1.00142.77     0.171 HD
HETATM   17  C21 MIQ B 502     -10.723  16.620   5.433  1.00142.22     0.224 C 
HETATM   18  C22 MIQ B 502     -10.152  18.022   5.528  1.00139.52     0.106 C 
HETATM   19  O24 MIQ B 502     -10.259  15.807   4.713  1.00146.13    -0.273 OA
HETATM   20  C23 MIQ B 502     -11.288  18.973   5.197  1.00139.15     0.045 C 
ENDBRANCH  10  12
BRANCH   5  21
HETATM   21  N6  MIQ B 502     -12.258  22.935  12.238  1.00140.95    -0.377 N 
HETATM   22  C7  MIQ B 502     -11.635  21.975  13.133  1.00142.12     0.149 C 
HETATM   23  C8  MIQ B 502     -11.864  22.330  14.597  1.00144.10     0.187 C 
HETATM   24  O9  MIQ B 502     -11.597  23.671  14.880  1.00148.65    -0.388 OA
HETATM   25  C10 MIQ B 502     -11.377  24.582  13.844  1.00147.44     0.187 C 
HETATM   26  C11 MIQ B 502     -12.075  24.350  12.508  1.00144.08     0.149 C 
ENDBRANCH   5  21
TORSDOF 2
ENDMDL
MODEL 5
REMARK VINA RESULT:      -6.1      2.079      2.871
REMARK  2 active torsions:
REMARK  status: ('A' for Active; 'I' for Inactive)
REMARK    1  A    between atoms: C5_5  and  N6_21 
REMARK    2  A    between atoms: C18_14  and  N17_19 
ROOT
HETATM    1  O1  MIQ B 502     -10.564  18.564   9.396  1.00142.91    -0.171 OA
HETATM    2  C2  MIQ B 502     -11.454  19.388   8.704  1.00141.17     0.195 A 
HETATM    3  C3  MIQ B 502     -12.070  20.725   9.227  1.00141.71     0.035 A 
HETATM    4  C4  MIQ B 502     -11.930  21.485  10.491  1.00142.86     0.046 A 
HETATM    5  C5  MIQ B 502     -12.635  22.701  10.678  1.00139.53     0.031 A 
HETATM    6  C12 MIQ B 502     -13.500  23.205   9.621  1.00139.38     0.030 A 
HETATM    7  C13 MIQ B 502     -13.634  22.476   8.408  1.00141.18     0.019 A 
HETATM    8  C14 MIQ B 502     -12.889  21.202   8.217  1.00138.77     0.033 A 
HETATM    9  C15 MIQ B 502     -12.781  20.156   7.060  1.00142.10     0.195 A 
HETATM   10  N17 MIQ B 502     -11.948  19.221   7.489  1.00139.42    -0.288 N 
HETATM   11  O16 MIQ B 502     -13.434  20.202   5.827  1.00148.93    -0.171 OA
ENDROOT
BRANCH  10  12
HETATM   12  C18 MIQ B 502     -11.618  18.068   6.673  1.00139.82     0.187 C 
HETATM   13  C19 MIQ B 502     -11.103  18.582   5.323  1.00140.06     0.247 C 
HETATM   14  O25 MIQ B 502     -10.248  19.394   5.304  1.00143.95    -0.271 OA
HETATM   15  N20 MIQ B 502     -11.634  18.094   4.067  1.00140.02    -0.296 N 
HETATM   16  H13 MIQ B 502     -11.294  18.443   3.192  1.00142.77     0.171 HD
HETATM   17  C21 MIQ B 502     -12.685  17.111   4.116  1.00142.22     0.224 C 
HETATM   18  C22 MIQ B 502     -13.659  17.211   5.274  1.00139.52     0.106 C 
HETATM   19  O24 MIQ B 502     -12.779  16.265   3.295  1.00146.13    -0.273 OA
HETATM   20  C23 MIQ B 502     -12.829  17.145   6.542  1.00139.15     0.045 C 
ENDBRANCH  10  12
BRANCH   5  21
HETATM   21  N6  MIQ B 502     -12.501  23.428  11.927  1.00140.95    -0.377 N 
HETATM   22  C7  MIQ B 502     -12.115  22.694  13.120  1.00142.12     0.149 C 
HETATM   23  C8  MIQ B 502     -12.621  23.365  14.390  1.00144.10     0.187 C 
HETATM   24  O9  MIQ B 502     -12.358  24.736  14.422  1.00148.65    -0.388 OA
HETATM   25  C10 MIQ B 502     -11.892  25.394  13.281  1.00147.44     0.187 C 
HETATM   26  C11 MIQ B 502     -12.314  24.868  11.912  1.00144.08     0.149 C 
ENDBRANCH   5  21
TORSDOF 2
ENDMDL
MODEL 6
REMARK VINA RESULT:      -5.9      5.852      9.024
REMARK  2 active torsions:
REMARK  status: ('A' for Active; 'I' for Inactive)
REMARK    1  A    between atoms: C5_5  and  N6_21 
REMARK    2  A    between atoms: C18_14  and  N17_19 
ROOT
HETATM    1  O1  MIQ B 502     -14.675  16.747  -0.388  1.00142.91    -0.171 OA
HETATM    2  C2  MIQ B 502     -15.554  16.691   0.696  1.00141.17     0.195 A 
HETATM    3  C3  MIQ B 502     -15.156  16.670   2.206  1.00141.71     0.035 A 
HETATM    4  C4  MIQ B 502     -13.857  16.703   2.918  1.00142.86     0.046 A 
HETATM    5  C5  MIQ B 502     -13.815  16.672   4.335  1.00139.53     0.031 A 
HETATM    6  C12 MIQ B 502     -15.056  16.609   5.093  1.00139.38     0.030 A 
HETATM    7  C13 MIQ B 502     -16.302  16.579   4.411  1.00141.18     0.019 A 
HETATM    8  C14 MIQ B 502     -16.340  16.613   2.924  1.00138.77     0.033 A 
HETATM    9  C15 MIQ B 502     -17.479  16.599   1.853  1.00142.10     0.195 A 
HETATM   10  N17 MIQ B 502     -16.876  16.649   0.677  1.00139.42    -0.288 N 
HETATM   11  O16 MIQ B 502     -18.853  16.543   2.095  1.00148.93    -0.171 OA
ENDROOT
BRANCH  10  12
HETATM   12  C18 MIQ B 502     -17.630  16.637  -0.563  1.00139.82     0.187 C 
HETATM   13  C19 MIQ B 502     -18.633  17.796  -0.511  1.00140.06     0.247 C 
HETATM   14  O25 MIQ B 502     -18.249  18.878  -0.240  1.00143.95    -0.271 OA
HETATM   15  N20 MIQ B 502     -20.040  17.601  -0.793  1.00140.02    -0.296 N 
HETATM   16  H13 MIQ B 502     -20.686  18.365  -0.749  1.00142.77     0.171 HD
HETATM   17  C21 MIQ B 502     -20.486  16.269  -1.111  1.00142.22     0.224 C 
HETATM   18  C22 MIQ B 502     -19.765  15.127  -0.424  1.00139.52     0.106 C 
HETATM   19  O24 MIQ B 502     -21.368  16.079  -1.875  1.00146.13    -0.273 OA
HETATM   20  C23 MIQ B 502     -18.294  15.276  -0.768  1.00139.15     0.045 C 
ENDBRANCH  10  12
BRANCH   5  21
HETATM   21  N6  MIQ B 502     -12.534  16.690   5.018  1.00140.95    -0.377 N 
HETATM   22  C7  MIQ B 502     -11.322  16.749   4.221  1.00142.12     0.149 C 
HETATM   23  C8  MIQ B 502     -10.133  16.131   4.946  1.00144.10     0.187 C 
HETATM   24  O9  MIQ B 502     -10.005  16.582   6.261  1.00148.65    -0.388 OA
HETATM   25  C10 MIQ B 502     -11.023  17.332   6.855  1.00147.44     0.187 C 
HETATM   26  C11 MIQ B 502     -12.462  17.085   6.414  1.00144.08     0.149 C 
ENDBRANCH   5  21
TORSDOF 2
ENDMDL
MODEL 7
REMARK VINA RESULT:      -5.9      5.845      8.704
REMARK  2 active torsions:
REMARK  status: ('A' for Active; 'I' for Inactive)
REMARK    1  A    between atoms: C5_5  and  N6_21 
REMARK    2  A    between atoms: C18_14  and  N17_19 
ROOT
HETATM    1  O1  MIQ B 502     -15.796  18.209   0.078  1.00142.91    -0.171 OA
HETATM    2  C2  MIQ B 502     -16.194  17.515   1.223  1.00141.17     0.195 A 
HETATM    3  C3  MIQ B 502     -15.307  17.214   2.474  1.00141.71     0.035 A 
HETATM    4  C4  MIQ B 502     -13.903  17.531   2.828  1.00142.86     0.046 A 
HETATM    5  C5  MIQ B 502     -13.366  17.113   4.071  1.00139.53     0.031 A 
HETATM    6  C12 MIQ B 502     -14.200  16.370   5.005  1.00139.38     0.030 A 
HETATM    7  C13 MIQ B 502     -15.546  16.067   4.667  1.00141.18     0.019 A 
HETATM    8  C14 MIQ B 502     -16.105  16.510   3.360  1.00138.77     0.033 A 
HETATM    9  C15 MIQ B 502     -17.495  16.374   2.657  1.00142.10     0.195 A 
HETATM   10  N17 MIQ B 502     -17.375  16.984   1.489  1.00139.42    -0.288 N 
HETATM   11  O16 MIQ B 502     -18.628  15.735   3.162  1.00148.93    -0.171 OA
ENDROOT
BRANCH  10  12
HETATM   12  C18 MIQ B 502     -18.478  17.044   0.549  1.00139.82     0.187 C 
HETATM   13  C19 MIQ B 502     -17.969  16.527  -0.803  1.00140.06     0.247 C 
HETATM   14  O25 MIQ B 502     -17.407  15.491  -0.848  1.00143.95    -0.271 OA
HETATM   15  N20 MIQ B 502     -18.164  17.273  -2.029  1.00140.02    -0.296 N 
HETATM   16  H13 MIQ B 502     -17.821  16.928  -2.903  1.00142.77     0.171 HD
HETATM   17  C21 MIQ B 502     -18.843  18.540  -1.946  1.00142.22     0.224 C 
HETATM   18  C22 MIQ B 502     -18.623  19.350  -0.683  1.00139.52     0.106 C 
HETATM   19  O24 MIQ B 502     -19.541  18.925  -2.818  1.00146.13    -0.273 OA
HETATM   20  C23 MIQ B 502     -19.039  18.463   0.476  1.00139.15     0.045 C 
ENDBRANCH  10  12
BRANCH   5  21
HETATM   21  N6  MIQ B 502     -11.985  17.418   4.399  1.00140.95    -0.377 N 
HETATM   22  C7  MIQ B 502     -10.980  16.389   4.193  1.00142.12     0.149 C 
HETATM   23  C8  MIQ B 502      -9.786  16.567   5.123  1.00144.10     0.187 C 
HETATM   24  O9  MIQ B 502      -9.304  17.877   5.144  1.00148.65    -0.388 OA
HETATM   25  C10 MIQ B 502     -10.029  18.908   4.541  1.00147.44     0.187 C 
HETATM   26  C11 MIQ B 502     -11.550  18.800   4.494  1.00144.08     0.149 C 
ENDBRANCH   5  21
TORSDOF 2
ENDMDL
MODEL 8
REMARK VINA RESULT:      -5.9      5.421      9.390
REMARK  2 active torsions:
REMARK  status: ('A' for Active; 'I' for Inactive)
REMARK    1  A    between atoms: C5_5  and  N6_21 
REMARK    2  A    between atoms: C18_14  and  N17_19 
ROOT
HETATM    1  O1  MIQ B 502     -15.196  16.121   4.747  1.00142.91    -0.171 OA
HETATM    2  C2  MIQ B 502     -15.269  17.182   3.842  1.00141.17     0.195 A 
HETATM    3  C3  MIQ B 502     -16.386  17.408   2.774  1.00141.71     0.035 A 
HETATM    4  C4  MIQ B 502     -17.609  16.656   2.404  1.00142.86     0.046 A 
HETATM    5  C5  MIQ B 502     -18.450  17.124   1.363  1.00139.53     0.031 A 
HETATM    6  C12 MIQ B 502     -18.110  18.349   0.655  1.00139.38     0.030 A 
HETATM    7  C13 MIQ B 502     -16.938  19.071   1.010  1.00141.18     0.019 A 
HETATM    8  C14 MIQ B 502     -16.060  18.576   2.105  1.00138.77     0.033 A 
HETATM    9  C15 MIQ B 502     -14.734  19.080   2.763  1.00142.10     0.195 A 
HETATM   10  N17 MIQ B 502     -14.436  18.199   3.704  1.00139.42    -0.288 N 
HETATM   11  O16 MIQ B 502     -14.013  20.225   2.420  1.00148.93    -0.171 OA
ENDROOT
BRANCH  10  12
HETATM   12  C18 MIQ B 502     -13.244  18.337   4.520  1.00139.82     0.187 C 
HETATM   13  C19 MIQ B 502     -12.492  17.002   4.481  1.00140.06     0.247 C 
HETATM   14  O25 MIQ B 502     -12.255  16.505   3.438  1.00143.95    -0.271 OA
HETATM   15  N20 MIQ B 502     -12.058  16.334   5.691  1.00140.02    -0.296 N 
HETATM   16  H13 MIQ B 502     -11.573  15.459   5.652  1.00142.77     0.171 HD
HETATM   17  C21 MIQ B 502     -12.368  16.955   6.953  1.00142.22     0.224 C 
HETATM   18  C22 MIQ B 502     -13.672  17.725   7.030  1.00139.52     0.106 C 
HETATM   19  O24 MIQ B 502     -11.638  16.871   7.878  1.00146.13    -0.273 OA
HETATM   20  C23 MIQ B 502     -13.618  18.775   5.936  1.00139.15     0.045 C 
ENDBRANCH  10  12
BRANCH   5  21
HETATM   21  N6  MIQ B 502     -19.637  16.370   1.001  1.00140.95    -0.377 N 
HETATM   22  C7  MIQ B 502     -19.500  15.265   0.068  1.00142.12     0.149 C 
HETATM   23  C8  MIQ B 502     -20.791  15.002  -0.696  1.00144.10     0.187 C 
HETATM   24  O9  MIQ B 502     -21.912  14.947   0.135  1.00148.65    -0.388 OA
HETATM   25  C10 MIQ B 502     -21.820  15.333   1.474  1.00147.44     0.187 C 
HETATM   26  C11 MIQ B 502     -20.811  16.412   1.855  1.00144.08     0.149 C 
ENDBRANCH   5  21
TORSDOF 2
ENDMDL
MODEL 9
REMARK VINA RESULT:      -5.9      4.644      8.514
REMARK  2 active torsions:
REMARK  status: ('A' for Active; 'I' for Inactive)
REMARK    1  A    between atoms: C5_5  and  N6_21 
REMARK    2  A    between atoms: C18_14  and  N17_19 
ROOT
HETATM    1  O1  MIQ B 502     -14.168  17.342   4.840  1.00142.91    -0.171 OA
HETATM    2  C2  MIQ B 502     -14.247  16.607   6.025  1.00141.17     0.195 A 
HETATM    3  C3  MIQ B 502     -15.439  15.700   6.470  1.00141.71     0.035 A 
HETATM    4  C4  MIQ B 502     -16.740  15.351   5.852  1.00142.86     0.046 A 
HETATM    5  C5  MIQ B 502     -17.637  14.476   6.515  1.00139.53     0.031 A 
HETATM    6  C12 MIQ B 502     -17.276  13.917   7.810  1.00139.38     0.030 A 
HETATM    7  C13 MIQ B 502     -16.028  14.251   8.403  1.00141.18     0.019 A 
HETATM    8  C14 MIQ B 502     -15.090  15.168   7.701  1.00138.77     0.033 A 
HETATM    9  C15 MIQ B 502     -13.673  15.748   8.021  1.00142.10     0.195 A 
HETATM   10  N17 MIQ B 502     -13.353  16.519   6.995  1.00139.42    -0.288 N 
HETATM   11  O16 MIQ B 502     -12.907  15.500   9.162  1.00148.93    -0.171 OA
ENDROOT
BRANCH  10  12
HETATM   12  C18 MIQ B 502     -12.096  17.243   6.954  1.00139.82     0.187 C 
HETATM   13  C19 MIQ B 502     -12.413  18.715   6.665  1.00140.06     0.247 C 
HETATM   14  O25 MIQ B 502     -13.220  19.270   7.323  1.00143.95    -0.271 OA
HETATM   15  N20 MIQ B 502     -11.745  19.447   5.609  1.00140.02    -0.296 N 
HETATM   16  H13 MIQ B 502     -11.966  20.406   5.426  1.00142.77     0.171 HD
HETATM   17  C21 MIQ B 502     -10.772  18.745   4.813  1.00142.22     0.224 C 
HETATM   18  C22 MIQ B 502     -11.032  17.272   4.562  1.00139.52     0.106 C 
HETATM   19  O24 MIQ B 502      -9.816  19.291   4.383  1.00146.13    -0.273 OA
HETATM   20  C23 MIQ B 502     -11.156  16.617   5.926  1.00139.15     0.045 C 
ENDBRANCH  10  12
BRANCH   5  21
HETATM   21  N6  MIQ B 502     -18.914  14.154   5.905  1.00140.95    -0.377 N 
HETATM   22  C7  MIQ B 502     -19.923  13.494   6.714  1.00142.12     0.149 C 
HETATM   23  C8  MIQ B 502     -20.881  12.667   5.865  1.00144.10     0.187 C 
HETATM   24  O9  MIQ B 502     -21.367  13.365   4.758  1.00148.65    -0.388 OA
HETATM   25  C10 MIQ B 502     -20.811  14.596   4.398  1.00147.44     0.187 C 
HETATM   26  C11 MIQ B 502     -19.338  14.849   4.702  1.00144.08     0.149 C 
ENDBRANCH   5  21
TORSDOF 2
ENDMDL
