MODEL 1
REMARK VINA RESULT:      -6.7      0.000      0.000
REMARK  2 active torsions:
REMARK  status: ('A' for Active; 'I' for Inactive)
REMARK    1  A    between atoms: C5_5  and  N6_21 
REMARK    2  A    between atoms: C18_14  and  N17_19 
ROOT
HETATM    1  O1  MIQ B 502      -8.679  19.663  10.674  1.00142.91    -0.171 OA
HETATM    2  C2  MIQ B 502      -9.219  18.525  10.073  1.00141.17     0.195 A 
HETATM    3  C3  MIQ B 502     -10.637  17.926  10.338  1.00141.71     0.035 A 
HETATM    4  C4  MIQ B 502     -11.762  18.322  11.217  1.00142.86     0.046 A 
HETATM    5  C5  MIQ B 502     -12.957  17.559  11.240  1.00139.53     0.031 A 
HETATM    6  C12 MIQ B 502     -13.078  16.380  10.395  1.00139.38     0.030 A 
HETATM    7  C13 MIQ B 502     -12.000  16.000   9.551  1.00141.18     0.019 A 
HETATM    8  C14 MIQ B 502     -10.748  16.807   9.529  1.00138.77     0.033 A 
HETATM    9  C15 MIQ B 502      -9.392  16.711   8.757  1.00142.10     0.195 A 
HETATM   10  N17 MIQ B 502      -8.663  17.734   9.170  1.00139.42    -0.288 N 
HETATM   11  O16 MIQ B 502      -9.029  15.738   7.823  1.00148.93    -0.171 OA
ENDROOT
BRANCH  10  12
HETATM   12  C18 MIQ B 502      -7.319  17.957   8.672  1.00139.82     0.187 C 
HETATM   13  C19 MIQ B 502      -7.382  17.952   7.139  1.00140.06     0.247 C 
HETATM   14  O25 MIQ B 502      -8.173  18.636   6.593  1.00143.95    -0.271 OA
HETATM   15  N20 MIQ B 502      -6.492  17.135   6.341  1.00140.02    -0.296 N 
HETATM   16  H13 MIQ B 502      -6.547  17.136   5.341  1.00142.77     0.171 HD
HETATM   17  C21 MIQ B 502      -5.541  16.301   7.030  1.00142.22     0.224 C 
HETATM   18  C22 MIQ B 502      -5.980  15.727   8.364  1.00139.52     0.106 C 
HETATM   19  O24 MIQ B 502      -4.471  16.080   6.580  1.00146.13    -0.273 OA
HETATM   20  C23 MIQ B 502      -6.362  16.909   9.237  1.00139.15     0.045 C 
ENDBRANCH  10  12
BRANCH   5  21
HETATM   21  N6  MIQ B 502     -14.045  17.951  12.117  1.00140.95    -0.377 N 
HETATM   22  C7  MIQ B 502     -14.632  16.946  12.987  1.00142.12     0.149 C 
HETATM   23  C8  MIQ B 502     -16.080  17.270  13.334  1.00144.10     0.187 C 
HETATM   24  O9  MIQ B 502     -16.257  18.592  13.745  1.00148.65    -0.388 OA
HETATM   25  C10 MIQ B 502     -15.225  19.523  13.602  1.00147.44     0.187 C 
HETATM   26  C11 MIQ B 502     -14.243  19.351  12.448  1.00144.08     0.149 C 
ENDBRANCH   5  21
TORSDOF 2
ENDMDL
MODEL 2
REMARK VINA RESULT:      -6.6     11.572     12.647
REMARK  2 active torsions:
REMARK  status: ('A' for Active; 'I' for Inactive)
REMARK    1  A    between atoms: C5_5  and  N6_21 
REMARK    2  A    between atoms: C18_14  and  N17_19 
ROOT
HETATM    1  O1  MIQ B 502     -16.384  11.304   2.351  1.00142.91    -0.171 OA
HETATM    2  C2  MIQ B 502     -16.489   9.925   2.543  1.00141.17     0.195 A 
HETATM    3  C3  MIQ B 502     -17.527   9.197   3.456  1.00141.71     0.035 A 
HETATM    4  C4  MIQ B 502     -18.629   9.673   4.326  1.00142.86     0.046 A 
HETATM    5  C5  MIQ B 502     -19.421   8.747   5.050  1.00139.53     0.031 A 
HETATM    6  C12 MIQ B 502     -19.151   7.321   4.937  1.00139.38     0.030 A 
HETATM    7  C13 MIQ B 502     -18.096   6.864   4.102  1.00141.18     0.019 A 
HETATM    8  C14 MIQ B 502     -17.268   7.841   3.342  1.00138.77     0.033 A 
HETATM    9  C15 MIQ B 502     -16.063   7.726   2.353  1.00142.10     0.195 A 
HETATM   10  N17 MIQ B 502     -15.757   8.965   2.004  1.00139.42    -0.288 N 
HETATM   11  O16 MIQ B 502     -15.439   6.551   1.929  1.00148.93    -0.171 OA
ENDROOT
BRANCH  10  12
HETATM   12  C18 MIQ B 502     -14.662   9.247   1.095  1.00139.82     0.187 C 
HETATM   13  C19 MIQ B 502     -13.748  10.278   1.770  1.00140.06     0.247 C 
HETATM   14  O25 MIQ B 502     -13.369  10.079   2.869  1.00143.95    -0.271 OA
HETATM   15  N20 MIQ B 502     -13.332  11.489   1.093  1.00140.02    -0.296 N 
HETATM   16  H13 MIQ B 502     -12.741  12.157   1.546  1.00142.77     0.171 HD
HETATM   17  C21 MIQ B 502     -13.818  11.714  -0.245  1.00142.22     0.224 C 
HETATM   18  C22 MIQ B 502     -15.209  11.201  -0.560  1.00139.52     0.106 C 
HETATM   19  O24 MIQ B 502     -13.159  12.268  -1.056  1.00146.13    -0.273 OA
HETATM   20  C23 MIQ B 502     -15.199   9.714  -0.257  1.00139.15     0.045 C 
ENDBRANCH  10  12
BRANCH   5  21
HETATM   21  N6  MIQ B 502     -20.487   9.228   5.910  1.00140.95    -0.377 N 
HETATM   22  C7  MIQ B 502     -20.463   8.864   7.316  1.00142.12     0.149 C 
HETATM   23  C8  MIQ B 502     -21.859   8.853   7.925  1.00144.10     0.187 C 
HETATM   24  O9  MIQ B 502     -22.595   9.999   7.618  1.00148.65    -0.388 OA
HETATM   25  C10 MIQ B 502     -22.129  10.903   6.660  1.00147.44     0.187 C 
HETATM   26  C11 MIQ B 502     -21.284  10.374   5.507  1.00144.08     0.149 C 
ENDBRANCH   5  21
TORSDOF 2
ENDMDL
MODEL 3
REMARK VINA RESULT:      -6.6     11.437     13.053
REMARK  2 active torsions:
REMARK  status: ('A' for Active; 'I' for Inactive)
REMARK    1  A    between atoms: C5_5  and  N6_21 
REMARK    2  A    between atoms: C18_14  and  N17_19 
ROOT
HETATM    1  O1  MIQ B 502     -17.839   6.669   2.870  1.00142.91    -0.171 OA
HETATM    2  C2  MIQ B 502     -17.639   7.790   3.680  1.00141.17     0.195 A 
HETATM    3  C3  MIQ B 502     -18.559   8.255   4.853  1.00141.71     0.035 A 
HETATM    4  C4  MIQ B 502     -19.812   7.722   5.439  1.00142.86     0.046 A 
HETATM    5  C5  MIQ B 502     -20.430   8.382   6.531  1.00139.53     0.031 A 
HETATM    6  C12 MIQ B 502     -19.829   9.589   7.080  1.00139.38     0.030 A 
HETATM    7  C13 MIQ B 502     -18.627  10.100   6.519  1.00141.18     0.019 A 
HETATM    8  C14 MIQ B 502     -17.982   9.402   5.374  1.00138.77     0.033 A 
HETATM    9  C15 MIQ B 502     -16.696   9.649   4.520  1.00142.10     0.195 A 
HETATM   10  N17 MIQ B 502     -16.653   8.669   3.632  1.00139.42    -0.288 N 
HETATM   11  O16 MIQ B 502     -15.783  10.694   4.667  1.00148.93    -0.171 OA
ENDROOT
BRANCH  10  12
HETATM   12  C18 MIQ B 502     -15.590   8.583   2.648  1.00139.82     0.187 C 
HETATM   13  C19 MIQ B 502     -14.253   8.666   3.396  1.00140.06     0.247 C 
HETATM   14  O25 MIQ B 502     -14.062   7.951   4.315  1.00143.95    -0.271 OA
HETATM   15  N20 MIQ B 502     -13.214   9.596   3.003  1.00140.02    -0.296 N 
HETATM   16  H13 MIQ B 502     -12.349   9.644   3.503  1.00142.77     0.171 HD
HETATM   17  C21 MIQ B 502     -13.475  10.465   1.885  1.00142.22     0.224 C 
HETATM   18  C22 MIQ B 502     -14.908  10.928   1.701  1.00139.52     0.106 C 
HETATM   19  O24 MIQ B 502     -12.615  10.797   1.145  1.00146.13    -0.273 OA
HETATM   20  C23 MIQ B 502     -15.755   9.673   1.590  1.00139.15     0.045 C 
ENDBRANCH  10  12
BRANCH   5  21
HETATM   21  N6  MIQ B 502     -21.665   7.858   7.085  1.00140.95    -0.377 N 
HETATM   22  C7  MIQ B 502     -22.209   8.479   8.281  1.00142.12     0.149 C 
HETATM   23  C8  MIQ B 502     -23.058   7.507   9.090  1.00144.10     0.187 C 
HETATM   24  O9  MIQ B 502     -23.980   6.809   8.308  1.00148.65    -0.388 OA
HETATM   25  C10 MIQ B 502     -23.915   6.870   6.913  1.00147.44     0.187 C 
HETATM   26  C11 MIQ B 502     -22.553   7.063   6.254  1.00144.08     0.149 C 
ENDBRANCH   5  21
TORSDOF 2
ENDMDL
MODEL 4
REMARK VINA RESULT:      -6.5     17.384     20.330
REMARK  2 active torsions:
REMARK  status: ('A' for Active; 'I' for Inactive)
REMARK    1  A    between atoms: C5_5  and  N6_21 
REMARK    2  A    between atoms: C18_14  and  N17_19 
ROOT
HETATM    1  O1  MIQ B 502     -16.548  12.399  27.873  1.00142.91    -0.171 OA
HETATM    2  C2  MIQ B 502     -17.104  11.724  26.784  1.00141.17     0.195 A 
HETATM    3  C3  MIQ B 502     -17.735  10.295  26.809  1.00141.71     0.035 A 
HETATM    4  C4  MIQ B 502     -17.934   9.288  27.878  1.00142.86     0.046 A 
HETATM    5  C5  MIQ B 502     -18.556   8.048  27.587  1.00139.53     0.031 A 
HETATM    6  C12 MIQ B 502     -19.000   7.763  26.230  1.00139.38     0.030 A 
HETATM    7  C13 MIQ B 502     -18.810   8.729  25.205  1.00141.18     0.019 A 
HETATM    8  C14 MIQ B 502     -18.159  10.030  25.517  1.00138.77     0.033 A 
HETATM    9  C15 MIQ B 502     -17.791  11.302  24.686  1.00142.10     0.195 A 
HETATM   10  N17 MIQ B 502     -17.219  12.140  25.535  1.00139.42    -0.288 N 
HETATM   11  O16 MIQ B 502     -18.019  11.505  23.324  1.00148.93    -0.171 OA
ENDROOT
BRANCH  10  12
HETATM   12  C18 MIQ B 502     -16.728  13.436  25.105  1.00139.82     0.187 C 
HETATM   13  C19 MIQ B 502     -15.289  13.583  25.613  1.00140.06     0.247 C 
HETATM   14  O25 MIQ B 502     -14.511  12.724  25.396  1.00143.95    -0.271 OA
HETATM   15  N20 MIQ B 502     -14.854  14.753  26.348  1.00140.02    -0.296 N 
HETATM   16  H13 MIQ B 502     -13.914  14.834  26.681  1.00142.77     0.171 HD
HETATM   17  C21 MIQ B 502     -15.825  15.785  26.610  1.00142.22     0.224 C 
HETATM   18  C22 MIQ B 502     -17.256  15.333  26.831  1.00139.52     0.106 C 
HETATM   19  O24 MIQ B 502     -15.520  16.926  26.644  1.00146.13    -0.273 OA
HETATM   20  C23 MIQ B 502     -17.656  14.546  25.596  1.00139.15     0.045 C 
ENDBRANCH  10  12
BRANCH   5  21
HETATM   21  N6  MIQ B 502     -18.732   7.065  28.640  1.00140.95    -0.377 N 
HETATM   22  C7  MIQ B 502     -17.620   6.187  28.965  1.00142.12     0.149 C 
HETATM   23  C8  MIQ B 502     -18.092   4.866  29.558  1.00144.10     0.187 C 
HETATM   24  O9  MIQ B 502     -19.037   5.033  30.573  1.00148.65    -0.388 OA
HETATM   25  C10 MIQ B 502     -19.614   6.284  30.804  1.00147.44     0.187 C 
HETATM   26  C11 MIQ B 502     -19.785   7.237  29.625  1.00144.08     0.149 C 
ENDBRANCH   5  21
TORSDOF 2
ENDMDL
MODEL 5
REMARK VINA RESULT:      -6.5     12.225     15.955
REMARK  2 active torsions:
REMARK  status: ('A' for Active; 'I' for Inactive)
REMARK    1  A    between atoms: C5_5  and  N6_21 
REMARK    2  A    between atoms: C18_14  and  N17_19 
ROOT
HETATM    1  O1  MIQ B 502     -20.425   8.872   7.896  1.00142.91    -0.171 OA
HETATM    2  C2  MIQ B 502     -20.595   8.252   6.657  1.00141.17     0.195 A 
HETATM    3  C3  MIQ B 502     -19.483   8.007   5.587  1.00141.71     0.035 A 
HETATM    4  C4  MIQ B 502     -18.034   8.313   5.535  1.00142.86     0.046 A 
HETATM    5  C5  MIQ B 502     -17.266   7.957   4.398  1.00139.53     0.031 A 
HETATM    6  C12 MIQ B 502     -17.906   7.285   3.276  1.00139.38     0.030 A 
HETATM    7  C13 MIQ B 502     -19.295   6.991   3.326  1.00141.18     0.019 A 
HETATM    8  C14 MIQ B 502     -20.096   7.365   4.523  1.00138.77     0.033 A 
HETATM    9  C15 MIQ B 502     -21.596   7.210   4.935  1.00142.10     0.195 A 
HETATM   10  N17 MIQ B 502     -21.702   7.748   6.138  1.00139.42    -0.288 N 
HETATM   11  O16 MIQ B 502     -22.614   6.625   4.179  1.00148.93    -0.171 OA
ENDROOT
BRANCH  10  12
HETATM   12  C18 MIQ B 502     -22.973   7.798   6.837  1.00139.82     0.187 C 
HETATM   13  C19 MIQ B 502     -23.193   9.242   7.306  1.00140.06     0.247 C 
HETATM   14  O25 MIQ B 502     -23.082  10.123   6.529  1.00143.95    -0.271 OA
HETATM   15  N20 MIQ B 502     -23.539   9.555   8.677  1.00140.02    -0.296 N 
HETATM   16  H13 MIQ B 502     -23.674  10.502   8.972  1.00142.77     0.171 HD
HETATM   17  C21 MIQ B 502     -23.658   8.463   9.609  1.00142.22     0.224 C 
HETATM   18  C22 MIQ B 502     -22.736   7.279   9.392  1.00139.52     0.106 C 
HETATM   19  O24 MIQ B 502     -24.441   8.489  10.494  1.00146.13    -0.273 OA
HETATM   20  C23 MIQ B 502     -22.992   6.785   7.980  1.00139.15     0.045 C 
ENDBRANCH  10  12
BRANCH   5  21
HETATM   21  N6  MIQ B 502     -15.851   8.276   4.355  1.00140.95    -0.377 N 
HETATM   22  C7  MIQ B 502     -15.206   8.739   5.572  1.00142.12     0.149 C 
HETATM   23  C8  MIQ B 502     -13.994   9.613   5.276  1.00144.10     0.187 C 
HETATM   24  O9  MIQ B 502     -13.140   9.055   4.323  1.00148.65    -0.388 OA
HETATM   25  C10 MIQ B 502     -13.535   7.932   3.591  1.00147.44     0.187 C 
HETATM   26  C11 MIQ B 502     -15.018   7.739   3.293  1.00144.08     0.149 C 
ENDBRANCH   5  21
TORSDOF 2
ENDMDL
MODEL 6
REMARK VINA RESULT:      -6.2     23.768     26.546
REMARK  2 active torsions:
REMARK  status: ('A' for Active; 'I' for Inactive)
REMARK    1  A    between atoms: C5_5  and  N6_21 
REMARK    2  A    between atoms: C18_14  and  N17_19 
ROOT
HETATM    1  O1  MIQ B 502     -14.338  -0.688  28.548  1.00142.91    -0.171 OA
HETATM    2  C2  MIQ B 502     -13.366   0.242  28.174  1.00141.17     0.195 A 
HETATM    3  C3  MIQ B 502     -11.912  -0.081  27.704  1.00141.71     0.035 A 
HETATM    4  C4  MIQ B 502     -11.159  -1.345  27.516  1.00142.86     0.046 A 
HETATM    5  C5  MIQ B 502      -9.816  -1.318  27.064  1.00139.53     0.031 A 
HETATM    6  C12 MIQ B 502      -9.173  -0.042  26.783  1.00139.38     0.030 A 
HETATM    7  C13 MIQ B 502      -9.895   1.169  26.962  1.00141.18     0.019 A 
HETATM    8  C14 MIQ B 502     -11.306   1.135  27.435  1.00138.77     0.033 A 
HETATM    9  C15 MIQ B 502     -12.390   2.220  27.738  1.00142.10     0.195 A 
HETATM   10  N17 MIQ B 502     -13.467   1.560  28.132  1.00139.42    -0.288 N 
HETATM   11  O16 MIQ B 502     -12.245   3.603  27.618  1.00148.93    -0.171 OA
ENDROOT
BRANCH  10  12
HETATM   12  C18 MIQ B 502     -14.682   2.254  28.516  1.00139.82     0.187 C 
HETATM   13  C19 MIQ B 502     -15.104   1.729  29.894  1.00140.06     0.247 C 
HETATM   14  O25 MIQ B 502     -14.314   1.707  30.769  1.00143.95    -0.271 OA
HETATM   15  N20 MIQ B 502     -16.451   1.263  30.154  1.00140.02    -0.296 N 
HETATM   16  H13 MIQ B 502     -16.713   0.917  31.056  1.00142.77     0.171 HD
HETATM   17  C21 MIQ B 502     -17.395   1.289  29.066  1.00142.22     0.224 C 
HETATM   18  C22 MIQ B 502     -16.842   1.035  27.677  1.00139.52     0.106 C 
HETATM   19  O24 MIQ B 502     -18.543   1.505  29.250  1.00146.13    -0.273 OA
HETATM   20  C23 MIQ B 502     -15.759   2.072  27.448  1.00139.15     0.045 C 
ENDBRANCH  10  12
BRANCH   5  21
HETATM   21  N6  MIQ B 502      -9.086  -2.562  26.899  1.00140.95    -0.377 N 
HETATM   22  C7  MIQ B 502      -8.046  -2.890  27.859  1.00142.12     0.149 C 
HETATM   23  C8  MIQ B 502      -6.983  -3.799  27.257  1.00144.10     0.187 C 
HETATM   24  O9  MIQ B 502      -7.524  -4.886  26.568  1.00148.65    -0.388 OA
HETATM   25  C10 MIQ B 502      -8.894  -4.943  26.298  1.00147.44     0.187 C 
HETATM   26  C11 MIQ B 502      -9.653  -3.635  26.100  1.00144.08     0.149 C 
ENDBRANCH   5  21
TORSDOF 2
ENDMDL
MODEL 7
REMARK VINA RESULT:      -6.1     11.670     13.283
REMARK  2 active torsions:
REMARK  status: ('A' for Active; 'I' for Inactive)
REMARK    1  A    between atoms: C5_5  and  N6_21 
REMARK    2  A    between atoms: C18_14  and  N17_19 
ROOT
HETATM    1  O1  MIQ B 502     -18.280  10.915   7.415  1.00142.91    -0.171 OA
HETATM    2  C2  MIQ B 502     -18.540   9.895   6.497  1.00141.17     0.195 A 
HETATM    3  C3  MIQ B 502     -19.804   8.978   6.470  1.00141.71     0.035 A 
HETATM    4  C4  MIQ B 502     -21.020   8.893   7.313  1.00142.86     0.046 A 
HETATM    5  C5  MIQ B 502     -22.022   7.931   7.032  1.00139.53     0.031 A 
HETATM    6  C12 MIQ B 502     -21.855   7.021   5.907  1.00139.38     0.030 A 
HETATM    7  C13 MIQ B 502     -20.690   7.103   5.097  1.00141.18     0.019 A 
HETATM    8  C14 MIQ B 502     -19.642   8.117   5.396  1.00138.77     0.033 A 
HETATM    9  C15 MIQ B 502     -18.270   8.502   4.753  1.00142.10     0.195 A 
HETATM   10  N17 MIQ B 502     -17.794   9.501   5.479  1.00139.42    -0.288 N 
HETATM   11  O16 MIQ B 502     -17.672   7.908   3.641  1.00148.93    -0.171 OA
ENDROOT
BRANCH  10  12
HETATM   12  C18 MIQ B 502     -16.512  10.111   5.179  1.00139.82     0.187 C 
HETATM   13  C19 MIQ B 502     -16.530  10.538   3.706  1.00140.06     0.247 C 
HETATM   14  O25 MIQ B 502     -17.431  11.186   3.305  1.00143.95    -0.271 OA
HETATM   15  N20 MIQ B 502     -15.468  10.172   2.792  1.00140.02    -0.296 N 
HETATM   16  H13 MIQ B 502     -15.495  10.451   1.831  1.00142.77     0.171 HD
HETATM   17  C21 MIQ B 502     -14.384   9.372   3.303  1.00142.22     0.224 C 
HETATM   18  C22 MIQ B 502     -14.731   8.365   4.382  1.00139.52     0.106 C 
HETATM   19  O24 MIQ B 502     -13.280   9.500   2.902  1.00146.13    -0.273 OA
HETATM   20  C23 MIQ B 502     -15.374   9.148   5.512  1.00139.15     0.045 C 
ENDBRANCH  10  12
BRANCH   5  21
HETATM   21  N6  MIQ B 502     -23.200   7.849   7.875  1.00140.95    -0.377 N 
HETATM   22  C7  MIQ B 502     -24.053   6.678   7.766  1.00142.12     0.149 C 
HETATM   23  C8  MIQ B 502     -25.491   6.982   8.165  1.00144.10     0.187 C 
HETATM   24  O9  MIQ B 502     -25.585   7.678   9.372  1.00148.65    -0.388 OA
HETATM   25  C10 MIQ B 502     -24.441   8.210   9.972  1.00147.44     0.187 C 
HETATM   26  C11 MIQ B 502     -23.289   8.658   9.078  1.00144.08     0.149 C 
ENDBRANCH   5  21
TORSDOF 2
ENDMDL
MODEL 8
REMARK VINA RESULT:      -6.1     16.574     20.563
REMARK  2 active torsions:
REMARK  status: ('A' for Active; 'I' for Inactive)
REMARK    1  A    between atoms: C5_5  and  N6_21 
REMARK    2  A    between atoms: C18_14  and  N17_19 
ROOT
HETATM    1  O1  MIQ B 502     -17.803  11.479  29.196  1.00142.91    -0.171 OA
HETATM    2  C2  MIQ B 502     -17.830  11.057  27.865  1.00141.17     0.195 A 
HETATM    3  C3  MIQ B 502     -18.448   9.725  27.333  1.00141.71     0.035 A 
HETATM    4  C4  MIQ B 502     -19.138   8.588  27.988  1.00142.86     0.046 A 
HETATM    5  C5  MIQ B 502     -19.600   7.491  27.218  1.00139.53     0.031 A 
HETATM    6  C12 MIQ B 502     -19.395   7.481  25.777  1.00139.38     0.030 A 
HETATM    7  C13 MIQ B 502     -18.733   8.571  25.149  1.00141.18     0.019 A 
HETATM    8  C14 MIQ B 502     -18.253   9.722  25.961  1.00138.77     0.033 A 
HETATM    9  C15 MIQ B 502     -17.511  11.060  25.640  1.00142.10     0.195 A 
HETATM   10  N17 MIQ B 502     -17.357  11.679  26.799  1.00139.42    -0.288 N 
HETATM   11  O16 MIQ B 502     -17.095  11.505  24.384  1.00148.93    -0.171 OA
ENDROOT
BRANCH  10  12
HETATM   12  C18 MIQ B 502     -16.685  12.962  26.889  1.00139.82     0.187 C 
HETATM   13  C19 MIQ B 502     -17.355  13.912  25.888  1.00140.06     0.247 C 
HETATM   14  O25 MIQ B 502     -18.529  14.028  25.901  1.00143.95    -0.271 OA
HETATM   15  N20 MIQ B 502     -16.586  14.678  24.929  1.00140.02    -0.296 N 
HETATM   16  H13 MIQ B 502     -17.035  15.289  24.277  1.00142.77     0.171 HD
HETATM   17  C21 MIQ B 502     -15.155  14.511  24.926  1.00142.22     0.224 C 
HETATM   18  C22 MIQ B 502     -14.628  13.133  25.277  1.00139.52     0.106 C 
HETATM   19  O24 MIQ B 502     -14.429  15.407  24.666  1.00146.13    -0.273 OA
HETATM   20  C23 MIQ B 502     -15.186  12.795  26.648  1.00139.15     0.045 C 
ENDBRANCH  10  12
BRANCH   5  21
HETATM   21  N6  MIQ B 502     -20.262   6.378  27.875  1.00140.95    -0.377 N 
HETATM   22  C7  MIQ B 502     -21.703   6.430  28.046  1.00142.12     0.149 C 
HETATM   23  C8  MIQ B 502     -22.164   5.606  29.241  1.00144.10     0.187 C 
HETATM   24  O9  MIQ B 502     -21.606   4.326  29.267  1.00148.65    -0.388 OA
HETATM   25  C10 MIQ B 502     -20.567   3.990  28.395  1.00147.44     0.187 C 
HETATM   26  C11 MIQ B 502     -19.603   5.085  27.952  1.00144.08     0.149 C 
ENDBRANCH   5  21
TORSDOF 2
ENDMDL
MODEL 9
REMARK VINA RESULT:      -6.0     12.318     14.046
REMARK  2 active torsions:
REMARK  status: ('A' for Active; 'I' for Inactive)
REMARK    1  A    between atoms: C5_5  and  N6_21 
REMARK    2  A    between atoms: C18_14  and  N17_19 
ROOT
HETATM    1  O1  MIQ B 502     -17.738   8.971   6.411  1.00142.91    -0.171 OA
HETATM    2  C2  MIQ B 502     -18.596   8.391   5.475  1.00141.17     0.195 A 
HETATM    3  C3  MIQ B 502     -20.112   8.077   5.683  1.00141.71     0.035 A 
HETATM    4  C4  MIQ B 502     -21.046   8.270   6.817  1.00142.86     0.046 A 
HETATM    5  C5  MIQ B 502     -22.403   7.875   6.704  1.00139.53     0.031 A 
HETATM    6  C12 MIQ B 502     -22.880   7.277   5.465  1.00139.38     0.030 A 
HETATM    7  C13 MIQ B 502     -21.985   7.093   4.377  1.00141.18     0.019 A 
HETATM    8  C14 MIQ B 502     -20.562   7.512   4.501  1.00138.77     0.033 A 
HETATM    9  C15 MIQ B 502     -19.319   7.476   3.553  1.00142.10     0.195 A 
HETATM   10  N17 MIQ B 502     -18.319   8.000   4.243  1.00139.42    -0.288 N 
HETATM   11  O16 MIQ B 502     -19.278   6.986   2.247  1.00148.93    -0.171 OA
ENDROOT
BRANCH  10  12
HETATM   12  C18 MIQ B 502     -16.988   8.115   3.677  1.00139.82     0.187 C 
HETATM   13  C19 MIQ B 502     -16.086   7.101   4.393  1.00140.06     0.247 C 
HETATM   14  O25 MIQ B 502     -16.435   5.977   4.473  1.00143.95    -0.271 OA
HETATM   15  N20 MIQ B 502     -14.813   7.484   4.969  1.00140.02    -0.296 N 
HETATM   16  H13 MIQ B 502     -14.237   6.814   5.439  1.00142.77     0.171 HD
HETATM   17  C21 MIQ B 502     -14.415   8.864   4.866  1.00142.22     0.224 C 
HETATM   18  C22 MIQ B 502     -15.523   9.899   4.914  1.00139.52     0.106 C 
HETATM   19  O24 MIQ B 502     -13.280   9.173   4.746  1.00146.13    -0.273 OA
HETATM   20  C23 MIQ B 502     -16.484   9.553   3.791  1.00139.15     0.045 C 
ENDBRANCH  10  12
BRANCH   5  21
HETATM   21  N6  MIQ B 502     -23.303   8.056   7.828  1.00140.95    -0.377 N 
HETATM   22  C7  MIQ B 502     -24.713   7.758   7.644  1.00142.12     0.149 C 
HETATM   23  C8  MIQ B 502     -25.592   8.558   8.596  1.00144.10     0.187 C 
HETATM   24  O9  MIQ B 502     -25.141   8.518   9.916  1.00148.65    -0.388 OA
HETATM   25  C10 MIQ B 502     -23.887   7.982  10.220  1.00147.44     0.187 C 
HETATM   26  C11 MIQ B 502     -22.776   8.093   9.181  1.00144.08     0.149 C 
ENDBRANCH   5  21
TORSDOF 2
ENDMDL
