MODEL 1
REMARK VINA RESULT:      -7.6      0.000      0.000
REMARK  2 active torsions:
REMARK  status: ('A' for Active; 'I' for Inactive)
REMARK    1  A    between atoms: C5_5  and  N6_21 
REMARK    2  A    between atoms: C18_14  and  N17_19 
ROOT
HETATM    1  O1  MIQ B 502      16.031  -3.863   6.438  1.00142.91    -0.171 OA
HETATM    2  C2  MIQ B 502      15.527  -3.485   7.684  1.00141.17     0.195 A 
HETATM    3  C3  MIQ B 502      15.117  -2.041   8.114  1.00141.71     0.035 A 
HETATM    4  C4  MIQ B 502      15.121  -0.731   7.420  1.00142.86     0.046 A 
HETATM    5  C5  MIQ B 502      14.676   0.436   8.090  1.00139.53     0.031 A 
HETATM    6  C12 MIQ B 502      14.212   0.347   9.467  1.00139.38     0.030 A 
HETATM    7  C13 MIQ B 502      14.207  -0.909  10.132  1.00141.18     0.019 A 
HETATM    8  C14 MIQ B 502      14.673  -2.132   9.423  1.00138.77     0.033 A 
HETATM    9  C15 MIQ B 502      14.807  -3.641   9.808  1.00142.10     0.195 A 
HETATM   10  N17 MIQ B 502      15.289  -4.249   8.737  1.00139.42    -0.288 N 
HETATM   11  O16 MIQ B 502      14.484  -4.223  11.035  1.00148.93    -0.171 OA
ENDROOT
BRANCH  10  12
HETATM   12  C18 MIQ B 502      15.561  -5.675   8.733  1.00139.82     0.187 C 
HETATM   13  C19 MIQ B 502      17.001  -5.875   8.244  1.00140.06     0.247 C 
HETATM   14  O25 MIQ B 502      17.872  -5.262   8.750  1.00143.95    -0.271 OA
HETATM   15  N20 MIQ B 502      17.323  -6.802   7.178  1.00140.02    -0.296 N 
HETATM   16  H13 MIQ B 502      18.266  -6.919   6.864  1.00142.77     0.171 HD
HETATM   17  C21 MIQ B 502      16.242  -7.531   6.569  1.00142.22     0.224 C 
HETATM   18  C22 MIQ B 502      14.908  -6.815   6.468  1.00139.52     0.106 C 
HETATM   19  O24 MIQ B 502      16.387  -8.635   6.172  1.00146.13    -0.273 OA
HETATM   20  C23 MIQ B 502      14.529  -6.411   7.881  1.00139.15     0.045 C 
ENDBRANCH  10  12
BRANCH   5  21
HETATM   21  N6  MIQ B 502      14.700   1.715   7.403  1.00140.95    -0.377 N 
HETATM   22  C7  MIQ B 502      14.193   1.783   6.044  1.00142.12     0.149 C 
HETATM   23  C8  MIQ B 502      14.835   2.915   5.253  1.00144.10     0.187 C 
HETATM   24  O9  MIQ B 502      14.844   4.126   5.948  1.00148.65    -0.388 OA
HETATM   25  C10 MIQ B 502      14.501   4.168   7.302  1.00147.44     0.187 C 
HETATM   26  C11 MIQ B 502      14.797   2.947   8.167  1.00144.08     0.149 C 
ENDBRANCH   5  21
TORSDOF 2
ENDMDL
MODEL 2
REMARK VINA RESULT:      -7.3      2.168      7.824
REMARK  2 active torsions:
REMARK  status: ('A' for Active; 'I' for Inactive)
REMARK    1  A    between atoms: C5_5  and  N6_21 
REMARK    2  A    between atoms: C18_14  and  N17_19 
ROOT
HETATM    1  O1  MIQ B 502      16.270   0.114   5.660  1.00142.91    -0.171 OA
HETATM    2  C2  MIQ B 502      15.623   0.504   6.835  1.00141.17     0.195 A 
HETATM    3  C3  MIQ B 502      15.121  -0.444   7.970  1.00141.71     0.035 A 
HETATM    4  C4  MIQ B 502      15.161  -1.913   8.162  1.00142.86     0.046 A 
HETATM    5  C5  MIQ B 502      14.609  -2.498   9.330  1.00139.53     0.031 A 
HETATM    6  C12 MIQ B 502      14.001  -1.650  10.345  1.00139.38     0.030 A 
HETATM    7  C13 MIQ B 502      13.964  -0.241  10.161  1.00141.18     0.019 A 
HETATM    8  C14 MIQ B 502      14.547   0.367   8.935  1.00138.77     0.033 A 
HETATM    9  C15 MIQ B 502      14.695   1.828   8.396  1.00142.10     0.195 A 
HETATM   10  N17 MIQ B 502      15.311   1.727   7.230  1.00139.42    -0.288 N 
HETATM   11  O16 MIQ B 502      14.259   2.997   9.021  1.00148.93    -0.171 OA
ENDROOT
BRANCH  10  12
HETATM   12  C18 MIQ B 502      15.606   2.897   6.425  1.00139.82     0.187 C 
HETATM   13  C19 MIQ B 502      15.067   2.641   5.012  1.00140.06     0.247 C 
HETATM   14  O25 MIQ B 502      13.950   2.284   4.878  1.00143.95    -0.271 OA
HETATM   15  N20 MIQ B 502      15.889   2.831   3.835  1.00140.02    -0.296 N 
HETATM   16  H13 MIQ B 502      15.527   2.654   2.918  1.00142.77     0.171 HD
HETATM   17  C21 MIQ B 502      17.251   3.258   4.025  1.00142.22     0.224 C 
HETATM   18  C22 MIQ B 502      17.953   2.758   5.273  1.00139.52     0.106 C 
HETATM   19  O24 MIQ B 502      17.791   3.967   3.249  1.00146.13    -0.273 OA
HETATM   20  C23 MIQ B 502      17.103   3.198   6.451  1.00139.15     0.045 C 
ENDBRANCH  10  12
BRANCH   5  21
HETATM   21  N6  MIQ B 502      14.641  -3.940   9.498  1.00140.95    -0.377 N 
HETATM   22  C7  MIQ B 502      15.163  -4.754   8.414  1.00142.12     0.149 C 
HETATM   23  C8  MIQ B 502      14.572  -6.158   8.423  1.00144.10     0.187 C 
HETATM   24  O9  MIQ B 502      14.605  -6.754   9.685  1.00148.65    -0.388 OA
HETATM   25  C10 MIQ B 502      14.936  -6.000  10.814  1.00147.44     0.187 C 
HETATM   26  C11 MIQ B 502      14.586  -4.516  10.830  1.00144.08     0.149 C 
ENDBRANCH   5  21
TORSDOF 2
ENDMDL
MODEL 3
REMARK VINA RESULT:      -7.3      1.424      1.841
REMARK  2 active torsions:
REMARK  status: ('A' for Active; 'I' for Inactive)
REMARK    1  A    between atoms: C5_5  and  N6_21 
REMARK    2  A    between atoms: C18_14  and  N17_19 
ROOT
HETATM    1  O1  MIQ B 502      17.180  -3.341   5.973  1.00142.91    -0.171 OA
HETATM    2  C2  MIQ B 502      16.235  -3.299   7.001  1.00141.17     0.195 A 
HETATM    3  C3  MIQ B 502      15.476  -2.030   7.505  1.00141.71     0.035 A 
HETATM    4  C4  MIQ B 502      15.499  -0.603   7.105  1.00142.86     0.046 A 
HETATM    5  C5  MIQ B 502      14.673   0.340   7.767  1.00139.53     0.031 A 
HETATM    6  C12 MIQ B 502      13.798  -0.098   8.845  1.00139.38     0.030 A 
HETATM    7  C13 MIQ B 502      13.775  -1.466   9.228  1.00141.18     0.019 A 
HETATM    8  C14 MIQ B 502      14.643  -2.452   8.528  1.00138.77     0.033 A 
HETATM    9  C15 MIQ B 502      14.885  -3.991   8.659  1.00142.10     0.195 A 
HETATM   10  N17 MIQ B 502      15.789  -4.298   7.743  1.00139.42    -0.288 N 
HETATM   11  O16 MIQ B 502      14.271  -4.860   9.563  1.00148.93    -0.171 OA
ENDROOT
BRANCH  10  12
HETATM   12  C18 MIQ B 502      16.274  -5.656   7.583  1.00139.82     0.187 C 
HETATM   13  C19 MIQ B 502      15.071  -6.546   7.248  1.00140.06     0.247 C 
HETATM   14  O25 MIQ B 502      14.348  -6.231   6.371  1.00143.95    -0.271 OA
HETATM   15  N20 MIQ B 502      14.800  -7.769   7.976  1.00140.02    -0.296 N 
HETATM   16  H13 MIQ B 502      14.008  -8.338   7.752  1.00142.77     0.171 HD
HETATM   17  C21 MIQ B 502      15.692  -8.127   9.049  1.00142.22     0.224 C 
HETATM   18  C22 MIQ B 502      16.300  -6.985   9.839  1.00139.52     0.106 C 
HETATM   19  O24 MIQ B 502      15.940  -9.256   9.296  1.00146.13    -0.273 OA
HETATM   20  C23 MIQ B 502      17.023  -6.104   8.837  1.00139.15     0.045 C 
ENDBRANCH  10  12
BRANCH   5  21
HETATM   21  N6  MIQ B 502      14.716   1.737   7.375  1.00140.95    -0.377 N 
HETATM   22  C7  MIQ B 502      14.308   2.092   6.026  1.00142.12     0.149 C 
HETATM   23  C8  MIQ B 502      14.979   3.374   5.549  1.00144.10     0.187 C 
HETATM   24  O9  MIQ B 502      14.906   4.407   6.486  1.00148.65    -0.388 OA
HETATM   25  C10 MIQ B 502      14.465   4.152   7.787  1.00147.44     0.187 C 
HETATM   26  C11 MIQ B 502      14.726   2.775   8.390  1.00144.08     0.149 C 
ENDBRANCH   5  21
TORSDOF 2
ENDMDL
MODEL 4
REMARK VINA RESULT:      -7.2      2.197      7.905
REMARK  2 active torsions:
REMARK  status: ('A' for Active; 'I' for Inactive)
REMARK    1  A    between atoms: C5_5  and  N6_21 
REMARK    2  A    between atoms: C18_14  and  N17_19 
ROOT
HETATM    1  O1  MIQ B 502      16.538   0.164   5.633  1.00142.91    -0.171 OA
HETATM    2  C2  MIQ B 502      15.827   0.551   6.771  1.00141.17     0.195 A 
HETATM    3  C3  MIQ B 502      15.310  -0.395   7.901  1.00141.71     0.035 A 
HETATM    4  C4  MIQ B 502      15.393  -1.859   8.123  1.00142.86     0.046 A 
HETATM    5  C5  MIQ B 502      14.812  -2.443   9.277  1.00139.53     0.031 A 
HETATM    6  C12 MIQ B 502      14.131  -1.600  10.248  1.00139.38     0.030 A 
HETATM    7  C13 MIQ B 502      14.051  -0.197  10.037  1.00141.18     0.019 A 
HETATM    8  C14 MIQ B 502      14.665   0.411   8.825  1.00138.77     0.033 A 
HETATM    9  C15 MIQ B 502      14.783   1.866   8.265  1.00142.10     0.195 A 
HETATM   10  N17 MIQ B 502      15.453   1.767   7.129  1.00139.42    -0.288 N 
HETATM   11  O16 MIQ B 502      14.279   3.030   8.849  1.00148.93    -0.171 OA
ENDROOT
BRANCH  10  12
HETATM   12  C18 MIQ B 502      15.741   2.934   6.315  1.00139.82     0.187 C 
HETATM   13  C19 MIQ B 502      15.260   2.638   4.889  1.00140.06     0.247 C 
HETATM   14  O25 MIQ B 502      14.161   2.244   4.721  1.00143.95    -0.271 OA
HETATM   15  N20 MIQ B 502      16.118   2.835   3.738  1.00140.02    -0.296 N 
HETATM   16  H13 MIQ B 502      15.795   2.633   2.812  1.00142.77     0.171 HD
HETATM   17  C21 MIQ B 502      17.459   3.307   3.969  1.00142.22     0.224 C 
HETATM   18  C22 MIQ B 502      18.131   2.850   5.249  1.00139.52     0.106 C 
HETATM   19  O24 MIQ B 502      18.004   4.020   3.200  1.00146.13    -0.273 OA
HETATM   20  C23 MIQ B 502      17.227   3.281   6.389  1.00139.15     0.045 C 
ENDBRANCH  10  12
BRANCH   5  21
HETATM   21  N6  MIQ B 502      14.889  -3.879   9.474  1.00140.95    -0.377 N 
HETATM   22  C7  MIQ B 502      14.622  -4.414  10.798  1.00142.12     0.149 C 
HETATM   23  C8  MIQ B 502      15.332  -5.741  11.029  1.00144.10     0.187 C 
HETATM   24  O9  MIQ B 502      15.158  -6.641   9.976  1.00148.65    -0.388 OA
HETATM   25  C10 MIQ B 502      14.585  -6.221   8.773  1.00147.44     0.187 C 
HETATM   26  C11 MIQ B 502      14.789  -4.774   8.334  1.00144.08     0.149 C 
ENDBRANCH   5  21
TORSDOF 2
ENDMDL
MODEL 5
REMARK VINA RESULT:      -7.0      2.395      8.208
REMARK  2 active torsions:
REMARK  status: ('A' for Active; 'I' for Inactive)
REMARK    1  A    between atoms: C5_5  and  N6_21 
REMARK    2  A    between atoms: C18_14  and  N17_19 
ROOT
HETATM    1  O1  MIQ B 502      14.911   0.135   7.600  1.00142.91    -0.171 OA
HETATM    2  C2  MIQ B 502      15.571  -0.607   6.618  1.00141.17     0.195 A 
HETATM    3  C3  MIQ B 502      15.717  -2.162   6.580  1.00141.71     0.035 A 
HETATM    4  C4  MIQ B 502      15.254  -3.251   7.472  1.00142.86     0.046 A 
HETATM    5  C5  MIQ B 502      15.549  -4.604   7.165  1.00139.53     0.031 A 
HETATM    6  C12 MIQ B 502      16.310  -4.923   5.966  1.00139.38     0.030 A 
HETATM    7  C13 MIQ B 502      16.753  -3.879   5.109  1.00141.18     0.019 A 
HETATM    8  C14 MIQ B 502      16.439  -2.461   5.436  1.00138.77     0.033 A 
HETATM    9  C15 MIQ B 502      16.741  -1.084   4.759  1.00142.10     0.195 A 
HETATM   10  N17 MIQ B 502      16.191  -0.167   5.537  1.00139.42    -0.288 N 
HETATM   11  O16 MIQ B 502      17.451  -0.873   3.576  1.00148.93    -0.171 OA
ENDROOT
BRANCH  10  12
HETATM   12  C18 MIQ B 502      16.286   1.247   5.224  1.00139.82     0.187 C 
HETATM   13  C19 MIQ B 502      16.831   1.965   6.465  1.00140.06     0.247 C 
HETATM   14  O25 MIQ B 502      17.813   1.561   6.980  1.00143.95    -0.271 OA
HETATM   15  N20 MIQ B 502      16.177   3.132   7.021  1.00140.02    -0.296 N 
HETATM   16  H13 MIQ B 502      16.539   3.587   7.836  1.00142.77     0.171 HD
HETATM   17  C21 MIQ B 502      14.975   3.600   6.382  1.00142.22     0.224 C 
HETATM   18  C22 MIQ B 502      14.077   2.546   5.763  1.00139.52     0.106 C 
HETATM   19  O24 MIQ B 502      14.706   4.750   6.338  1.00146.13    -0.273 OA
HETATM   20  C23 MIQ B 502      14.931   1.783   4.767  1.00139.15     0.045 C 
ENDBRANCH  10  12
BRANCH   5  21
HETATM   21  N6  MIQ B 502      15.102  -5.659   8.056  1.00140.95    -0.377 N 
HETATM   22  C7  MIQ B 502      14.538  -5.290   9.342  1.00142.12     0.149 C 
HETATM   23  C8  MIQ B 502      14.716  -6.392  10.379  1.00144.10     0.187 C 
HETATM   24  O9  MIQ B 502      14.343  -7.651   9.903  1.00148.65    -0.388 OA
HETATM   25  C10 MIQ B 502      14.073  -7.843   8.546  1.00147.44     0.187 C 
HETATM   26  C11 MIQ B 502      14.809  -6.979   7.526  1.00144.08     0.149 C 
ENDBRANCH   5  21
TORSDOF 2
ENDMDL
MODEL 6
REMARK VINA RESULT:      -7.0      1.663      2.562
REMARK  2 active torsions:
REMARK  status: ('A' for Active; 'I' for Inactive)
REMARK    1  A    between atoms: C5_5  and  N6_21 
REMARK    2  A    between atoms: C18_14  and  N17_19 
ROOT
HETATM    1  O1  MIQ B 502      14.319  -3.812  11.314  1.00142.91    -0.171 OA
HETATM    2  C2  MIQ B 502      14.803  -3.946  10.011  1.00141.17     0.195 A 
HETATM    3  C3  MIQ B 502      15.063  -2.783   9.001  1.00141.71     0.035 A 
HETATM    4  C4  MIQ B 502      14.904  -1.312   9.077  1.00142.86     0.046 A 
HETATM    5  C5  MIQ B 502      15.233  -0.496   7.965  1.00139.53     0.031 A 
HETATM    6  C12 MIQ B 502      15.731  -1.109   6.742  1.00139.38     0.030 A 
HETATM    7  C13 MIQ B 502      15.885  -2.520   6.669  1.00141.18     0.019 A 
HETATM    8  C14 MIQ B 502      15.540  -3.371   7.840  1.00138.77     0.033 A 
HETATM    9  C15 MIQ B 502      15.577  -4.906   8.132  1.00142.10     0.195 A 
HETATM   10  N17 MIQ B 502      15.142  -5.053   9.373  1.00139.42    -0.288 N 
HETATM   11  O16 MIQ B 502      15.985  -5.914   7.257  1.00148.93    -0.171 OA
ENDROOT
BRANCH  10  12
HETATM   12  C18 MIQ B 502      15.025  -6.363   9.985  1.00139.82     0.187 C 
HETATM   13  C19 MIQ B 502      16.386  -7.060   9.861  1.00140.06     0.247 C 
HETATM   14  O25 MIQ B 502      17.358  -6.494  10.216  1.00143.95    -0.271 OA
HETATM   15  N20 MIQ B 502      16.511  -8.400   9.325  1.00140.02    -0.296 N 
HETATM   16  H13 MIQ B 502      17.406  -8.841   9.243  1.00142.77     0.171 HD
HETATM   17  C21 MIQ B 502      15.312  -9.067   8.889  1.00142.22     0.224 C 
HETATM   18  C22 MIQ B 502      14.225  -8.194   8.292  1.00139.52     0.106 C 
HETATM   19  O24 MIQ B 502      15.181 -10.237   8.997  1.00146.13    -0.273 OA
HETATM   20  C23 MIQ B 502      13.885  -7.151   9.342  1.00139.15     0.045 C 
ENDBRANCH  10  12
BRANCH   5  21
HETATM   21  N6  MIQ B 502      15.058   0.942   8.049  1.00140.95    -0.377 N 
HETATM   22  C7  MIQ B 502      14.876   1.692   6.818  1.00142.12     0.149 C 
HETATM   23  C8  MIQ B 502      15.341   3.136   6.958  1.00144.10     0.187 C 
HETATM   24  O9  MIQ B 502      14.856   3.755   8.112  1.00148.65    -0.388 OA
HETATM   25  C10 MIQ B 502      14.217   3.004   9.102  1.00147.44     0.187 C 
HETATM   26  C11 MIQ B 502      14.633   1.550   9.298  1.00144.08     0.149 C 
ENDBRANCH   5  21
TORSDOF 2
ENDMDL
MODEL 7
REMARK VINA RESULT:      -6.9      2.146      8.032
REMARK  2 active torsions:
REMARK  status: ('A' for Active; 'I' for Inactive)
REMARK    1  A    between atoms: C5_5  and  N6_21 
REMARK    2  A    between atoms: C18_14  and  N17_19 
ROOT
HETATM    1  O1  MIQ B 502      16.641  -2.185   4.553  1.00142.91    -0.171 OA
HETATM    2  C2  MIQ B 502      16.026  -1.957   5.787  1.00141.17     0.195 A 
HETATM    3  C3  MIQ B 502      15.552  -3.050   6.796  1.00141.71     0.035 A 
HETATM    4  C4  MIQ B 502      15.594  -4.532   6.788  1.00142.86     0.046 A 
HETATM    5  C5  MIQ B 502      15.072  -5.270   7.881  1.00139.53     0.031 A 
HETATM    6  C12 MIQ B 502      14.493  -4.567   9.016  1.00139.38     0.030 A 
HETATM    7  C13 MIQ B 502      14.454  -3.146   9.025  1.00141.18     0.019 A 
HETATM    8  C14 MIQ B 502      15.006  -2.377   7.877  1.00138.77     0.033 A 
HETATM    9  C15 MIQ B 502      15.141  -0.857   7.536  1.00142.10     0.195 A 
HETATM   10  N17 MIQ B 502      15.727  -0.800   6.351  1.00139.42    -0.288 N 
HETATM   11  O16 MIQ B 502      14.725   0.217   8.324  1.00148.93    -0.171 OA
ENDROOT
BRANCH  10  12
HETATM   12  C18 MIQ B 502      16.002   0.469   5.703  1.00139.82     0.187 C 
HETATM   13  C19 MIQ B 502      16.729   1.363   6.715  1.00140.06     0.247 C 
HETATM   14  O25 MIQ B 502      17.676   0.942   7.279  1.00143.95    -0.271 OA
HETATM   15  N20 MIQ B 502      16.290   2.715   6.994  1.00140.02    -0.296 N 
HETATM   16  H13 MIQ B 502      16.769   3.286   7.662  1.00142.77     0.171 HD
HETATM   17  C21 MIQ B 502      15.126   3.202   6.301  1.00142.22     0.224 C 
HETATM   18  C22 MIQ B 502      14.045   2.186   5.985  1.00139.52     0.106 C 
HETATM   19  O24 MIQ B 502      15.022   4.338   5.989  1.00146.13    -0.273 OA
HETATM   20  C23 MIQ B 502      14.709   1.088   5.175  1.00139.15     0.045 C 
ENDBRANCH  10  12
BRANCH   5  21
HETATM   21  N6  MIQ B 502      15.106  -6.721   7.852  1.00140.95    -0.377 N 
HETATM   22  C7  MIQ B 502      14.963  -7.443   9.105  1.00142.12     0.149 C 
HETATM   23  C8  MIQ B 502      15.635  -8.810   9.052  1.00144.10     0.187 C 
HETATM   24  O9  MIQ B 502      15.305  -9.534   7.905  1.00148.65    -0.388 OA
HETATM   25  C10 MIQ B 502      14.621  -8.919   6.852  1.00147.44     0.187 C 
HETATM   26  C11 MIQ B 502      14.840  -7.429   6.612  1.00144.08     0.149 C 
ENDBRANCH   5  21
TORSDOF 2
ENDMDL
MODEL 8
REMARK VINA RESULT:      -6.7      1.962      3.251
REMARK  2 active torsions:
REMARK  status: ('A' for Active; 'I' for Inactive)
REMARK    1  A    between atoms: C5_5  and  N6_21 
REMARK    2  A    between atoms: C18_14  and  N17_19 
ROOT
HETATM    1  O1  MIQ B 502      15.609  -4.033   8.579  1.00142.91    -0.171 OA
HETATM    2  C2  MIQ B 502      15.967  -3.580   7.307  1.00141.17     0.195 A 
HETATM    3  C3  MIQ B 502      15.899  -2.104   6.801  1.00141.71     0.035 A 
HETATM    4  C4  MIQ B 502      15.482  -0.829   7.431  1.00142.86     0.046 A 
HETATM    5  C5  MIQ B 502      15.535   0.383   6.698  1.00139.53     0.031 A 
HETATM    6  C12 MIQ B 502      16.001   0.375   5.319  1.00139.38     0.030 A 
HETATM    7  C13 MIQ B 502      16.402  -0.847   4.715  1.00141.18     0.019 A 
HETATM    8  C14 MIQ B 502      16.347  -2.117   5.490  1.00138.77     0.033 A 
HETATM    9  C15 MIQ B 502      16.696  -3.610   5.181  1.00142.10     0.195 A 
HETATM   10  N17 MIQ B 502      16.431  -4.283   6.288  1.00139.42    -0.288 N 
HETATM   11  O16 MIQ B 502      17.184  -4.122   3.978  1.00148.93    -0.171 OA
ENDROOT
BRANCH  10  12
HETATM   12  C18 MIQ B 502      16.623  -5.720   6.365  1.00139.82     0.187 C 
HETATM   13  C19 MIQ B 502      15.303  -6.343   6.834  1.00140.06     0.247 C 
HETATM   14  O25 MIQ B 502      14.303  -6.062   6.276  1.00143.95    -0.271 OA
HETATM   15  N20 MIQ B 502      15.250  -7.275   7.942  1.00140.02    -0.296 N 
HETATM   16  H13 MIQ B 502      14.381  -7.670   8.243  1.00142.77     0.171 HD
HETATM   17  C21 MIQ B 502      16.483  -7.595   8.614  1.00142.22     0.224 C 
HETATM   18  C22 MIQ B 502      17.517  -6.489   8.703  1.00139.52     0.106 C 
HETATM   19  O24 MIQ B 502      16.678  -8.668   9.068  1.00146.13    -0.273 OA
HETATM   20  C23 MIQ B 502      17.802  -6.050   7.278  1.00139.15     0.045 C 
ENDBRANCH  10  12
BRANCH   5  21
HETATM   21  N6  MIQ B 502      15.109   1.623   7.323  1.00140.95    -0.377 N 
HETATM   22  C7  MIQ B 502      14.549   2.668   6.484  1.00142.12     0.149 C 
HETATM   23  C8  MIQ B 502      14.751   4.051   7.088  1.00144.10     0.187 C 
HETATM   24  O9  MIQ B 502      14.393   4.113   8.436  1.00148.65    -0.388 OA
HETATM   25  C10 MIQ B 502      14.115   2.944   9.149  1.00147.44     0.187 C 
HETATM   26  C11 MIQ B 502      14.831   1.658   8.748  1.00144.08     0.149 C 
ENDBRANCH   5  21
TORSDOF 2
ENDMDL
MODEL 9
REMARK VINA RESULT:      -6.5      2.489      8.173
REMARK  2 active torsions:
REMARK  status: ('A' for Active; 'I' for Inactive)
REMARK    1  A    between atoms: C5_5  and  N6_21 
REMARK    2  A    between atoms: C18_14  and  N17_19 
ROOT
HETATM    1  O1  MIQ B 502      14.564  -1.253   7.853  1.00142.91    -0.171 OA
HETATM    2  C2  MIQ B 502      15.448  -1.851   6.952  1.00141.17     0.195 A 
HETATM    3  C3  MIQ B 502      15.649  -3.385   6.738  1.00141.71     0.035 A 
HETATM    4  C4  MIQ B 502      15.035  -4.588   7.349  1.00142.86     0.046 A 
HETATM    5  C5  MIQ B 502      15.433  -5.884   6.935  1.00139.53     0.031 A 
HETATM    6  C12 MIQ B 502      16.451  -6.033   5.905  1.00139.38     0.030 A 
HETATM    7  C13 MIQ B 502      17.040  -4.880   5.319  1.00141.18     0.019 A 
HETATM    8  C14 MIQ B 502      16.615  -3.521   5.755  1.00138.77     0.033 A 
HETATM    9  C15 MIQ B 502      17.016  -2.064   5.356  1.00142.10     0.195 A 
HETATM   10  N17 MIQ B 502      16.278  -1.263   6.108  1.00139.42    -0.288 N 
HETATM   11  O16 MIQ B 502      17.963  -1.689   4.402  1.00148.93    -0.171 OA
ENDROOT
BRANCH  10  12
HETATM   12  C18 MIQ B 502      16.395   0.180   6.018  1.00139.82     0.187 C 
HETATM   13  C19 MIQ B 502      16.481   0.732   7.447  1.00140.06     0.247 C 
HETATM   14  O25 MIQ B 502      17.267   0.272   8.196  1.00143.95    -0.271 OA
HETATM   15  N20 MIQ B 502      15.625   1.808   7.903  1.00140.02    -0.296 N 
HETATM   16  H13 MIQ B 502      15.686   2.155   8.840  1.00142.77     0.171 HD
HETATM   17  C21 MIQ B 502      14.665   2.346   6.973  1.00142.22     0.224 C 
HETATM   18  C22 MIQ B 502      14.065   1.375   5.975  1.00139.52     0.106 C 
HETATM   19  O24 MIQ B 502      14.366   3.489   6.987  1.00146.13    -0.273 OA
HETATM   20  C23 MIQ B 502      15.229   0.760   5.219  1.00139.15     0.045 C 
ENDBRANCH  10  12
BRANCH   5  21
HETATM   21  N6  MIQ B 502      14.834  -7.054   7.551  1.00140.95    -0.377 N 
HETATM   22  C7  MIQ B 502      15.248  -8.369   7.094  1.00142.12     0.149 C 
HETATM   23  C8  MIQ B 502      14.161  -9.414   7.310  1.00144.10     0.187 C 
HETATM   24  O9  MIQ B 502      13.615  -9.374   8.594  1.00148.65    -0.388 OA
HETATM   25  C10 MIQ B 502      13.912  -8.314   9.456  1.00147.44     0.187 C 
HETATM   26  C11 MIQ B 502      14.201  -6.943   8.854  1.00144.08     0.149 C 
ENDBRANCH   5  21
TORSDOF 2
ENDMDL
