MODEL 1
REMARK VINA RESULT:      -6.6      0.000      0.000
REMARK  2 active torsions:
REMARK  status: ('A' for Active; 'I' for Inactive)
REMARK    1  A    between atoms: C5_5  and  N6_21 
REMARK    2  A    between atoms: C18_14  and  N17_19 
ROOT
HETATM    1  O1  MIQ B 502      22.688  -5.770 -11.516  1.00142.91    -0.171 OA
HETATM    2  C2  MIQ B 502      21.780  -5.522 -12.548  1.00141.17     0.195 A 
HETATM    3  C3  MIQ B 502      20.774  -6.550 -13.157  1.00141.71     0.035 A 
HETATM    4  C4  MIQ B 502      20.476  -7.974 -12.876  1.00142.86     0.046 A 
HETATM    5  C5  MIQ B 502      19.479  -8.658 -13.616  1.00139.53     0.031 A 
HETATM    6  C12 MIQ B 502      18.743  -7.956 -14.657  1.00139.38     0.030 A 
HETATM    7  C13 MIQ B 502      19.027  -6.590 -14.927  1.00141.18     0.019 A 
HETATM    8  C14 MIQ B 502      20.074  -5.877 -14.145  1.00138.77     0.033 A 
HETATM    9  C15 MIQ B 502      20.648  -4.422 -14.148  1.00142.10     0.195 A 
HETATM   10  N17 MIQ B 502      21.577  -4.394 -13.207  1.00139.42    -0.288 N 
HETATM   11  O16 MIQ B 502      20.258  -3.371 -14.980  1.00148.93    -0.171 OA
ENDROOT
BRANCH  10  12
HETATM   12  C18 MIQ B 502      22.344  -3.193 -12.934  1.00139.82     0.187 C 
HETATM   13  C19 MIQ B 502      23.831  -3.562 -12.998  1.00140.06     0.247 C 
HETATM   14  O25 MIQ B 502      24.241  -4.141 -13.940  1.00143.95    -0.271 OA
HETATM   15  N20 MIQ B 502      24.750  -3.214 -11.934  1.00140.02    -0.296 N 
HETATM   16  H13 MIQ B 502      25.717  -3.466 -11.984  1.00142.77     0.171 HD
HETATM   17  C21 MIQ B 502      24.224  -2.516 -10.789  1.00142.22     0.224 C 
HETATM   18  C22 MIQ B 502      22.803  -2.854 -10.379  1.00139.52     0.106 C 
HETATM   19  O24 MIQ B 502      24.867  -1.716 -10.204  1.00146.13    -0.273 OA
HETATM   20  C23 MIQ B 502      21.930  -2.592 -11.592  1.00139.15     0.045 C 
ENDBRANCH  10  12
BRANCH   5  21
HETATM   21  N6  MIQ B 502      19.208 -10.057 -13.339  1.00140.95    -0.377 N 
HETATM   22  C7  MIQ B 502      20.308 -11.004 -13.407  1.00142.12     0.149 C 
HETATM   23  C8  MIQ B 502      19.827 -12.411 -13.739  1.00144.10     0.187 C 
HETATM   24  O9  MIQ B 502      18.741 -12.813 -12.959  1.00148.65    -0.388 OA
HETATM   25  C10 MIQ B 502      18.071 -11.891 -12.151  1.00147.44     0.187 C 
HETATM   26  C11 MIQ B 502      18.018 -10.433 -12.596  1.00144.08     0.149 C 
ENDBRANCH   5  21
TORSDOF 2
ENDMDL
MODEL 2
REMARK VINA RESULT:      -6.3      1.770      7.912
REMARK  2 active torsions:
REMARK  status: ('A' for Active; 'I' for Inactive)
REMARK    1  A    between atoms: C5_5  and  N6_21 
REMARK    2  A    between atoms: C18_14  and  N17_19 
ROOT
HETATM    1  O1  MIQ B 502      20.811  -9.313 -12.290  1.00142.91    -0.171 OA
HETATM    2  C2  MIQ B 502      20.228  -8.371 -13.140  1.00141.17     0.195 A 
HETATM    3  C3  MIQ B 502      20.636  -6.869 -13.270  1.00141.71     0.035 A 
HETATM    4  C4  MIQ B 502      21.665  -6.032 -12.610  1.00142.86     0.046 A 
HETATM    5  C5  MIQ B 502      21.799  -4.661 -12.948  1.00139.53     0.031 A 
HETATM    6  C12 MIQ B 502      20.920  -4.075 -13.949  1.00139.38     0.030 A 
HETATM    7  C13 MIQ B 502      19.933  -4.877 -14.583  1.00141.18     0.019 A 
HETATM    8  C14 MIQ B 502      19.799  -6.316 -14.226  1.00138.77     0.033 A 
HETATM    9  C15 MIQ B 502      18.868  -7.482 -14.693  1.00142.10     0.195 A 
HETATM   10  N17 MIQ B 502      19.238  -8.545 -13.999  1.00139.42    -0.288 N 
HETATM   11  O16 MIQ B 502      17.852  -7.409 -15.647  1.00148.93    -0.171 OA
ENDROOT
BRANCH  10  12
HETATM   12  C18 MIQ B 502      18.573  -9.825 -14.161  1.00139.82     0.187 C 
HETATM   13  C19 MIQ B 502      18.333 -10.408 -12.763  1.00140.06     0.247 C 
HETATM   14  O25 MIQ B 502      17.810  -9.741 -11.942  1.00143.95    -0.271 OA
HETATM   15  N20 MIQ B 502      18.726 -11.760 -12.422  1.00140.02    -0.296 N 
HETATM   16  H13 MIQ B 502      18.570 -12.126 -11.503  1.00142.77     0.171 HD
HETATM   17  C21 MIQ B 502      19.372 -12.551 -13.437  1.00142.22     0.224 C 
HETATM   18  C22 MIQ B 502      20.263 -11.809 -14.415  1.00139.52     0.106 C 
HETATM   19  O24 MIQ B 502      19.211 -13.720 -13.505  1.00146.13    -0.273 OA
HETATM   20  C23 MIQ B 502      19.398 -10.742 -15.062  1.00139.15     0.045 C 
ENDBRANCH  10  12
BRANCH   5  21
HETATM   21  N6  MIQ B 502      22.802  -3.849 -12.283  1.00140.95    -0.377 N 
HETATM   22  C7  MIQ B 502      23.388  -2.736 -13.009  1.00142.12     0.149 C 
HETATM   23  C8  MIQ B 502      24.787  -2.404 -12.508  1.00144.10     0.187 C 
HETATM   24  O9  MIQ B 502      24.858  -2.312 -11.116  1.00148.65    -0.388 OA
HETATM   25  C10 MIQ B 502      23.784  -2.724 -10.324  1.00147.44     0.187 C 
HETATM   26  C11 MIQ B 502      22.893  -3.853 -10.833  1.00144.08     0.149 C 
ENDBRANCH   5  21
TORSDOF 2
ENDMDL
MODEL 3
REMARK VINA RESULT:      -6.2      2.042      8.305
REMARK  2 active torsions:
REMARK  status: ('A' for Active; 'I' for Inactive)
REMARK    1  A    between atoms: C5_5  and  N6_21 
REMARK    2  A    between atoms: C18_14  and  N17_19 
ROOT
HETATM    1  O1  MIQ B 502      19.968  -4.791 -15.099  1.00142.91    -0.171 OA
HETATM    2  C2  MIQ B 502      20.535  -5.533 -14.061  1.00141.17     0.195 A 
HETATM    3  C3  MIQ B 502      21.564  -5.010 -13.009  1.00141.71     0.035 A 
HETATM    4  C4  MIQ B 502      22.210  -3.696 -12.781  1.00142.86     0.046 A 
HETATM    5  C5  MIQ B 502      23.127  -3.523 -11.713  1.00139.53     0.031 A 
HETATM    6  C12 MIQ B 502      23.433  -4.643 -10.835  1.00139.38     0.030 A 
HETATM    7  C13 MIQ B 502      22.813  -5.903 -11.052  1.00141.18     0.019 A 
HETATM    8  C14 MIQ B 502      21.850  -6.078 -12.174  1.00138.77     0.033 A 
HETATM    9  C15 MIQ B 502      20.992  -7.271 -12.710  1.00142.10     0.195 A 
HETATM   10  N17 MIQ B 502      20.324  -6.801 -13.751  1.00139.42    -0.288 N 
HETATM   11  O16 MIQ B 502      20.948  -8.567 -12.193  1.00148.93    -0.171 OA
ENDROOT
BRANCH  10  12
HETATM   12  C18 MIQ B 502      19.428  -7.645 -14.518  1.00139.82     0.187 C 
HETATM   13  C19 MIQ B 502      18.423  -8.269 -13.542  1.00140.06     0.247 C 
HETATM   14  O25 MIQ B 502      17.837  -7.571 -12.793  1.00143.95    -0.271 OA
HETATM   15  N20 MIQ B 502      18.167  -9.695 -13.517  1.00140.02    -0.296 N 
HETATM   16  H13 MIQ B 502      17.513 -10.091 -12.870  1.00142.77     0.171 HD
HETATM   17  C21 MIQ B 502      18.902 -10.528 -14.433  1.00142.22     0.224 C 
HETATM   18  C22 MIQ B 502      20.318 -10.096 -14.762  1.00139.52     0.106 C 
HETATM   19  O24 MIQ B 502      18.421 -11.497 -14.909  1.00146.13    -0.273 OA
HETATM   20  C23 MIQ B 502      20.221  -8.683 -15.310  1.00139.15     0.045 C 
ENDBRANCH  10  12
BRANCH   5  21
HETATM   21  N6  MIQ B 502      23.763  -2.234 -11.512  1.00140.95    -0.377 N 
HETATM   22  C7  MIQ B 502      25.177  -2.102 -11.819  1.00142.12     0.149 C 
HETATM   23  C8  MIQ B 502      25.836  -0.999 -11.002  1.00144.10     0.187 C 
HETATM   24  O9  MIQ B 502      25.110   0.193 -11.012  1.00148.65    -0.388 OA
HETATM   25  C10 MIQ B 502      23.815   0.228 -11.536  1.00147.44     0.187 C 
HETATM   26  C11 MIQ B 502      22.956  -1.029 -11.443  1.00144.08     0.149 C 
ENDBRANCH   5  21
TORSDOF 2
ENDMDL
MODEL 4
REMARK VINA RESULT:      -6.0     19.316     21.702
REMARK  2 active torsions:
REMARK  status: ('A' for Active; 'I' for Inactive)
REMARK    1  A    between atoms: C5_5  and  N6_21 
REMARK    2  A    between atoms: C18_14  and  N17_19 
ROOT
HETATM    1  O1  MIQ B 502      18.160  -3.802   5.216  1.00142.91    -0.171 OA
HETATM    2  C2  MIQ B 502      18.576  -3.024   6.299  1.00141.17     0.195 A 
HETATM    3  C3  MIQ B 502      17.655  -2.399   7.394  1.00141.71     0.035 A 
HETATM    4  C4  MIQ B 502      16.192  -2.422   7.629  1.00142.86     0.046 A 
HETATM    5  C5  MIQ B 502      15.634  -1.742   8.741  1.00139.53     0.031 A 
HETATM    6  C12 MIQ B 502      16.504  -1.019   9.657  1.00139.38     0.030 A 
HETATM    7  C13 MIQ B 502      17.907  -0.998   9.433  1.00141.18     0.019 A 
HETATM    8  C14 MIQ B 502      18.488  -1.715   8.265  1.00138.77     0.033 A 
HETATM    9  C15 MIQ B 502      19.934  -1.917   7.707  1.00142.10     0.195 A 
HETATM   10  N17 MIQ B 502      19.806  -2.664   6.622  1.00139.42    -0.288 N 
HETATM   11  O16 MIQ B 502      21.117  -1.408   8.247  1.00148.93    -0.171 OA
ENDROOT
BRANCH  10  12
HETATM   12  C18 MIQ B 502      20.957  -3.044   5.825  1.00139.82     0.187 C 
HETATM   13  C19 MIQ B 502      21.975  -3.710   6.759  1.00140.06     0.247 C 
HETATM   14  O25 MIQ B 502      21.620  -4.586   7.466  1.00143.95    -0.271 OA
HETATM   15  N20 MIQ B 502      23.363  -3.299   6.795  1.00140.02    -0.296 N 
HETATM   16  H13 MIQ B 502      24.016  -3.737   7.414  1.00142.77     0.171 HD
HETATM   17  C21 MIQ B 502      23.769  -2.221   5.930  1.00142.22     0.224 C 
HETATM   18  C22 MIQ B 502      22.744  -1.136   5.666  1.00139.52     0.106 C 
HETATM   19  O24 MIQ B 502      24.848  -2.189   5.447  1.00146.13    -0.273 OA
HETATM   20  C23 MIQ B 502      21.521  -1.828   5.091  1.00139.15     0.045 C 
ENDBRANCH  10  12
BRANCH   5  21
HETATM   21  N6  MIQ B 502      14.198  -1.760   8.951  1.00140.95    -0.377 N 
HETATM   22  C7  MIQ B 502      13.522  -3.044   9.017  1.00142.12     0.149 C 
HETATM   23  C8  MIQ B 502      12.061  -2.941   8.595  1.00144.10     0.187 C 
HETATM   24  O9  MIQ B 502      11.392  -1.881   9.211  1.00148.65    -0.388 OA
HETATM   25  C10 MIQ B 502      12.102  -0.922   9.937  1.00147.44     0.187 C 
HETATM   26  C11 MIQ B 502      13.532  -0.600   9.517  1.00144.08     0.149 C 
ENDBRANCH   5  21
TORSDOF 2
ENDMDL
MODEL 5
REMARK VINA RESULT:      -6.0     18.982     20.393
REMARK  2 active torsions:
REMARK  status: ('A' for Active; 'I' for Inactive)
REMARK    1  A    between atoms: C5_5  and  N6_21 
REMARK    2  A    between atoms: C18_14  and  N17_19 
ROOT
HETATM    1  O1  MIQ B 502      21.687  -4.080   8.881  1.00142.91    -0.171 OA
HETATM    2  C2  MIQ B 502      21.064  -3.468   7.791  1.00141.17     0.195 A 
HETATM    3  C3  MIQ B 502      19.574  -3.651   7.358  1.00141.71     0.035 A 
HETATM    4  C4  MIQ B 502      18.446  -4.444   7.900  1.00142.86     0.046 A 
HETATM    5  C5  MIQ B 502      17.175  -4.404   7.272  1.00139.53     0.031 A 
HETATM    6  C12 MIQ B 502      16.979  -3.577   6.090  1.00139.38     0.030 A 
HETATM    7  C13 MIQ B 502      18.060  -2.815   5.571  1.00141.18     0.019 A 
HETATM    8  C14 MIQ B 502      19.391  -2.860   6.235  1.00138.77     0.033 A 
HETATM    9  C15 MIQ B 502      20.775  -2.182   5.970  1.00142.10     0.195 A 
HETATM   10  N17 MIQ B 502      21.585  -2.622   6.919  1.00139.42    -0.288 N 
HETATM   11  O16 MIQ B 502      21.087  -1.295   4.938  1.00148.93    -0.171 OA
ENDROOT
BRANCH  10  12
HETATM   12  C18 MIQ B 502      22.975  -2.209   6.980  1.00139.82     0.187 C 
HETATM   13  C19 MIQ B 502      23.007  -0.676   6.998  1.00140.06     0.247 C 
HETATM   14  O25 MIQ B 502      22.341  -0.095   7.778  1.00143.95    -0.271 OA
HETATM   15  N20 MIQ B 502      23.839   0.081   6.085  1.00140.02    -0.296 N 
HETATM   16  H13 MIQ B 502      23.846   1.082   6.102  1.00142.77     0.171 HD
HETATM   17  C21 MIQ B 502      24.636  -0.651   5.134  1.00142.22     0.224 C 
HETATM   18  C22 MIQ B 502      24.048  -1.946   4.606  1.00139.52     0.106 C 
HETATM   19  O24 MIQ B 502      25.697  -0.262   4.788  1.00146.13    -0.273 OA
HETATM   20  C23 MIQ B 502      23.760  -2.814   5.818  1.00139.15     0.045 C 
ENDBRANCH  10  12
BRANCH   5  21
HETATM   21  N6  MIQ B 502      16.082  -5.198   7.805  1.00140.95    -0.377 N 
HETATM   22  C7  MIQ B 502      14.854  -4.522   8.185  1.00142.12     0.149 C 
HETATM   23  C8  MIQ B 502      14.097  -5.284   9.265  1.00144.10     0.187 C 
HETATM   24  O9  MIQ B 502      13.966  -6.645   8.981  1.00148.65    -0.388 OA
HETATM   25  C10 MIQ B 502      14.679  -7.218   7.925  1.00147.44     0.187 C 
HETATM   26  C11 MIQ B 502      16.036  -6.628   7.554  1.00144.08     0.149 C 
ENDBRANCH   5  21
TORSDOF 2
ENDMDL
MODEL 6
REMARK VINA RESULT:      -5.9     19.217     19.948
REMARK  2 active torsions:
REMARK  status: ('A' for Active; 'I' for Inactive)
REMARK    1  A    between atoms: C5_5  and  N6_21 
REMARK    2  A    between atoms: C18_14  and  N17_19 
ROOT
HETATM    1  O1  MIQ B 502      23.023   0.406   5.954  1.00142.91    -0.171 OA
HETATM    2  C2  MIQ B 502      23.491  -0.903   6.088  1.00141.17     0.195 A 
HETATM    3  C3  MIQ B 502      22.617  -2.197   6.115  1.00141.71     0.035 A 
HETATM    4  C4  MIQ B 502      21.159  -2.444   6.015  1.00142.86     0.046 A 
HETATM    5  C5  MIQ B 502      20.651  -3.766   6.072  1.00139.53     0.031 A 
HETATM    6  C12 MIQ B 502      21.568  -4.887   6.229  1.00139.38     0.030 A 
HETATM    7  C13 MIQ B 502      22.966  -4.650   6.323  1.00141.18     0.019 A 
HETATM    8  C14 MIQ B 502      23.494  -3.260   6.260  1.00138.77     0.033 A 
HETATM    9  C15 MIQ B 502      24.920  -2.622   6.324  1.00142.10     0.195 A 
HETATM   10  N17 MIQ B 502      24.741  -1.316   6.212  1.00139.42    -0.288 N 
HETATM   11  O16 MIQ B 502      26.132  -3.298   6.471  1.00148.93    -0.171 OA
ENDROOT
BRANCH  10  12
HETATM   12  C18 MIQ B 502      25.860  -0.393   6.245  1.00139.82     0.187 C 
HETATM   13  C19 MIQ B 502      25.540   0.693   7.280  1.00140.06     0.247 C 
HETATM   14  O25 MIQ B 502      25.199   0.374   8.363  1.00143.95    -0.271 OA
HETATM   15  N20 MIQ B 502      25.648   2.103   6.966  1.00140.02    -0.296 N 
HETATM   16  H13 MIQ B 502      25.430   2.802   7.648  1.00142.77     0.171 HD
HETATM   17  C21 MIQ B 502      26.055   2.468   5.633  1.00142.22     0.224 C 
HETATM   18  C22 MIQ B 502      25.609   1.552   4.510  1.00139.52     0.106 C 
HETATM   19  O24 MIQ B 502      26.709   3.431   5.429  1.00146.13    -0.273 OA
HETATM   20  C23 MIQ B 502      26.129   0.167   4.850  1.00139.15     0.045 C 
ENDBRANCH  10  12
BRANCH   5  21
HETATM   21  N6  MIQ B 502      19.220  -3.993   5.989  1.00140.95    -0.377 N 
HETATM   22  C7  MIQ B 502      18.666  -5.178   6.621  1.00142.12     0.149 C 
HETATM   23  C8  MIQ B 502      17.374  -5.629   5.950  1.00144.10     0.187 C 
HETATM   24  O9  MIQ B 502      16.472  -4.582   5.750  1.00148.65    -0.388 OA
HETATM   25  C10 MIQ B 502      16.869  -3.257   5.948  1.00147.44     0.187 C 
HETATM   26  C11 MIQ B 502      18.326  -2.887   5.692  1.00144.08     0.149 C 
ENDBRANCH   5  21
TORSDOF 2
ENDMDL
MODEL 7
REMARK VINA RESULT:      -5.9     18.951     21.031
REMARK  2 active torsions:
REMARK  status: ('A' for Active; 'I' for Inactive)
REMARK    1  A    between atoms: C5_5  and  N6_21 
REMARK    2  A    between atoms: C18_14  and  N17_19 
ROOT
HETATM    1  O1  MIQ B 502      23.370  -6.377   7.324  1.00142.91    -0.171 OA
HETATM    2  C2  MIQ B 502      22.380  -5.498   6.881  1.00141.17     0.195 A 
HETATM    3  C3  MIQ B 502      22.612  -4.078   6.273  1.00141.71     0.035 A 
HETATM    4  C4  MIQ B 502      23.826  -3.276   5.991  1.00142.86     0.046 A 
HETATM    5  C5  MIQ B 502      23.714  -1.984   5.419  1.00139.53     0.031 A 
HETATM    6  C12 MIQ B 502      22.399  -1.443   5.106  1.00139.38     0.030 A 
HETATM    7  C13 MIQ B 502      21.235  -2.212   5.375  1.00141.18     0.019 A 
HETATM    8  C14 MIQ B 502      21.358  -3.569   5.974  1.00138.77     0.033 A 
HETATM    9  C15 MIQ B 502      20.343  -4.680   6.398  1.00142.10     0.195 A 
HETATM   10  N17 MIQ B 502      21.070  -5.677   6.875  1.00139.42    -0.288 N 
HETATM   11  O16 MIQ B 502      18.952  -4.625   6.293  1.00148.93    -0.171 OA
ENDROOT
BRANCH  10  12
HETATM   12  C18 MIQ B 502      20.454  -6.888   7.383  1.00139.82     0.187 C 
HETATM   13  C19 MIQ B 502      20.971  -7.113   8.809  1.00140.06     0.247 C 
HETATM   14  O25 MIQ B 502      20.914  -6.230   9.589  1.00143.95    -0.271 OA
HETATM   15  N20 MIQ B 502      21.524  -8.384   9.230  1.00140.02    -0.296 N 
HETATM   16  H13 MIQ B 502      21.864  -8.517  10.162  1.00142.77     0.171 HD
HETATM   17  C21 MIQ B 502      21.592  -9.444   8.257  1.00142.22     0.224 C 
HETATM   18  C22 MIQ B 502      21.844  -9.034   6.819  1.00139.52     0.106 C 
HETATM   19  O24 MIQ B 502      21.454 -10.577   8.566  1.00146.13    -0.273 OA
HETATM   20  C23 MIQ B 502      20.738  -8.062   6.448  1.00139.15     0.045 C 
ENDBRANCH  10  12
BRANCH   5  21
HETATM   21  N6  MIQ B 502      24.911  -1.203   5.162  1.00140.95    -0.377 N 
HETATM   22  C7  MIQ B 502      24.809   0.246   5.162  1.00142.12     0.149 C 
HETATM   23  C8  MIQ B 502      25.877   0.892   4.289  1.00144.10     0.187 C 
HETATM   24  O9  MIQ B 502      27.155   0.383   4.529  1.00148.65    -0.388 OA
HETATM   25  C10 MIQ B 502      27.327  -0.753   5.323  1.00147.44     0.187 C 
HETATM   26  C11 MIQ B 502      26.221  -1.803   5.343  1.00144.08     0.149 C 
ENDBRANCH   5  21
TORSDOF 2
ENDMDL
MODEL 8
REMARK VINA RESULT:      -5.8      1.722      2.418
REMARK  2 active torsions:
REMARK  status: ('A' for Active; 'I' for Inactive)
REMARK    1  A    between atoms: C5_5  and  N6_21 
REMARK    2  A    between atoms: C18_14  and  N17_19 
ROOT
HETATM    1  O1  MIQ B 502      21.841  -5.508  -9.795  1.00142.91    -0.171 OA
HETATM    2  C2  MIQ B 502      21.958  -5.190 -11.150  1.00141.17     0.195 A 
HETATM    3  C3  MIQ B 502      21.536  -6.096 -12.350  1.00141.71     0.035 A 
HETATM    4  C4  MIQ B 502      20.932  -7.446 -12.444  1.00142.86     0.046 A 
HETATM    5  C5  MIQ B 502      20.655  -8.021 -13.711  1.00139.53     0.031 A 
HETATM    6  C12 MIQ B 502      20.964  -7.278 -14.924  1.00139.38     0.030 A 
HETATM    7  C13 MIQ B 502      21.541  -5.983 -14.834  1.00141.18     0.019 A 
HETATM    8  C14 MIQ B 502      21.828  -5.384 -13.502  1.00138.77     0.033 A 
HETATM    9  C15 MIQ B 502      22.435  -4.028 -13.014  1.00142.10     0.195 A 
HETATM   10  N17 MIQ B 502      22.434  -4.082 -11.693  1.00139.42    -0.288 N 
HETATM   11  O16 MIQ B 502      22.888  -2.979 -13.816  1.00148.93    -0.171 OA
ENDROOT
BRANCH  10  12
HETATM   12  C18 MIQ B 502      22.948  -2.988 -10.890  1.00139.82     0.187 C 
HETATM   13  C19 MIQ B 502      22.222  -1.708 -11.323  1.00140.06     0.247 C 
HETATM   14  O25 MIQ B 502      21.043  -1.703 -11.371  1.00143.95    -0.271 OA
HETATM   15  N20 MIQ B 502      22.943  -0.501 -11.670  1.00140.02    -0.296 N 
HETATM   16  H13 MIQ B 502      22.458   0.326 -11.957  1.00142.77     0.171 HD
HETATM   17  C21 MIQ B 502      24.382  -0.535 -11.613  1.00142.22     0.224 C 
HETATM   18  C22 MIQ B 502      25.047  -1.852 -11.967  1.00139.52     0.106 C 
HETATM   19  O24 MIQ B 502      25.011   0.415 -11.301  1.00146.13    -0.273 OA
HETATM   20  C23 MIQ B 502      24.466  -2.894 -11.029  1.00139.15     0.045 C 
ENDBRANCH  10  12
BRANCH   5  21
HETATM   21  N6  MIQ B 502      20.078  -9.350 -13.788  1.00140.95    -0.377 N 
HETATM   22  C7  MIQ B 502      18.922  -9.655 -12.963  1.00142.12     0.149 C 
HETATM   23  C8  MIQ B 502      18.826 -11.141 -12.644  1.00144.10     0.187 C 
HETATM   24  O9  MIQ B 502      18.985 -11.950 -13.771  1.00148.65    -0.388 OA
HETATM   25  C10 MIQ B 502      19.416 -11.401 -14.981  1.00147.44     0.187 C 
HETATM   26  C11 MIQ B 502      20.342 -10.189 -14.944  1.00144.08     0.149 C 
ENDBRANCH   5  21
TORSDOF 2
ENDMDL
MODEL 9
REMARK VINA RESULT:      -5.8     19.156     19.956
REMARK  2 active torsions:
REMARK  status: ('A' for Active; 'I' for Inactive)
REMARK    1  A    between atoms: C5_5  and  N6_21 
REMARK    2  A    between atoms: C18_14  and  N17_19 
ROOT
HETATM    1  O1  MIQ B 502      25.249  -4.414   7.247  1.00142.91    -0.171 OA
HETATM    2  C2  MIQ B 502      24.653  -3.262   6.730  1.00141.17     0.195 A 
HETATM    3  C3  MIQ B 502      23.141  -3.082   6.381  1.00141.71     0.035 A 
HETATM    4  C4  MIQ B 502      21.961  -3.974   6.475  1.00142.86     0.046 A 
HETATM    5  C5  MIQ B 502      20.681  -3.514   6.073  1.00139.53     0.031 A 
HETATM    6  C12 MIQ B 502      20.527  -2.158   5.566  1.00139.38     0.030 A 
HETATM    7  C13 MIQ B 502      21.659  -1.302   5.477  1.00141.18     0.019 A 
HETATM    8  C14 MIQ B 502      22.999  -1.790   5.902  1.00138.77     0.033 A 
HETATM    9  C15 MIQ B 502      24.431  -1.163   5.954  1.00142.10     0.195 A 
HETATM   10  N17 MIQ B 502      25.224  -2.106   6.437  1.00139.42    -0.288 N 
HETATM   11  O16 MIQ B 502      24.793   0.128   5.567  1.00148.93    -0.171 OA
ENDROOT
BRANCH  10  12
HETATM   12  C18 MIQ B 502      26.647  -1.881   6.611  1.00139.82     0.187 C 
HETATM   13  C19 MIQ B 502      26.820  -0.641   7.496  1.00140.06     0.247 C 
HETATM   14  O25 MIQ B 502      26.236  -0.578   8.519  1.00143.95    -0.271 OA
HETATM   15  N20 MIQ B 502      27.687   0.455   7.115  1.00140.02    -0.296 N 
HETATM   16  H13 MIQ B 502      27.786   1.262   7.699  1.00142.77     0.171 HD
HETATM   17  C21 MIQ B 502      28.382   0.359   5.857  1.00142.22     0.224 C 
HETATM   18  C22 MIQ B 502      27.661  -0.363   4.734  1.00139.52     0.106 C 
HETATM   19  O24 MIQ B 502      29.462   0.816   5.711  1.00146.13    -0.273 OA
HETATM   20  C23 MIQ B 502      27.335  -1.751   5.253  1.00139.15     0.045 C 
ENDBRANCH  10  12
BRANCH   5  21
HETATM   21  N6  MIQ B 502      19.537  -4.403   6.157  1.00140.95    -0.377 N 
HETATM   22  C7  MIQ B 502      19.534  -5.437   7.178  1.00142.12     0.149 C 
HETATM   23  C8  MIQ B 502      18.678  -6.631   6.774  1.00144.10     0.187 C 
HETATM   24  O9  MIQ B 502      17.420  -6.261   6.295  1.00148.65    -0.388 OA
HETATM   25  C10 MIQ B 502      17.133  -4.922   6.020  1.00147.44     0.187 C 
HETATM   26  C11 MIQ B 502      18.269  -4.011   5.567  1.00144.08     0.149 C 
ENDBRANCH   5  21
TORSDOF 2
ENDMDL
