MODEL 1
REMARK VINA RESULT:      -6.3      0.000      0.000
REMARK  2 active torsions:
REMARK  status: ('A' for Active; 'I' for Inactive)
REMARK    1  A    between atoms: C5_5  and  N6_21 
REMARK    2  A    between atoms: C18_14  and  N17_19 
ROOT
HETATM    1  O1  MIQ B 502     -19.359  20.187 -11.054  1.00142.91    -0.171 OA
HETATM    2  C2  MIQ B 502     -18.162  19.624 -10.605  1.00141.17     0.195 A 
HETATM    3  C3  MIQ B 502     -18.019  18.478  -9.554  1.00141.71     0.035 A 
HETATM    4  C4  MIQ B 502     -18.997  17.688  -8.768  1.00142.86     0.046 A 
HETATM    5  C5  MIQ B 502     -18.551  16.686  -7.869  1.00139.53     0.031 A 
HETATM    6  C12 MIQ B 502     -17.125  16.432  -7.719  1.00139.38     0.030 A 
HETATM    7  C13 MIQ B 502     -16.188  17.189  -8.472  1.00141.18     0.019 A 
HETATM    8  C14 MIQ B 502     -16.662  18.238  -9.416  1.00138.77     0.033 A 
HETATM    9  C15 MIQ B 502     -15.958  19.240 -10.388  1.00142.10     0.195 A 
HETATM   10  N17 MIQ B 502     -16.928  19.928 -10.968  1.00139.42    -0.288 N 
HETATM   11  O16 MIQ B 502     -14.585  19.379 -10.596  1.00148.93    -0.171 OA
ENDROOT
BRANCH  10  12
HETATM   12  C18 MIQ B 502     -16.642  20.973 -11.933  1.00139.82     0.187 C 
HETATM   13  C19 MIQ B 502     -15.728  20.378 -13.011  1.00140.06     0.247 C 
HETATM   14  O25 MIQ B 502     -16.038  19.368 -13.535  1.00143.95    -0.271 OA
HETATM   15  N20 MIQ B 502     -14.495  21.025 -13.409  1.00140.02    -0.296 N 
HETATM   16  H13 MIQ B 502     -13.904  20.623 -14.110  1.00142.77     0.171 HD
HETATM   17  C21 MIQ B 502     -14.133  22.252 -12.748  1.00142.22     0.224 C 
HETATM   18  C22 MIQ B 502     -14.531  22.383 -11.290  1.00139.52     0.106 C 
HETATM   19  O24 MIQ B 502     -13.558  23.114 -13.316  1.00146.13    -0.273 OA
HETATM   20  C23 MIQ B 502     -16.036  22.190 -11.236  1.00139.15     0.045 C 
ENDBRANCH  10  12
BRANCH   5  21
HETATM   21  N6  MIQ B 502     -19.519  15.930  -7.096  1.00140.95    -0.377 N 
HETATM   22  C7  MIQ B 502     -20.826  16.516  -6.854  1.00142.12     0.149 C 
HETATM   23  C8  MIQ B 502     -21.461  15.983  -5.576  1.00144.10     0.187 C 
HETATM   24  O9  MIQ B 502     -21.405  14.591  -5.481  1.00148.65    -0.388 OA
HETATM   25  C10 MIQ B 502     -20.629  13.852  -6.378  1.00147.44     0.187 C 
HETATM   26  C11 MIQ B 502     -19.371  14.492  -6.954  1.00144.08     0.149 C 
ENDBRANCH   5  21
TORSDOF 2
ENDMDL
MODEL 2
REMARK VINA RESULT:      -6.3      2.177      8.001
REMARK  2 active torsions:
REMARK  status: ('A' for Active; 'I' for Inactive)
REMARK    1  A    between atoms: C5_5  and  N6_21 
REMARK    2  A    between atoms: C18_14  and  N17_19 
ROOT
HETATM    1  O1  MIQ B 502     -19.292  18.045 -10.401  1.00142.91    -0.171 OA
HETATM    2  C2  MIQ B 502     -18.135  17.866  -9.639  1.00141.17     0.195 A 
HETATM    3  C3  MIQ B 502     -16.740  18.512  -9.915  1.00141.71     0.035 A 
HETATM    4  C4  MIQ B 502     -16.232  19.433 -10.960  1.00142.86     0.046 A 
HETATM    5  C5  MIQ B 502     -14.879  19.856 -10.946  1.00139.53     0.031 A 
HETATM    6  C12 MIQ B 502     -13.985  19.385  -9.898  1.00139.38     0.030 A 
HETATM    7  C13 MIQ B 502     -14.472  18.503  -8.895  1.00141.18     0.019 A 
HETATM    8  C14 MIQ B 502     -15.894  18.063  -8.914  1.00138.77     0.033 A 
HETATM    9  C15 MIQ B 502     -16.769  17.134  -8.011  1.00142.10     0.195 A 
HETATM   10  N17 MIQ B 502     -17.978  17.136  -8.548  1.00139.42    -0.288 N 
HETATM   11  O16 MIQ B 502     -16.353  16.443  -6.872  1.00148.93    -0.171 OA
ENDROOT
BRANCH  10  12
HETATM   12  C18 MIQ B 502     -19.062  16.359  -7.977  1.00139.82     0.187 C 
HETATM   13  C19 MIQ B 502     -19.677  15.516  -9.101  1.00140.06     0.247 C 
HETATM   14  O25 MIQ B 502     -18.971  14.856  -9.778  1.00143.95    -0.271 OA
HETATM   15  N20 MIQ B 502     -21.103  15.502  -9.353  1.00140.02    -0.296 N 
HETATM   16  H13 MIQ B 502     -21.491  14.953 -10.095  1.00142.77     0.171 HD
HETATM   17  C21 MIQ B 502     -21.943  16.324  -8.521  1.00142.22     0.224 C 
HETATM   18  C22 MIQ B 502     -21.350  17.633  -8.036  1.00139.52     0.106 C 
HETATM   19  O24 MIQ B 502     -23.038  15.991  -8.228  1.00146.13    -0.273 OA
HETATM   20  C23 MIQ B 502     -20.073  17.279  -7.294  1.00139.15     0.045 C 
ENDBRANCH  10  12
BRANCH   5  21
HETATM   21  N6  MIQ B 502     -14.391  20.746 -11.984  1.00140.95    -0.377 N 
HETATM   22  C7  MIQ B 502     -14.163  20.204 -13.312  1.00142.12     0.149 C 
HETATM   23  C8  MIQ B 502     -13.104  20.991 -14.073  1.00144.10     0.187 C 
HETATM   24  O9  MIQ B 502     -13.308  22.371 -14.018  1.00148.65    -0.388 OA
HETATM   25  C10 MIQ B 502     -14.259  22.912 -13.149  1.00147.44     0.187 C 
HETATM   26  C11 MIQ B 502     -14.550  22.183 -11.841  1.00144.08     0.149 C 
ENDBRANCH   5  21
TORSDOF 2
ENDMDL
MODEL 3
REMARK VINA RESULT:      -6.1      1.623      2.017
REMARK  2 active torsions:
REMARK  status: ('A' for Active; 'I' for Inactive)
REMARK    1  A    between atoms: C5_5  and  N6_21 
REMARK    2  A    between atoms: C18_14  and  N17_19 
ROOT
HETATM    1  O1  MIQ B 502     -17.538  19.625 -12.058  1.00142.91    -0.171 OA
HETATM    2  C2  MIQ B 502     -16.702  19.212 -11.017  1.00141.17     0.195 A 
HETATM    3  C3  MIQ B 502     -17.060  18.180  -9.901  1.00141.71     0.035 A 
HETATM    4  C4  MIQ B 502     -18.270  17.377  -9.606  1.00142.86     0.046 A 
HETATM    5  C5  MIQ B 502     -18.295  16.501  -8.492  1.00139.53     0.031 A 
HETATM    6  C12 MIQ B 502     -17.124  16.390  -7.634  1.00139.38     0.030 A 
HETATM    7  C13 MIQ B 502     -15.963  17.159  -7.917  1.00141.18     0.019 A 
HETATM    8  C14 MIQ B 502     -15.942  18.075  -9.090  1.00138.77     0.033 A 
HETATM    9  C15 MIQ B 502     -14.884  19.048  -9.706  1.00142.10     0.195 A 
HETATM   10  N17 MIQ B 502     -15.462  19.593 -10.764  1.00139.42    -0.288 N 
HETATM   11  O16 MIQ B 502     -13.594  19.290  -9.230  1.00148.93    -0.171 OA
ENDROOT
BRANCH  10  12
HETATM   12  C18 MIQ B 502     -14.772  20.572 -11.583  1.00139.82     0.187 C 
HETATM   13  C19 MIQ B 502     -15.714  21.766 -11.779  1.00140.06     0.247 C 
HETATM   14  O25 MIQ B 502     -16.220  22.261 -10.835  1.00143.95    -0.271 OA
HETATM   15  N20 MIQ B 502     -15.996  22.310 -13.091  1.00140.02    -0.296 N 
HETATM   16  H13 MIQ B 502     -16.618  23.086 -13.206  1.00142.77     0.171 HD
HETATM   17  C21 MIQ B 502     -15.375  21.682 -14.229  1.00142.22     0.224 C 
HETATM   18  C22 MIQ B 502     -15.154  20.184 -14.145  1.00139.52     0.106 C 
HETATM   19  O24 MIQ B 502     -15.049  22.307 -15.178  1.00146.13    -0.273 OA
HETATM   20  C23 MIQ B 502     -14.321  19.940 -12.900  1.00139.15     0.045 C 
ENDBRANCH  10  12
BRANCH   5  21
HETATM   21  N6  MIQ B 502     -19.492  15.731  -8.206  1.00140.95    -0.377 N 
HETATM   22  C7  MIQ B 502     -20.582  15.761  -9.165  1.00142.12     0.149 C 
HETATM   23  C8  MIQ B 502     -21.928  15.493  -8.505  1.00144.10     0.187 C 
HETATM   24  O9  MIQ B 502     -21.908  14.382  -7.659  1.00148.65    -0.388 OA
HETATM   25  C10 MIQ B 502     -20.696  13.775  -7.319  1.00147.44     0.187 C 
HETATM   26  C11 MIQ B 502     -19.441  14.637  -7.252  1.00144.08     0.149 C 
ENDBRANCH   5  21
TORSDOF 2
ENDMDL
MODEL 4
REMARK VINA RESULT:      -5.9      4.070      7.324
REMARK  2 active torsions:
REMARK  status: ('A' for Active; 'I' for Inactive)
REMARK    1  A    between atoms: C5_5  and  N6_21 
REMARK    2  A    between atoms: C18_14  and  N17_19 
ROOT
HETATM    1  O1  MIQ B 502     -12.240  24.851 -13.079  1.00142.91    -0.171 OA
HETATM    2  C2  MIQ B 502     -13.635  24.855 -13.135  1.00141.17     0.195 A 
HETATM    3  C3  MIQ B 502     -14.588  23.796 -12.495  1.00141.71     0.035 A 
HETATM    4  C4  MIQ B 502     -14.357  22.567 -11.698  1.00142.86     0.046 A 
HETATM    5  C5  MIQ B 502     -15.453  21.791 -11.244  1.00139.53     0.031 A 
HETATM    6  C12 MIQ B 502     -16.812  22.205 -11.561  1.00139.38     0.030 A 
HETATM    7  C13 MIQ B 502     -17.034  23.383 -12.324  1.00141.18     0.019 A 
HETATM    8  C14 MIQ B 502     -15.880  24.195 -12.797  1.00138.77     0.033 A 
HETATM    9  C15 MIQ B 502     -15.728  25.511 -13.628  1.00142.10     0.195 A 
HETATM   10  N17 MIQ B 502     -14.428  25.736 -13.721  1.00139.42    -0.288 N 
HETATM   11  O16 MIQ B 502     -16.759  26.284 -14.164  1.00148.93    -0.171 OA
ENDROOT
BRANCH  10  12
HETATM   12  C18 MIQ B 502     -13.908  26.879 -14.448  1.00139.82     0.187 C 
HETATM   13  C19 MIQ B 502     -12.888  26.360 -15.468  1.00140.06     0.247 C 
HETATM   14  O25 MIQ B 502     -13.194  25.481 -16.192  1.00143.95    -0.271 OA
HETATM   15  N20 MIQ B 502     -11.557  26.924 -15.573  1.00140.02    -0.296 N 
HETATM   16  H13 MIQ B 502     -10.898  26.572 -16.239  1.00142.77     0.171 HD
HETATM   17  C21 MIQ B 502     -11.204  27.990 -14.672  1.00142.22     0.224 C 
HETATM   18  C22 MIQ B 502     -11.815  27.940 -13.285  1.00139.52     0.106 C 
HETATM   19  O24 MIQ B 502     -10.477  28.862 -15.001  1.00146.13    -0.273 OA
HETATM   20  C23 MIQ B 502     -13.320  27.903 -13.478  1.00139.15     0.045 C 
ENDBRANCH  10  12
BRANCH   5  21
HETATM   21  N6  MIQ B 502     -15.212  20.583 -10.477  1.00140.95    -0.377 N 
HETATM   22  C7  MIQ B 502     -15.963  19.385 -10.814  1.00142.12     0.149 C 
HETATM   23  C8  MIQ B 502     -16.113  18.453  -9.618  1.00144.10     0.187 C 
HETATM   24  O9  MIQ B 502     -14.909  18.234  -8.946  1.00148.65    -0.388 OA
HETATM   25  C10 MIQ B 502     -13.780  19.001  -9.246  1.00147.44     0.187 C 
HETATM   26  C11 MIQ B 502     -13.979  20.436  -9.723  1.00144.08     0.149 C 
ENDBRANCH   5  21
TORSDOF 2
ENDMDL
MODEL 5
REMARK VINA RESULT:      -5.9      2.316      3.501
REMARK  2 active torsions:
REMARK  status: ('A' for Active; 'I' for Inactive)
REMARK    1  A    between atoms: C5_5  and  N6_21 
REMARK    2  A    between atoms: C18_14  and  N17_19 
ROOT
HETATM    1  O1  MIQ B 502     -18.653  21.720 -12.679  1.00142.91    -0.171 OA
HETATM    2  C2  MIQ B 502     -17.320  21.587 -12.283  1.00141.17     0.195 A 
HETATM    3  C3  MIQ B 502     -16.747  20.489 -11.331  1.00141.71     0.035 A 
HETATM    4  C4  MIQ B 502     -17.355  19.346 -10.610  1.00142.86     0.046 A 
HETATM    5  C5  MIQ B 502     -16.555  18.502  -9.799  1.00139.53     0.031 A 
HETATM    6  C12 MIQ B 502     -15.128  18.761  -9.675  1.00139.38     0.030 A 
HETATM    7  C13 MIQ B 502     -14.544  19.856 -10.367  1.00141.18     0.019 A 
HETATM    8  C14 MIQ B 502     -15.388  20.738 -11.218  1.00138.77     0.033 A 
HETATM    9  C15 MIQ B 502     -15.117  21.996 -12.106  1.00142.10     0.195 A 
HETATM   10  N17 MIQ B 502     -16.286  22.337 -12.623  1.00139.42    -0.288 N 
HETATM   11  O16 MIQ B 502     -13.889  22.628 -12.306  1.00148.93    -0.171 OA
ENDROOT
BRANCH  10  12
HETATM   12  C18 MIQ B 502     -16.421  23.486 -13.499  1.00139.82     0.187 C 
HETATM   13  C19 MIQ B 502     -15.432  23.309 -14.658  1.00140.06     0.247 C 
HETATM   14  O25 MIQ B 502     -15.427  22.294 -15.261  1.00143.95    -0.271 OA
HETATM   15  N20 MIQ B 502     -14.507  24.356 -15.040  1.00140.02    -0.296 N 
HETATM   16  H13 MIQ B 502     -13.862  24.225 -15.794  1.00142.77     0.171 HD
HETATM   17  C21 MIQ B 502     -14.525  25.581 -14.283  1.00142.22     0.224 C 
HETATM   18  C22 MIQ B 502     -14.852  25.464 -12.806  1.00139.52     0.106 C 
HETATM   19  O24 MIQ B 502     -14.302  26.624 -14.791  1.00146.13    -0.273 OA
HETATM   20  C23 MIQ B 502     -16.203  24.779 -12.716  1.00139.15     0.045 C 
ENDBRANCH  10  12
BRANCH   5  21
HETATM   21  N6  MIQ B 502     -17.167  17.395  -9.088  1.00140.95    -0.377 N 
HETATM   22  C7  MIQ B 502     -16.462  16.824  -7.952  1.00142.12     0.149 C 
HETATM   23  C8  MIQ B 502     -16.837  15.366  -7.725  1.00144.10     0.187 C 
HETATM   24  O9  MIQ B 502     -18.216  15.150  -7.741  1.00148.65    -0.388 OA
HETATM   25  C10 MIQ B 502     -19.086  16.160  -8.160  1.00147.44     0.187 C 
HETATM   26  C11 MIQ B 502     -18.595  17.158  -9.204  1.00144.08     0.149 C 
ENDBRANCH   5  21
TORSDOF 2
ENDMDL
MODEL 6
REMARK VINA RESULT:      -5.8      6.053     10.141
REMARK  2 active torsions:
REMARK  status: ('A' for Active; 'I' for Inactive)
REMARK    1  A    between atoms: C5_5  and  N6_21 
REMARK    2  A    between atoms: C18_14  and  N17_19 
ROOT
HETATM    1  O1  MIQ B 502     -21.686  19.893  -9.541  1.00142.91    -0.171 OA
HETATM    2  C2  MIQ B 502     -22.371  20.077  -8.338  1.00141.17     0.195 A 
HETATM    3  C3  MIQ B 502     -22.846  21.442  -7.746  1.00141.71     0.035 A 
HETATM    4  C4  MIQ B 502     -22.744  22.845  -8.213  1.00142.86     0.046 A 
HETATM    5  C5  MIQ B 502     -23.288  23.900  -7.437  1.00139.53     0.031 A 
HETATM    6  C12 MIQ B 502     -23.951  23.601  -6.175  1.00139.38     0.030 A 
HETATM    7  C13 MIQ B 502     -24.049  22.256  -5.728  1.00141.18     0.019 A 
HETATM    8  C14 MIQ B 502     -23.478  21.152  -6.548  1.00138.77     0.033 A 
HETATM    9  C15 MIQ B 502     -23.395  19.599  -6.395  1.00142.10     0.195 A 
HETATM   10  N17 MIQ B 502     -22.757  19.160  -7.468  1.00139.42    -0.288 N 
HETATM   11  O16 MIQ B 502     -23.894  18.835  -5.338  1.00148.93    -0.171 OA
ENDROOT
BRANCH  10  12
HETATM   12  C18 MIQ B 502     -22.482  17.748  -7.660  1.00139.82     0.187 C 
HETATM   13  C19 MIQ B 502     -23.796  16.983  -7.460  1.00140.06     0.247 C 
HETATM   14  O25 MIQ B 502     -24.758  17.328  -8.048  1.00143.95    -0.271 OA
HETATM   15  N20 MIQ B 502     -23.888  15.843  -6.571  1.00140.02    -0.296 N 
HETATM   16  H13 MIQ B 502     -24.754  15.357  -6.444  1.00142.77     0.171 HD
HETATM   17  C21 MIQ B 502     -22.702  15.448  -5.855  1.00142.22     0.224 C 
HETATM   18  C22 MIQ B 502     -21.753  16.557  -5.444  1.00139.52     0.106 C 
HETATM   19  O24 MIQ B 502     -22.480  14.314  -5.607  1.00146.13    -0.273 OA
HETATM   20  C23 MIQ B 502     -21.370  17.290  -6.717  1.00139.15     0.045 C 
ENDBRANCH  10  12
BRANCH   5  21
HETATM   21  N6  MIQ B 502     -23.169  25.270  -7.899  1.00140.95    -0.377 N 
HETATM   22  C7  MIQ B 502     -23.785  25.633  -9.164  1.00142.12     0.149 C 
HETATM   23  C8  MIQ B 502     -23.082  26.815  -9.820  1.00144.10     0.187 C 
HETATM   24  O9  MIQ B 502     -22.861  27.874  -8.938  1.00148.65    -0.388 OA
HETATM   25  C10 MIQ B 502     -23.071  27.709  -7.567  1.00147.44     0.187 C 
HETATM   26  C11 MIQ B 502     -22.852  26.329  -6.956  1.00144.08     0.149 C 
ENDBRANCH   5  21
TORSDOF 2
ENDMDL
MODEL 7
REMARK VINA RESULT:      -5.7     19.138     21.611
REMARK  2 active torsions:
REMARK  status: ('A' for Active; 'I' for Inactive)
REMARK    1  A    between atoms: C5_5  and  N6_21 
REMARK    2  A    between atoms: C18_14  and  N17_19 
ROOT
HETATM    1  O1  MIQ B 502      -6.735  19.137   6.584  1.00142.91    -0.171 OA
HETATM    2  C2  MIQ B 502      -6.942  20.452   7.004  1.00141.17     0.195 A 
HETATM    3  C3  MIQ B 502      -6.162  21.712   6.511  1.00141.71     0.035 A 
HETATM    4  C4  MIQ B 502      -5.063  21.913   5.536  1.00142.86     0.046 A 
HETATM    5  C5  MIQ B 502      -4.550  23.212   5.292  1.00139.53     0.031 A 
HETATM    6  C12 MIQ B 502      -5.106  24.354   6.004  1.00139.38     0.030 A 
HETATM    7  C13 MIQ B 502      -6.160  24.162   6.937  1.00141.18     0.019 A 
HETATM    8  C14 MIQ B 502      -6.697  22.796   7.187  1.00138.77     0.033 A 
HETATM    9  C15 MIQ B 502      -7.816  22.206   8.106  1.00142.10     0.195 A 
HETATM   10  N17 MIQ B 502      -7.822  20.902   7.882  1.00139.42    -0.288 N 
HETATM   11  O16 MIQ B 502      -8.636  22.915   8.985  1.00148.93    -0.171 OA
ENDROOT
BRANCH  10  12
HETATM   12  C18 MIQ B 502      -8.735  20.018   8.582  1.00139.82     0.187 C 
HETATM   13  C19 MIQ B 502      -7.899  18.937   9.278  1.00140.06     0.247 C 
HETATM   14  O25 MIQ B 502      -6.991  19.261   9.958  1.00143.95    -0.271 OA
HETATM   15  N20 MIQ B 502      -8.195  17.527   9.129  1.00140.02    -0.296 N 
HETATM   16  H13 MIQ B 502      -7.637  16.832   9.583  1.00142.77     0.171 HD
HETATM   17  C21 MIQ B 502      -9.302  17.157   8.285  1.00142.22     0.224 C 
HETATM   18  C22 MIQ B 502      -9.566  18.040   7.081  1.00139.52     0.106 C 
HETATM   19  O24 MIQ B 502      -9.973  16.214   8.525  1.00146.13    -0.273 OA
HETATM   20  C23 MIQ B 502      -9.770  19.447   7.614  1.00139.15     0.045 C 
ENDBRANCH  10  12
BRANCH   5  21
HETATM   21  N6  MIQ B 502      -3.464  23.392   4.346  1.00140.95    -0.377 N 
HETATM   22  C7  MIQ B 502      -2.098  23.312   4.833  1.00142.12     0.149 C 
HETATM   23  C8  MIQ B 502      -1.137  24.118   3.968  1.00144.10     0.187 C 
HETATM   24  O9  MIQ B 502      -1.300  23.874   2.603  1.00148.65    -0.388 OA
HETATM   25  C10 MIQ B 502      -2.397  23.142   2.140  1.00147.44     0.187 C 
HETATM   26  C11 MIQ B 502      -3.703  23.211   2.925  1.00144.08     0.149 C 
ENDBRANCH   5  21
TORSDOF 2
ENDMDL
MODEL 8
REMARK VINA RESULT:      -5.7      7.101     11.226
REMARK  2 active torsions:
REMARK  status: ('A' for Active; 'I' for Inactive)
REMARK    1  A    between atoms: C5_5  and  N6_21 
REMARK    2  A    between atoms: C18_14  and  N17_19 
ROOT
HETATM    1  O1  MIQ B 502     -24.143  19.618  -5.935  1.00142.91    -0.171 OA
HETATM    2  C2  MIQ B 502     -24.041  21.008  -5.853  1.00141.17     0.195 A 
HETATM    3  C3  MIQ B 502     -23.267  21.936  -6.843  1.00141.71     0.035 A 
HETATM    4  C4  MIQ B 502     -22.472  21.682  -8.068  1.00142.86     0.046 A 
HETATM    5  C5  MIQ B 502     -21.876  22.759  -8.771  1.00139.53     0.031 A 
HETATM    6  C12 MIQ B 502     -22.046  24.121  -8.287  1.00139.38     0.030 A 
HETATM    7  C13 MIQ B 502     -22.809  24.365  -7.114  1.00141.18     0.019 A 
HETATM    8  C14 MIQ B 502     -23.435  23.231  -6.380  1.00138.77     0.033 A 
HETATM    9  C15 MIQ B 502     -24.319  23.107  -5.097  1.00142.10     0.195 A 
HETATM   10  N17 MIQ B 502     -24.567  21.816  -4.948  1.00139.42    -0.288 N 
HETATM   11  O16 MIQ B 502     -24.752  24.149  -4.276  1.00148.93    -0.171 OA
ENDROOT
BRANCH  10  12
HETATM   12  C18 MIQ B 502     -25.357  21.319  -3.837  1.00139.82     0.187 C 
HETATM   13  C19 MIQ B 502     -26.695  22.069  -3.842  1.00140.06     0.247 C 
HETATM   14  O25 MIQ B 502     -27.322  22.121  -4.840  1.00143.95    -0.271 OA
HETATM   15  N20 MIQ B 502     -27.215  22.713  -2.653  1.00140.02    -0.296 N 
HETATM   16  H13 MIQ B 502     -28.087  23.204  -2.672  1.00142.77     0.171 HD
HETATM   17  C21 MIQ B 502     -26.426  22.645  -1.450  1.00142.22     0.224 C 
HETATM   18  C22 MIQ B 502     -24.920  22.647  -1.622  1.00139.52     0.106 C 
HETATM   19  O24 MIQ B 502     -26.931  22.585  -0.383  1.00146.13    -0.273 OA
HETATM   20  C23 MIQ B 502     -24.587  21.473  -2.526  1.00139.15     0.045 C 
ENDBRANCH  10  12
BRANCH   5  21
HETATM   21  N6  MIQ B 502     -21.087  22.494  -9.961  1.00140.95    -0.377 N 
HETATM   22  C7  MIQ B 502     -20.486  21.180 -10.118  1.00142.12     0.149 C 
HETATM   23  C8  MIQ B 502     -19.236  21.227 -10.986  1.00144.10     0.187 C 
HETATM   24  O9  MIQ B 502     -19.423  21.943 -12.171  1.00148.65    -0.388 OA
HETATM   25  C10 MIQ B 502     -20.579  22.704 -12.362  1.00147.44     0.187 C 
HETATM   26  C11 MIQ B 502     -21.256  23.321 -11.143  1.00144.08     0.149 C 
ENDBRANCH   5  21
TORSDOF 2
ENDMDL
MODEL 9
REMARK VINA RESULT:      -5.7      8.683     12.612
REMARK  2 active torsions:
REMARK  status: ('A' for Active; 'I' for Inactive)
REMARK    1  A    between atoms: C5_5  and  N6_21 
REMARK    2  A    between atoms: C18_14  and  N17_19 
ROOT
HETATM    1  O1  MIQ B 502     -26.092  25.357  -4.167  1.00142.91    -0.171 OA
HETATM    2  C2  MIQ B 502     -25.339  24.307  -4.697  1.00141.17     0.195 A 
HETATM    3  C3  MIQ B 502     -24.471  24.359  -5.994  1.00141.71     0.035 A 
HETATM    4  C4  MIQ B 502     -24.183  25.422  -6.986  1.00142.86     0.046 A 
HETATM    5  C5  MIQ B 502     -23.330  25.161  -8.089  1.00139.53     0.031 A 
HETATM    6  C12 MIQ B 502     -22.735  23.842  -8.246  1.00139.38     0.030 A 
HETATM    7  C13 MIQ B 502     -23.010  22.823  -7.295  1.00141.18     0.019 A 
HETATM    8  C14 MIQ B 502     -23.903  23.103  -6.138  1.00138.77     0.033 A 
HETATM    9  C15 MIQ B 502     -24.422  22.267  -4.922  1.00142.10     0.195 A 
HETATM   10  N17 MIQ B 502     -25.199  23.080  -4.226  1.00139.42    -0.288 N 
HETATM   11  O16 MIQ B 502     -24.125  20.934  -4.637  1.00148.93    -0.171 OA
ENDROOT
BRANCH  10  12
HETATM   12  C18 MIQ B 502     -25.875  22.634  -3.021  1.00139.82     0.187 C 
HETATM   13  C19 MIQ B 502     -24.812  22.072  -2.070  1.00140.06     0.247 C 
HETATM   14  O25 MIQ B 502     -23.858  22.720  -1.824  1.00143.95    -0.271 OA
HETATM   15  N20 MIQ B 502     -24.950  20.766  -1.457  1.00140.02    -0.296 N 
HETATM   16  H13 MIQ B 502     -24.246  20.408  -0.842  1.00142.77     0.171 HD
HETATM   17  C21 MIQ B 502     -26.119  19.989  -1.780  1.00142.22     0.224 C 
HETATM   18  C22 MIQ B 502     -26.674  20.145  -3.182  1.00139.52     0.106 C 
HETATM   19  O24 MIQ B 502     -26.621  19.270  -0.988  1.00146.13    -0.273 OA
HETATM   20  C23 MIQ B 502     -26.967  21.623  -3.368  1.00139.15     0.045 C 
ENDBRANCH  10  12
BRANCH   5  21
HETATM   21  N6  MIQ B 502     -23.069  26.207  -9.061  1.00140.95    -0.377 N 
HETATM   22  C7  MIQ B 502     -23.524  26.015 -10.427  1.00142.12     0.149 C 
HETATM   23  C8  MIQ B 502     -22.677  26.796 -11.424  1.00144.10     0.187 C 
HETATM   24  O9  MIQ B 502     -22.476  28.124 -11.043  1.00148.65    -0.388 OA
HETATM   25  C10 MIQ B 502     -22.838  28.556  -9.764  1.00147.44     0.187 C 
HETATM   26  C11 MIQ B 502     -22.780  27.558  -8.613  1.00144.08     0.149 C 
ENDBRANCH   5  21
TORSDOF 2
ENDMDL
