MODEL 1
REMARK VINA RESULT:      -7.7      0.000      0.000
REMARK  2 active torsions:
REMARK  status: ('A' for Active; 'I' for Inactive)
REMARK    1  A    between atoms: C5_5  and  N6_21 
REMARK    2  A    between atoms: C18_14  and  N17_19 
ROOT
HETATM    1  O1  MIQ B 502      16.013 -13.629 -10.832  1.00142.91    -0.171 OA
HETATM    2  C2  MIQ B 502      15.138 -13.743  -9.749  1.00141.17     0.195 A 
HETATM    3  C3  MIQ B 502      14.665 -15.074  -9.082  1.00141.71     0.035 A 
HETATM    4  C4  MIQ B 502      14.955 -16.504  -9.342  1.00142.86     0.046 A 
HETATM    5  C5  MIQ B 502      14.360 -17.513  -8.544  1.00139.53     0.031 A 
HETATM    6  C12 MIQ B 502      13.459 -17.141  -7.462  1.00139.38     0.030 A 
HETATM    7  C13 MIQ B 502      13.181 -15.770  -7.212  1.00141.18     0.019 A 
HETATM    8  C14 MIQ B 502      13.811 -14.715  -8.051  1.00138.77     0.033 A 
HETATM    9  C15 MIQ B 502      13.755 -13.153  -8.079  1.00142.10     0.195 A 
HETATM   10  N17 MIQ B 502      14.544 -12.776  -9.072  1.00139.42    -0.288 N 
HETATM   11  O16 MIQ B 502      13.017 -12.328  -7.228  1.00148.93    -0.171 OA
ENDROOT
BRANCH  10  12
HETATM   12  C18 MIQ B 502      14.725 -11.376  -9.406  1.00139.82     0.187 C 
HETATM   13  C19 MIQ B 502      15.178 -10.646  -8.135  1.00140.06     0.247 C 
HETATM   14  O25 MIQ B 502      16.090 -11.074  -7.520  1.00143.95    -0.271 OA
HETATM   15  N20 MIQ B 502      14.522  -9.442  -7.670  1.00140.02    -0.296 N 
HETATM   16  H13 MIQ B 502      14.823  -8.979  -6.836  1.00142.77     0.171 HD
HETATM   17  C21 MIQ B 502      13.405  -8.946  -8.432  1.00142.22     0.224 C 
HETATM   18  C22 MIQ B 502      12.528  -9.981  -9.109  1.00139.52     0.106 C 
HETATM   19  O24 MIQ B 502      13.187  -7.788  -8.528  1.00146.13    -0.273 OA
HETATM   20  C23 MIQ B 502      13.441 -10.801 -10.003  1.00139.15     0.045 C 
ENDBRANCH  10  12
BRANCH   5  21
HETATM   21  N6  MIQ B 502      14.641 -18.910  -8.820  1.00140.95    -0.377 N 
HETATM   22  C7  MIQ B 502      15.538 -19.235  -9.916  1.00142.12     0.149 C 
HETATM   23  C8  MIQ B 502      15.252 -20.615 -10.495  1.00144.10     0.187 C 
HETATM   24  O9  MIQ B 502      15.127 -21.600  -9.514  1.00148.65    -0.388 OA
HETATM   25  C10 MIQ B 502      15.048 -21.249  -8.163  1.00147.44     0.187 C 
HETATM   26  C11 MIQ B 502      14.413 -19.912  -7.793  1.00144.08     0.149 C 
ENDBRANCH   5  21
TORSDOF 2
ENDMDL
MODEL 2
REMARK VINA RESULT:      -7.5      2.050      3.204
REMARK  2 active torsions:
REMARK  status: ('A' for Active; 'I' for Inactive)
REMARK    1  A    between atoms: C5_5  and  N6_21 
REMARK    2  A    between atoms: C18_14  and  N17_19 
ROOT
HETATM    1  O1  MIQ B 502      12.736 -12.160  -7.222  1.00142.91    -0.171 OA
HETATM    2  C2  MIQ B 502      13.377 -13.009  -8.126  1.00141.17     0.195 A 
HETATM    3  C3  MIQ B 502      13.282 -14.567  -8.155  1.00141.71     0.035 A 
HETATM    4  C4  MIQ B 502      12.557 -15.559  -7.326  1.00142.86     0.046 A 
HETATM    5  C5  MIQ B 502      12.669 -16.945  -7.605  1.00139.53     0.031 A 
HETATM    6  C12 MIQ B 502      13.500 -17.394  -8.712  1.00139.38     0.030 A 
HETATM    7  C13 MIQ B 502      14.195 -16.444  -9.508  1.00141.18     0.019 A 
HETATM    8  C14 MIQ B 502      14.072 -14.990  -9.212  1.00138.77     0.033 A 
HETATM    9  C15 MIQ B 502      14.660 -13.686  -9.843  1.00142.10     0.195 A 
HETATM   10  N17 MIQ B 502      14.177 -12.684  -9.128  1.00139.42    -0.288 N 
HETATM   11  O16 MIQ B 502      15.523 -13.603 -10.937  1.00148.93    -0.171 OA
ENDROOT
BRANCH  10  12
HETATM   12  C18 MIQ B 502      14.527 -11.307  -9.421  1.00139.82     0.187 C 
HETATM   13  C19 MIQ B 502      15.084 -10.682  -8.136  1.00140.06     0.247 C 
HETATM   14  O25 MIQ B 502      15.942 -11.239  -7.550  1.00143.95    -0.271 OA
HETATM   15  N20 MIQ B 502      14.589  -9.421  -7.623  1.00140.02    -0.296 N 
HETATM   16  H13 MIQ B 502      14.956  -9.027  -6.779  1.00142.77     0.171 HD
HETATM   17  C21 MIQ B 502      13.533  -8.765  -8.350  1.00142.22     0.224 C 
HETATM   18  C22 MIQ B 502      12.525  -9.660  -9.045  1.00139.52     0.106 C 
HETATM   19  O24 MIQ B 502      13.461  -7.587  -8.406  1.00146.13    -0.273 OA
HETATM   20  C23 MIQ B 502      13.317 -10.558  -9.978  1.00139.15     0.045 C 
ENDBRANCH  10  12
BRANCH   5  21
HETATM   21  N6  MIQ B 502      11.965 -17.906  -6.776  1.00140.95    -0.377 N 
HETATM   22  C7  MIQ B 502      12.735 -18.935  -6.099  1.00142.12     0.149 C 
HETATM   23  C8  MIQ B 502      11.904 -20.184  -5.831  1.00144.10     0.187 C 
HETATM   24  O9  MIQ B 502      10.661 -19.898  -5.264  1.00148.65    -0.388 OA
HETATM   25  C10 MIQ B 502      10.200 -18.581  -5.196  1.00147.44     0.187 C 
HETATM   26  C11 MIQ B 502      10.635 -17.599  -6.278  1.00144.08     0.149 C 
ENDBRANCH   5  21
TORSDOF 2
ENDMDL
MODEL 3
REMARK VINA RESULT:      -7.4      1.981      2.787
REMARK  2 active torsions:
REMARK  status: ('A' for Active; 'I' for Inactive)
REMARK    1  A    between atoms: C5_5  and  N6_21 
REMARK    2  A    between atoms: C18_14  and  N17_19 
ROOT
HETATM    1  O1  MIQ B 502      14.496 -14.008  -9.800  1.00142.91    -0.171 OA
HETATM    2  C2  MIQ B 502      13.716 -14.783  -8.938  1.00141.17     0.195 A 
HETATM    3  C3  MIQ B 502      13.946 -16.288  -8.589  1.00141.71     0.035 A 
HETATM    4  C4  MIQ B 502      14.958 -17.288  -9.006  1.00142.86     0.046 A 
HETATM    5  C5  MIQ B 502      14.905 -18.613  -8.505  1.00139.53     0.031 A 
HETATM    6  C12 MIQ B 502      13.851 -18.992  -7.575  1.00139.38     0.030 A 
HETATM    7  C13 MIQ B 502      12.881 -18.033  -7.174  1.00141.18     0.019 A 
HETATM    8  C14 MIQ B 502      12.943 -16.643  -7.702  1.00138.77     0.033 A 
HETATM    9  C15 MIQ B 502      12.087 -15.351  -7.498  1.00142.10     0.195 A 
HETATM   10  N17 MIQ B 502      12.649 -14.418  -8.248  1.00139.42    -0.288 N 
HETATM   11  O16 MIQ B 502      10.957 -15.216  -6.690  1.00148.93    -0.171 OA
ENDROOT
BRANCH  10  12
HETATM   12  C18 MIQ B 502      12.106 -13.074  -8.320  1.00139.82     0.187 C 
HETATM   13  C19 MIQ B 502      12.012 -12.687  -9.801  1.00140.06     0.247 C 
HETATM   14  O25 MIQ B 502      11.477 -13.419 -10.556  1.00143.95    -0.271 OA
HETATM   15  N20 MIQ B 502      12.557 -11.441 -10.300  1.00140.02    -0.296 N 
HETATM   16  H13 MIQ B 502      12.496 -11.202 -11.271  1.00142.77     0.171 HD
HETATM   17  C21 MIQ B 502      13.215 -10.568  -9.362  1.00142.22     0.224 C 
HETATM   18  C22 MIQ B 502      13.965 -11.233  -8.224  1.00139.52     0.106 C 
HETATM   19  O24 MIQ B 502      13.165  -9.393  -9.473  1.00146.13    -0.273 OA
HETATM   20  C23 MIQ B 502      12.960 -12.110  -7.499  1.00139.15     0.045 C 
ENDBRANCH  10  12
BRANCH   5  21
HETATM   21  N6  MIQ B 502      15.894 -19.585  -8.933  1.00140.95    -0.377 N 
HETATM   22  C7  MIQ B 502      16.802 -20.135  -7.941  1.00142.12     0.149 C 
HETATM   23  C8  MIQ B 502      18.117 -20.588  -8.564  1.00144.10     0.187 C 
HETATM   24  O9  MIQ B 502      17.936 -21.370  -9.706  1.00148.65    -0.388 OA
HETATM   25  C10 MIQ B 502      16.673 -21.486 -10.292  1.00147.44     0.187 C 
HETATM   26  C11 MIQ B 502      15.704 -20.314 -10.175  1.00144.08     0.149 C 
ENDBRANCH   5  21
TORSDOF 2
ENDMDL
MODEL 4
REMARK VINA RESULT:      -7.4      3.533      8.376
REMARK  2 active torsions:
REMARK  status: ('A' for Active; 'I' for Inactive)
REMARK    1  A    between atoms: C5_5  and  N6_21 
REMARK    2  A    between atoms: C18_14  and  N17_19 
ROOT
HETATM    1  O1  MIQ B 502      13.461 -11.765  -7.682  1.00142.91    -0.171 OA
HETATM    2  C2  MIQ B 502      14.532 -12.199  -8.466  1.00141.17     0.195 A 
HETATM    3  C3  MIQ B 502      15.833 -11.392  -8.777  1.00141.71     0.035 A 
HETATM    4  C4  MIQ B 502      16.315 -10.046  -8.387  1.00142.86     0.046 A 
HETATM    5  C5  MIQ B 502      17.575  -9.578  -8.838  1.00139.53     0.031 A 
HETATM    6  C12 MIQ B 502      18.399 -10.425  -9.689  1.00139.38     0.030 A 
HETATM    7  C13 MIQ B 502      17.937 -11.716 -10.063  1.00141.18     0.019 A 
HETATM    8  C14 MIQ B 502      16.614 -12.203  -9.584  1.00138.77     0.033 A 
HETATM    9  C15 MIQ B 502      15.795 -13.521  -9.774  1.00142.10     0.195 A 
HETATM   10  N17 MIQ B 502      14.674 -13.355  -9.090  1.00139.42    -0.288 N 
HETATM   11  O16 MIQ B 502      16.172 -14.641 -10.517  1.00148.93    -0.171 OA
ENDROOT
BRANCH  10  12
HETATM   12  C18 MIQ B 502      13.652 -14.384  -9.052  1.00139.82     0.187 C 
HETATM   13  C19 MIQ B 502      12.348 -13.768  -9.573  1.00140.06     0.247 C 
HETATM   14  O25 MIQ B 502      12.354 -13.192 -10.603  1.00143.95    -0.271 OA
HETATM   15  N20 MIQ B 502      11.104 -13.877  -8.839  1.00140.02    -0.296 N 
HETATM   16  H13 MIQ B 502      10.261 -13.465  -9.187  1.00142.77     0.171 HD
HETATM   17  C21 MIQ B 502      11.123 -14.576  -7.580  1.00142.22     0.224 C 
HETATM   18  C22 MIQ B 502      12.392 -14.462  -6.757  1.00139.52     0.106 C 
HETATM   19  O24 MIQ B 502      10.197 -15.210  -7.211  1.00146.13    -0.273 OA
HETATM   20  C23 MIQ B 502      13.524 -14.955  -7.640  1.00139.15     0.045 C 
ENDBRANCH  10  12
BRANCH   5  21
HETATM   21  N6  MIQ B 502      18.029  -8.252  -8.460  1.00140.95    -0.377 N 
HETATM   22  C7  MIQ B 502      19.078  -8.135  -7.462  1.00142.12     0.149 C 
HETATM   23  C8  MIQ B 502      19.005  -6.810  -6.713  1.00144.10     0.187 C 
HETATM   24  O9  MIQ B 502      18.866  -5.712  -7.564  1.00148.65    -0.388 OA
HETATM   25  C10 MIQ B 502      18.591  -5.898  -8.921  1.00147.44     0.187 C 
HETATM   26  C11 MIQ B 502      17.784  -7.123  -9.340  1.00144.08     0.149 C 
ENDBRANCH   5  21
TORSDOF 2
ENDMDL
MODEL 5
REMARK VINA RESULT:      -7.4      3.737      6.314
REMARK  2 active torsions:
REMARK  status: ('A' for Active; 'I' for Inactive)
REMARK    1  A    between atoms: C5_5  and  N6_21 
REMARK    2  A    between atoms: C18_14  and  N17_19 
ROOT
HETATM    1  O1  MIQ B 502      14.183 -12.404  -7.830  1.00142.91    -0.171 OA
HETATM    2  C2  MIQ B 502      13.772 -13.737  -7.906  1.00141.17     0.195 A 
HETATM    3  C3  MIQ B 502      12.543 -14.366  -7.176  1.00141.71     0.035 A 
HETATM    4  C4  MIQ B 502      11.512 -13.821  -6.262  1.00142.86     0.046 A 
HETATM    5  C5  MIQ B 502      10.492 -14.661  -5.748  1.00139.53     0.031 A 
HETATM    6  C12 MIQ B 502      10.459 -16.068  -6.122  1.00139.38     0.030 A 
HETATM    7  C13 MIQ B 502      11.447 -16.591  -6.999  1.00141.18     0.019 A 
HETATM    8  C14 MIQ B 502      12.513 -15.703  -7.537  1.00138.77     0.033 A 
HETATM    9  C15 MIQ B 502      13.731 -15.905  -8.497  1.00142.10     0.195 A 
HETATM   10  N17 MIQ B 502      14.317 -14.724  -8.596  1.00139.42    -0.288 N 
HETATM   11  O16 MIQ B 502      14.117 -17.094  -9.119  1.00148.93    -0.171 OA
ENDROOT
BRANCH  10  12
HETATM   12  C18 MIQ B 502      15.507 -14.535  -9.405  1.00139.82     0.187 C 
HETATM   13  C19 MIQ B 502      16.566 -13.856  -8.527  1.00140.06     0.247 C 
HETATM   14  O25 MIQ B 502      16.820 -14.317  -7.471  1.00143.95    -0.271 OA
HETATM   15  N20 MIQ B 502      17.270 -12.666  -8.961  1.00140.02    -0.296 N 
HETATM   16  H13 MIQ B 502      17.954 -12.229  -8.375  1.00142.77     0.171 HD
HETATM   17  C21 MIQ B 502      16.935 -12.117 -10.249  1.00142.22     0.224 C 
HETATM   18  C22 MIQ B 502      15.492 -12.256 -10.695  1.00139.52     0.106 C 
HETATM   19  O24 MIQ B 502      17.748 -11.589 -10.926  1.00146.13    -0.273 OA
HETATM   20  C23 MIQ B 502      15.173 -13.739 -10.666  1.00139.15     0.045 C 
ENDBRANCH  10  12
BRANCH   5  21
HETATM   21  N6  MIQ B 502       9.497 -14.117  -4.842  1.00140.95    -0.377 N 
HETATM   22  C7  MIQ B 502       8.105 -14.114  -5.259  1.00142.12     0.149 C 
HETATM   23  C8  MIQ B 502       7.312 -13.003  -4.583  1.00144.10     0.187 C 
HETATM   24  O9  MIQ B 502       7.521 -12.947  -3.204  1.00148.65    -0.388 OA
HETATM   25  C10 MIQ B 502       8.538 -13.700  -2.612  1.00147.44     0.187 C 
HETATM   26  C11 MIQ B 502       9.794 -13.998  -3.425  1.00144.08     0.149 C 
ENDBRANCH   5  21
TORSDOF 2
ENDMDL
MODEL 6
REMARK VINA RESULT:      -7.4      2.417      2.957
REMARK  2 active torsions:
REMARK  status: ('A' for Active; 'I' for Inactive)
REMARK    1  A    between atoms: C5_5  and  N6_21 
REMARK    2  A    between atoms: C18_14  and  N17_19 
ROOT
HETATM    1  O1  MIQ B 502      17.612 -14.361  -9.982  1.00142.91    -0.171 OA
HETATM    2  C2  MIQ B 502      16.438 -14.677  -9.294  1.00141.17     0.195 A 
HETATM    3  C3  MIQ B 502      15.854 -16.109  -9.076  1.00141.71     0.035 A 
HETATM    4  C4  MIQ B 502      16.300 -17.464  -9.479  1.00142.86     0.046 A 
HETATM    5  C5  MIQ B 502      15.538 -18.605  -9.123  1.00139.53     0.031 A 
HETATM    6  C12 MIQ B 502      14.310 -18.444  -8.357  1.00139.38     0.030 A 
HETATM    7  C13 MIQ B 502      13.883 -17.145  -7.970  1.00141.18     0.019 A 
HETATM    8  C14 MIQ B 502      14.688 -15.951  -8.344  1.00138.77     0.033 A 
HETATM    9  C15 MIQ B 502      14.549 -14.412  -8.105  1.00142.10     0.195 A 
HETATM   10  N17 MIQ B 502      15.596 -13.855  -8.691  1.00139.42    -0.288 N 
HETATM   11  O16 MIQ B 502      13.523 -13.763  -7.416  1.00148.93    -0.171 OA
ENDROOT
BRANCH  10  12
HETATM   12  C18 MIQ B 502      15.791 -12.417  -8.686  1.00139.82     0.187 C 
HETATM   13  C19 MIQ B 502      16.032 -11.973 -10.134  1.00140.06     0.247 C 
HETATM   14  O25 MIQ B 502      15.276 -12.312 -10.973  1.00143.95    -0.271 OA
HETATM   15  N20 MIQ B 502      17.161 -11.142 -10.500  1.00140.02    -0.296 N 
HETATM   16  H13 MIQ B 502      17.310 -10.864 -11.450  1.00142.77     0.171 HD
HETATM   17  C21 MIQ B 502      18.075 -10.750  -9.459  1.00142.22     0.224 C 
HETATM   18  C22 MIQ B 502      18.298 -11.746  -8.337  1.00139.52     0.106 C 
HETATM   19  O24 MIQ B 502      18.620  -9.701  -9.477  1.00146.13    -0.273 OA
HETATM   20  C23 MIQ B 502      16.932 -12.039  -7.743  1.00139.15     0.045 C 
ENDBRANCH  10  12
BRANCH   5  21
HETATM   21  N6  MIQ B 502      15.979 -19.925  -9.537  1.00140.95    -0.377 N 
HETATM   22  C7  MIQ B 502      15.430 -20.489 -10.758  1.00142.12     0.149 C 
HETATM   23  C8  MIQ B 502      15.443 -22.012 -10.736  1.00144.10     0.187 C 
HETATM   24  O9  MIQ B 502      16.673 -22.539 -10.335  1.00148.65    -0.388 OA
HETATM   25  C10 MIQ B 502      17.659 -21.707  -9.800  1.00147.44     0.187 C 
HETATM   26  C11 MIQ B 502      17.225 -20.467  -9.025  1.00144.08     0.149 C 
ENDBRANCH   5  21
TORSDOF 2
ENDMDL
MODEL 7
REMARK VINA RESULT:      -7.3      3.508      5.784
REMARK  2 active torsions:
REMARK  status: ('A' for Active; 'I' for Inactive)
REMARK    1  A    between atoms: C5_5  and  N6_21 
REMARK    2  A    between atoms: C18_14  and  N17_19 
ROOT
HETATM    1  O1  MIQ B 502      13.398 -10.403  -8.191  1.00142.91    -0.171 OA
HETATM    2  C2  MIQ B 502      13.935 -11.690  -8.116  1.00141.17     0.195 A 
HETATM    3  C3  MIQ B 502      13.208 -12.963  -7.575  1.00141.71     0.035 A 
HETATM    4  C4  MIQ B 502      11.853 -13.205  -7.025  1.00142.86     0.046 A 
HETATM    5  C5  MIQ B 502      11.472 -14.505  -6.607  1.00139.53     0.031 A 
HETATM    6  C12 MIQ B 502      12.417 -15.607  -6.721  1.00139.38     0.030 A 
HETATM    7  C13 MIQ B 502      13.715 -15.375  -7.250  1.00141.18     0.019 A 
HETATM    8  C14 MIQ B 502      14.109 -14.009  -7.689  1.00138.77     0.033 A 
HETATM    9  C15 MIQ B 502      15.403 -13.382  -8.305  1.00142.10     0.195 A 
HETATM   10  N17 MIQ B 502      15.138 -12.098  -8.481  1.00139.42    -0.288 N 
HETATM   11  O16 MIQ B 502      16.593 -14.047  -8.602  1.00148.93    -0.171 OA
ENDROOT
BRANCH  10  12
HETATM   12  C18 MIQ B 502      16.129 -11.189  -9.027  1.00139.82     0.187 C 
HETATM   13  C19 MIQ B 502      16.728 -11.846 -10.277  1.00140.06     0.247 C 
HETATM   14  O25 MIQ B 502      16.005 -12.262 -11.111  1.00143.95    -0.271 OA
HETATM   15  N20 MIQ B 502      18.159 -11.964 -10.466  1.00140.02    -0.296 N 
HETATM   16  H13 MIQ B 502      18.538 -12.401 -11.283  1.00142.77     0.171 HD
HETATM   17  C21 MIQ B 502      19.020 -11.458  -9.428  1.00142.22     0.224 C 
HETATM   18  C22 MIQ B 502      18.510 -11.567  -8.005  1.00139.52     0.106 C 
HETATM   19  O24 MIQ B 502      20.071 -10.976  -9.678  1.00146.13    -0.273 OA
HETATM   20  C23 MIQ B 502      17.175 -10.845  -7.969  1.00139.15     0.045 C 
ENDBRANCH  10  12
BRANCH   5  21
HETATM   21  N6  MIQ B 502      10.147 -14.726  -6.056  1.00140.95    -0.377 N 
HETATM   22  C7  MIQ B 502       9.711 -13.898  -4.944  1.00142.12     0.149 C 
HETATM   23  C8  MIQ B 502       8.672 -14.605  -4.083  1.00144.10     0.187 C 
HETATM   24  O9  MIQ B 502       7.648 -15.185  -4.833  1.00148.65    -0.388 OA
HETATM   25  C10 MIQ B 502       7.752 -15.274  -6.223  1.00147.44     0.187 C 
HETATM   26  C11 MIQ B 502       9.138 -15.412  -6.844  1.00144.08     0.149 C 
ENDBRANCH   5  21
TORSDOF 2
ENDMDL
MODEL 8
REMARK VINA RESULT:      -7.3      1.713      2.865
REMARK  2 active torsions:
REMARK  status: ('A' for Active; 'I' for Inactive)
REMARK    1  A    between atoms: C5_5  and  N6_21 
REMARK    2  A    between atoms: C18_14  and  N17_19 
ROOT
HETATM    1  O1  MIQ B 502      11.699 -15.606  -7.182  1.00142.91    -0.171 OA
HETATM    2  C2  MIQ B 502      12.770 -15.372  -8.048  1.00141.17     0.195 A 
HETATM    3  C3  MIQ B 502      13.779 -16.440  -8.576  1.00141.71     0.035 A 
HETATM    4  C4  MIQ B 502      13.923 -17.900  -8.362  1.00142.86     0.046 A 
HETATM    5  C5  MIQ B 502      14.969 -18.617  -8.996  1.00139.53     0.031 A 
HETATM    6  C12 MIQ B 502      15.905 -17.915  -9.863  1.00139.38     0.030 A 
HETATM    7  C13 MIQ B 502      15.766 -16.516 -10.069  1.00141.18     0.019 A 
HETATM    8  C14 MIQ B 502      14.666 -15.769  -9.402  1.00138.77     0.033 A 
HETATM    9  C15 MIQ B 502      14.203 -14.275  -9.388  1.00142.10     0.195 A 
HETATM   10  N17 MIQ B 502      13.144 -14.228  -8.595  1.00139.42    -0.288 N 
HETATM   11  O16 MIQ B 502      14.793 -13.211 -10.071  1.00148.93    -0.171 OA
ENDROOT
BRANCH  10  12
HETATM   12  C18 MIQ B 502      12.451 -12.982  -8.330  1.00139.82     0.187 C 
HETATM   13  C19 MIQ B 502      12.077 -12.358  -9.681  1.00140.06     0.247 C 
HETATM   14  O25 MIQ B 502      11.511 -13.015 -10.481  1.00143.95    -0.271 OA
HETATM   15  N20 MIQ B 502      12.393 -10.981 -10.000  1.00140.02    -0.296 N 
HETATM   16  H13 MIQ B 502      12.149 -10.588 -10.888  1.00142.77     0.171 HD
HETATM   17  C21 MIQ B 502      13.093 -10.203  -9.011  1.00142.22     0.224 C 
HETATM   18  C22 MIQ B 502      14.087 -10.945  -8.138  1.00139.52     0.106 C 
HETATM   19  O24 MIQ B 502      12.897  -9.044  -8.885  1.00146.13    -0.273 OA
HETATM   20  C23 MIQ B 502      13.316 -12.066  -7.465  1.00139.15     0.045 C 
ENDBRANCH  10  12
BRANCH   5  21
HETATM   21  N6  MIQ B 502      15.106 -20.044  -8.766  1.00140.95    -0.377 N 
HETATM   22  C7  MIQ B 502      16.206 -20.747  -9.405  1.00142.12     0.149 C 
HETATM   23  C8  MIQ B 502      15.887 -22.220  -9.625  1.00144.10     0.187 C 
HETATM   24  O9  MIQ B 502      15.362 -22.839  -8.489  1.00148.65    -0.388 OA
HETATM   25  C10 MIQ B 502      14.978 -22.077  -7.382  1.00147.44     0.187 C 
HETATM   26  C11 MIQ B 502      14.470 -20.658  -7.615  1.00144.08     0.149 C 
ENDBRANCH   5  21
TORSDOF 2
ENDMDL
MODEL 9
REMARK VINA RESULT:      -7.3      3.621      5.915
REMARK  2 active torsions:
REMARK  status: ('A' for Active; 'I' for Inactive)
REMARK    1  A    between atoms: C5_5  and  N6_21 
REMARK    2  A    between atoms: C18_14  and  N17_19 
ROOT
HETATM    1  O1  MIQ B 502      12.137 -10.811  -7.564  1.00142.91    -0.171 OA
HETATM    2  C2  MIQ B 502      12.737 -12.071  -7.613  1.00141.17     0.195 A 
HETATM    3  C3  MIQ B 502      12.235 -13.361  -6.891  1.00141.71     0.035 A 
HETATM    4  C4  MIQ B 502      11.079 -13.651  -6.010  1.00142.86     0.046 A 
HETATM    5  C5  MIQ B 502      10.881 -14.957  -5.494  1.00139.53     0.031 A 
HETATM    6  C12 MIQ B 502      11.818 -16.018  -5.833  1.00139.38     0.030 A 
HETATM    7  C13 MIQ B 502      12.926 -15.740  -6.678  1.00141.18     0.019 A 
HETATM    8  C14 MIQ B 502      13.128 -14.368  -7.219  1.00138.77     0.033 A 
HETATM    9  C15 MIQ B 502      14.190 -13.699  -8.151  1.00142.10     0.195 A 
HETATM   10  N17 MIQ B 502      13.827 -12.433  -8.269  1.00139.42    -0.288 N 
HETATM   11  O16 MIQ B 502      15.297 -14.318  -8.735  1.00148.93    -0.171 OA
ENDROOT
BRANCH  10  12
HETATM   12  C18 MIQ B 502      14.600 -11.494  -9.060  1.00139.82     0.187 C 
HETATM   13  C19 MIQ B 502      14.747 -12.080 -10.470  1.00140.06     0.247 C 
HETATM   14  O25 MIQ B 502      13.785 -12.450 -11.043  1.00143.95    -0.271 OA
HETATM   15  N20 MIQ B 502      16.036 -12.186 -11.122  1.00140.02    -0.296 N 
HETATM   16  H13 MIQ B 502      16.120 -12.576 -12.040  1.00142.77     0.171 HD
HETATM   17  C21 MIQ B 502      17.197 -11.736 -10.398  1.00142.22     0.224 C 
HETATM   18  C22 MIQ B 502      17.177 -11.925  -8.893  1.00139.52     0.106 C 
HETATM   19  O24 MIQ B 502      18.116 -11.240 -10.951  1.00146.13    -0.273 OA
HETATM   20  C23 MIQ B 502      15.940 -11.207  -8.385  1.00139.15     0.045 C 
ENDBRANCH  10  12
BRANCH   5  21
HETATM   21  N6  MIQ B 502       9.753 -15.223  -4.620  1.00140.95    -0.377 N 
HETATM   22  C7  MIQ B 502       8.714 -14.214  -4.499  1.00142.12     0.149 C 
HETATM   23  C8  MIQ B 502       7.992 -14.298  -3.161  1.00144.10     0.187 C 
HETATM   24  O9  MIQ B 502       7.601 -15.599  -2.835  1.00148.65    -0.388 OA
HETATM   25  C10 MIQ B 502       8.062 -16.685  -3.584  1.00147.44     0.187 C 
HETATM   26  C11 MIQ B 502       9.436 -16.588  -4.239  1.00144.08     0.149 C 
ENDBRANCH   5  21
TORSDOF 2
ENDMDL
