MODEL 1
REMARK VINA RESULT:      -6.7      0.000      0.000
REMARK  2 active torsions:
REMARK  status: ('A' for Active; 'I' for Inactive)
REMARK    1  A    between atoms: C5_5  and  N6_21 
REMARK    2  A    between atoms: C18_14  and  N17_19 
ROOT
HETATM    1  O1  MIQ B 502      14.797  21.258  -5.238  1.00142.91    -0.171 OA
HETATM    2  C2  MIQ B 502      14.150  21.914  -4.188  1.00141.17     0.195 A 
HETATM    3  C3  MIQ B 502      13.419  21.234  -2.987  1.00141.71     0.035 A 
HETATM    4  C4  MIQ B 502      13.195  19.821  -2.598  1.00142.86     0.046 A 
HETATM    5  C5  MIQ B 502      12.475  19.509  -1.417  1.00139.53     0.031 A 
HETATM    6  C12 MIQ B 502      11.955  20.582  -0.582  1.00139.38     0.030 A 
HETATM    7  C13 MIQ B 502      12.171  21.937  -0.954  1.00141.18     0.019 A 
HETATM    8  C14 MIQ B 502      12.929  22.259  -2.194  1.00138.77     0.033 A 
HETATM    9  C15 MIQ B 502      13.359  23.583  -2.906  1.00142.10     0.195 A 
HETATM   10  N17 MIQ B 502      14.025  23.215  -3.988  1.00139.42    -0.288 N 
HETATM   11  O16 MIQ B 502      13.089  24.885  -2.484  1.00148.93    -0.171 OA
ENDROOT
BRANCH  10  12
HETATM   12  C18 MIQ B 502      14.568  24.193  -4.913  1.00139.82     0.187 C 
HETATM   13  C19 MIQ B 502      15.279  25.272  -4.087  1.00140.06     0.247 C 
HETATM   14  O25 MIQ B 502      16.070  24.948  -3.274  1.00143.95    -0.271 OA
HETATM   15  N20 MIQ B 502      15.010  26.683  -4.281  1.00140.02    -0.296 N 
HETATM   16  H13 MIQ B 502      15.476  27.377  -3.731  1.00142.77     0.171 HD
HETATM   17  C21 MIQ B 502      14.033  27.053  -5.271  1.00142.22     0.224 C 
HETATM   18  C22 MIQ B 502      12.865  26.105  -5.465  1.00139.52     0.106 C 
HETATM   19  O24 MIQ B 502      14.140  28.045  -5.904  1.00146.13    -0.273 OA
HETATM   20  C23 MIQ B 502      13.462  24.751  -5.806  1.00139.15     0.045 C 
ENDBRANCH  10  12
BRANCH   5  21
HETATM   21  N6  MIQ B 502      12.249  18.121  -1.056  1.00140.95    -0.377 N 
HETATM   22  C7  MIQ B 502      13.298  17.408  -0.348  1.00142.12     0.149 C 
HETATM   23  C8  MIQ B 502      13.236  15.907  -0.600  1.00144.10     0.187 C 
HETATM   24  O9  MIQ B 502      11.951  15.384  -0.447  1.00148.65    -0.388 OA
HETATM   25  C10 MIQ B 502      10.851  16.235  -0.311  1.00147.44     0.187 C 
HETATM   26  C11 MIQ B 502      10.896  17.598  -0.994  1.00144.08     0.149 C 
ENDBRANCH   5  21
TORSDOF 2
ENDMDL
MODEL 2
REMARK VINA RESULT:      -6.7     14.043     17.294
REMARK  2 active torsions:
REMARK  status: ('A' for Active; 'I' for Inactive)
REMARK    1  A    between atoms: C5_5  and  N6_21 
REMARK    2  A    between atoms: C18_14  and  N17_19 
ROOT
HETATM    1  O1  MIQ B 502       5.972  10.996   6.806  1.00142.91    -0.171 OA
HETATM    2  C2  MIQ B 502       5.791  12.286   7.309  1.00141.17     0.195 A 
HETATM    3  C3  MIQ B 502       4.856  12.691   8.493  1.00141.71     0.035 A 
HETATM    4  C4  MIQ B 502       3.950  11.927   9.384  1.00142.86     0.046 A 
HETATM    5  C5  MIQ B 502       3.213  12.591  10.397  1.00139.53     0.031 A 
HETATM    6  C12 MIQ B 502       3.348  14.032  10.562  1.00139.38     0.030 A 
HETATM    7  C13 MIQ B 502       4.217  14.764   9.709  1.00141.18     0.019 A 
HETATM    8  C14 MIQ B 502       4.990  14.061   8.649  1.00138.77     0.033 A 
HETATM    9  C15 MIQ B 502       6.015  14.509   7.556  1.00142.10     0.195 A 
HETATM   10  N17 MIQ B 502       6.360  13.410   6.907  1.00139.42    -0.288 N 
HETATM   11  O16 MIQ B 502       6.467  15.808   7.317  1.00148.93    -0.171 OA
ENDROOT
BRANCH  10  12
HETATM   12  C18 MIQ B 502       7.296  13.447   5.799  1.00139.82     0.187 C 
HETATM   13  C19 MIQ B 502       6.618  12.788   4.591  1.00140.06     0.247 C 
HETATM   14  O25 MIQ B 502       5.541  13.145   4.269  1.00143.95    -0.271 OA
HETATM   15  N20 MIQ B 502       7.267  11.741   3.829  1.00140.02    -0.296 N 
HETATM   16  H13 MIQ B 502       6.811  11.314   3.046  1.00142.77     0.171 HD
HETATM   17  C21 MIQ B 502       8.577  11.314   4.248  1.00142.22     0.224 C 
HETATM   18  C22 MIQ B 502       8.861  11.348   5.737  1.00139.52     0.106 C 
HETATM   19  O24 MIQ B 502       9.391  10.961   3.467  1.00146.13    -0.273 OA
HETATM   20  C23 MIQ B 502       8.611  12.775   6.191  1.00139.15     0.045 C 
ENDBRANCH  10  12
BRANCH   5  21
HETATM   21  N6  MIQ B 502       2.319  11.833  11.252  1.00140.95    -0.377 N 
HETATM   22  C7  MIQ B 502       0.897  11.845  10.954  1.00142.12     0.149 C 
HETATM   23  C8  MIQ B 502       0.053  11.597  12.198  1.00144.10     0.187 C 
HETATM   24  O9  MIQ B 502       0.497  10.505  12.947  1.00148.65    -0.388 OA
HETATM   25  C10 MIQ B 502       1.723   9.901  12.659  1.00147.44     0.187 C 
HETATM   26  C11 MIQ B 502       2.842  10.760  12.080  1.00144.08     0.149 C 
ENDBRANCH   5  21
TORSDOF 2
ENDMDL
MODEL 3
REMARK VINA RESULT:      -6.7      1.340      2.382
REMARK  2 active torsions:
REMARK  status: ('A' for Active; 'I' for Inactive)
REMARK    1  A    between atoms: C5_5  and  N6_21 
REMARK    2  A    between atoms: C18_14  and  N17_19 
ROOT
HETATM    1  O1  MIQ B 502      12.944  24.255  -3.669  1.00142.91    -0.171 OA
HETATM    2  C2  MIQ B 502      13.869  23.332  -4.163  1.00141.17     0.195 A 
HETATM    3  C3  MIQ B 502      13.929  21.811  -3.815  1.00141.71     0.035 A 
HETATM    4  C4  MIQ B 502      13.114  20.931  -2.944  1.00142.86     0.046 A 
HETATM    5  C5  MIQ B 502      13.421  19.552  -2.830  1.00139.53     0.031 A 
HETATM    6  C12 MIQ B 502      14.542  18.997  -3.574  1.00139.38     0.030 A 
HETATM    7  C13 MIQ B 502      15.324  19.840  -4.410  1.00141.18     0.019 A 
HETATM    8  C14 MIQ B 502      14.995  21.287  -4.528  1.00138.77     0.033 A 
HETATM    9  C15 MIQ B 502      15.600  22.490  -5.323  1.00142.10     0.195 A 
HETATM   10  N17 MIQ B 502      14.861  23.542  -5.011  1.00139.42    -0.288 N 
HETATM   11  O16 MIQ B 502      16.699  22.456  -6.183  1.00148.93    -0.171 OA
ENDROOT
BRANCH  10  12
HETATM   12  C18 MIQ B 502      15.144  24.856  -5.559  1.00139.82     0.187 C 
HETATM   13  C19 MIQ B 502      15.281  25.832  -4.384  1.00140.06     0.247 C 
HETATM   14  O25 MIQ B 502      16.004  25.562  -3.492  1.00143.95    -0.271 OA
HETATM   15  N20 MIQ B 502      14.551  27.083  -4.342  1.00140.02    -0.296 N 
HETATM   16  H13 MIQ B 502      14.644  27.709  -3.566  1.00142.77     0.171 HD
HETATM   17  C21 MIQ B 502      13.667  27.385  -5.438  1.00142.22     0.224 C 
HETATM   18  C22 MIQ B 502      12.968  26.210  -6.093  1.00139.52     0.106 C 
HETATM   19  O24 MIQ B 502      13.501  28.495  -5.809  1.00146.13    -0.273 OA
HETATM   20  C23 MIQ B 502      14.059  25.262  -6.555  1.00139.15     0.045 C 
ENDBRANCH  10  12
BRANCH   5  21
HETATM   21  N6  MIQ B 502      12.623  18.705  -1.962  1.00140.95    -0.377 N 
HETATM   22  C7  MIQ B 502      13.192  18.278  -0.695  1.00142.12     0.149 C 
HETATM   23  C8  MIQ B 502      12.593  16.961  -0.219  1.00144.10     0.187 C 
HETATM   24  O9  MIQ B 502      11.198  16.943  -0.283  1.00148.65    -0.388 OA
HETATM   25  C10 MIQ B 502      10.507  17.963  -0.943  1.00147.44     0.187 C 
HETATM   26  C11 MIQ B 502      11.180  18.655  -2.124  1.00144.08     0.149 C 
ENDBRANCH   5  21
TORSDOF 2
ENDMDL
MODEL 4
REMARK VINA RESULT:      -6.6     11.713     16.292
REMARK  2 active torsions:
REMARK  status: ('A' for Active; 'I' for Inactive)
REMARK    1  A    between atoms: C5_5  and  N6_21 
REMARK    2  A    between atoms: C18_14  and  N17_19 
ROOT
HETATM    1  O1  MIQ B 502       5.985  15.938   7.499  1.00142.91    -0.171 OA
HETATM    2  C2  MIQ B 502       5.957  14.573   7.205  1.00141.17     0.195 A 
HETATM    3  C3  MIQ B 502       5.220  13.468   8.027  1.00141.71     0.035 A 
HETATM    4  C4  MIQ B 502       4.391  13.494   9.255  1.00142.86     0.046 A 
HETATM    5  C5  MIQ B 502       3.842  12.294   9.775  1.00139.53     0.031 A 
HETATM    6  C12 MIQ B 502       4.092  11.031   9.095  1.00139.38     0.030 A 
HETATM    7  C13 MIQ B 502       4.886  11.006   7.917  1.00141.18     0.019 A 
HETATM    8  C14 MIQ B 502       5.458  12.269   7.375  1.00138.77     0.033 A 
HETATM    9  C15 MIQ B 502       6.348  12.632   6.142  1.00142.10     0.195 A 
HETATM   10  N17 MIQ B 502       6.528  13.941   6.194  1.00139.42    -0.288 N 
HETATM   11  O16 MIQ B 502       6.850  11.749   5.184  1.00148.93    -0.171 OA
ENDROOT
BRANCH  10  12
HETATM   12  C18 MIQ B 502       7.328  14.636   5.203  1.00139.82     0.187 C 
HETATM   13  C19 MIQ B 502       6.860  14.175   3.817  1.00140.06     0.247 C 
HETATM   14  O25 MIQ B 502       5.710  14.209   3.557  1.00143.95    -0.271 OA
HETATM   15  N20 MIQ B 502       7.793  13.703   2.814  1.00140.02    -0.296 N 
HETATM   16  H13 MIQ B 502       7.474  13.399   1.915  1.00142.77     0.171 HD
HETATM   17  C21 MIQ B 502       9.190  13.661   3.159  1.00142.22     0.224 C 
HETATM   18  C22 MIQ B 502       9.526  13.345   4.604  1.00139.52     0.106 C 
HETATM   19  O24 MIQ B 502      10.032  13.868   2.355  1.00146.13    -0.273 OA
HETATM   20  C23 MIQ B 502       8.815  14.385   5.449  1.00139.15     0.045 C 
ENDBRANCH  10  12
BRANCH   5  21
HETATM   21  N6  MIQ B 502       3.045  12.332  10.987  1.00140.95    -0.377 N 
HETATM   22  C7  MIQ B 502       2.122  11.241  11.246  1.00142.12     0.149 C 
HETATM   23  C8  MIQ B 502       0.953  11.679  12.119  1.00144.10     0.187 C 
HETATM   24  O9  MIQ B 502       1.356  12.400  13.245  1.00148.65    -0.388 OA
HETATM   25  C10 MIQ B 502       2.677  12.838  13.370  1.00147.44     0.187 C 
HETATM   26  C11 MIQ B 502       3.459  13.165  12.102  1.00144.08     0.149 C 
ENDBRANCH   5  21
TORSDOF 2
ENDMDL
MODEL 5
REMARK VINA RESULT:      -6.6      1.723      2.432
REMARK  2 active torsions:
REMARK  status: ('A' for Active; 'I' for Inactive)
REMARK    1  A    between atoms: C5_5  and  N6_21 
REMARK    2  A    between atoms: C18_14  and  N17_19 
ROOT
HETATM    1  O1  MIQ B 502      14.297  21.457  -5.226  1.00142.91    -0.171 OA
HETATM    2  C2  MIQ B 502      13.910  22.153  -4.079  1.00141.17     0.195 A 
HETATM    3  C3  MIQ B 502      13.175  21.552  -2.839  1.00141.71     0.035 A 
HETATM    4  C4  MIQ B 502      12.696  20.191  -2.499  1.00142.86     0.046 A 
HETATM    5  C5  MIQ B 502      12.047  19.948  -1.262  1.00139.53     0.031 A 
HETATM    6  C12 MIQ B 502      11.852  21.042  -0.321  1.00139.38     0.030 A 
HETATM    7  C13 MIQ B 502      12.312  22.346  -0.646  1.00141.18     0.019 A 
HETATM    8  C14 MIQ B 502      12.994  22.595  -1.945  1.00138.77     0.033 A 
HETATM    9  C15 MIQ B 502      13.622  23.851  -2.634  1.00142.10     0.195 A 
HETATM   10  N17 MIQ B 502      14.084  23.434  -3.801  1.00139.42    -0.288 N 
HETATM   11  O16 MIQ B 502      13.677  25.147  -2.119  1.00148.93    -0.171 OA
ENDROOT
BRANCH  10  12
HETATM   12  C18 MIQ B 502      14.728  24.345  -4.730  1.00139.82     0.187 C 
HETATM   13  C19 MIQ B 502      13.849  24.432  -5.984  1.00140.06     0.247 C 
HETATM   14  O25 MIQ B 502      12.698  24.663  -5.866  1.00143.95    -0.271 OA
HETATM   15  N20 MIQ B 502      14.393  24.243  -7.313  1.00140.02    -0.296 N 
HETATM   16  H13 MIQ B 502      13.808  24.296  -8.123  1.00142.77     0.171 HD
HETATM   17  C21 MIQ B 502      15.799  23.951  -7.431  1.00142.22     0.224 C 
HETATM   18  C22 MIQ B 502      16.420  23.130  -6.317  1.00139.52     0.106 C 
HETATM   19  O24 MIQ B 502      16.435  24.339  -8.348  1.00146.13    -0.273 OA
HETATM   20  C23 MIQ B 502      16.153  23.883  -5.026  1.00139.15     0.045 C 
ENDBRANCH  10  12
BRANCH   5  21
HETATM   21  N6  MIQ B 502      11.570  18.613  -0.948  1.00140.95    -0.377 N 
HETATM   22  C7  MIQ B 502      10.498  18.052  -1.753  1.00142.12     0.149 C 
HETATM   23  C8  MIQ B 502       9.687  17.020  -0.980  1.00144.10     0.187 C 
HETATM   24  O9  MIQ B 502      10.487  16.087  -0.316  1.00148.65    -0.388 OA
HETATM   25  C10 MIQ B 502      11.867  16.279  -0.220  1.00147.44     0.187 C 
HETATM   26  C11 MIQ B 502      12.404  17.706  -0.180  1.00144.08     0.149 C 
ENDBRANCH   5  21
TORSDOF 2
ENDMDL
MODEL 6
REMARK VINA RESULT:      -6.5     10.923     14.186
REMARK  2 active torsions:
REMARK  status: ('A' for Active; 'I' for Inactive)
REMARK    1  A    between atoms: C5_5  and  N6_21 
REMARK    2  A    between atoms: C18_14  and  N17_19 
ROOT
HETATM    1  O1  MIQ B 502      11.081  36.194  -5.390  1.00142.91    -0.171 OA
HETATM    2  C2  MIQ B 502      10.678  34.857  -5.414  1.00141.17     0.195 A 
HETATM    3  C3  MIQ B 502       9.205  34.338  -5.436  1.00141.71     0.035 A 
HETATM    4  C4  MIQ B 502       7.886  35.015  -5.443  1.00142.86     0.046 A 
HETATM    5  C5  MIQ B 502       6.690  34.253  -5.467  1.00139.53     0.031 A 
HETATM    6  C12 MIQ B 502       6.759  32.799  -5.485  1.00139.38     0.030 A 
HETATM    7  C13 MIQ B 502       8.024  32.150  -5.480  1.00141.18     0.019 A 
HETATM    8  C14 MIQ B 502       9.276  32.955  -5.457  1.00138.77     0.033 A 
HETATM    9  C15 MIQ B 502      10.802  32.613  -5.449  1.00142.10     0.195 A 
HETATM   10  N17 MIQ B 502      11.435  33.774  -5.427  1.00139.42    -0.288 N 
HETATM   11  O16 MIQ B 502      11.373  31.340  -5.459  1.00148.93    -0.171 OA
ENDROOT
BRANCH  10  12
HETATM   12  C18 MIQ B 502      12.884  33.845  -5.397  1.00139.82     0.187 C 
HETATM   13  C19 MIQ B 502      13.413  33.142  -6.654  1.00140.06     0.247 C 
HETATM   14  O25 MIQ B 502      12.979  33.444  -7.708  1.00143.95    -0.271 OA
HETATM   15  N20 MIQ B 502      14.437  32.120  -6.583  1.00140.02    -0.296 N 
HETATM   16  H13 MIQ B 502      14.769  31.664  -7.410  1.00142.77     0.171 HD
HETATM   17  C21 MIQ B 502      14.944  31.762  -5.283  1.00142.22     0.224 C 
HETATM   18  C22 MIQ B 502      13.963  31.824  -4.129  1.00139.52     0.106 C 
HETATM   19  O24 MIQ B 502      16.070  31.440  -5.127  1.00146.13    -0.273 OA
HETATM   20  C23 MIQ B 502      13.420  33.241  -4.100  1.00139.15     0.045 C 
ENDBRANCH  10  12
BRANCH   5  21
HETATM   21  N6  MIQ B 502       5.405  34.929  -5.458  1.00140.95    -0.377 N 
HETATM   22  C7  MIQ B 502       5.346  36.315  -5.888  1.00142.12     0.149 C 
HETATM   23  C8  MIQ B 502       4.180  37.059  -5.251  1.00144.10     0.187 C 
HETATM   24  O9  MIQ B 502       2.976  36.357  -5.334  1.00148.65    -0.388 OA
HETATM   25  C10 MIQ B 502       2.962  35.025  -5.755  1.00147.44     0.187 C 
HETATM   26  C11 MIQ B 502       4.177  34.153  -5.458  1.00144.08     0.149 C 
ENDBRANCH   5  21
TORSDOF 2
ENDMDL
MODEL 7
REMARK VINA RESULT:      -6.5     11.558     15.940
REMARK  2 active torsions:
REMARK  status: ('A' for Active; 'I' for Inactive)
REMARK    1  A    between atoms: C5_5  and  N6_21 
REMARK    2  A    between atoms: C18_14  and  N17_19 
ROOT
HETATM    1  O1  MIQ B 502       6.734  37.366  -6.476  1.00142.91    -0.171 OA
HETATM    2  C2  MIQ B 502       6.261  36.102  -6.116  1.00141.17     0.195 A 
HETATM    3  C3  MIQ B 502       7.119  34.806  -5.962  1.00141.71     0.035 A 
HETATM    4  C4  MIQ B 502       8.564  34.514  -6.124  1.00142.86     0.046 A 
HETATM    5  C5  MIQ B 502       9.059  33.204  -5.908  1.00139.53     0.031 A 
HETATM    6  C12 MIQ B 502       8.143  32.139  -5.523  1.00139.38     0.030 A 
HETATM    7  C13 MIQ B 502       6.759  32.418  -5.366  1.00141.18     0.019 A 
HETATM    8  C14 MIQ B 502       6.245  33.797  -5.592  1.00138.77     0.033 A 
HETATM    9  C15 MIQ B 502       4.836  34.471  -5.516  1.00142.10     0.195 A 
HETATM   10  N17 MIQ B 502       5.022  35.742  -5.831  1.00139.42    -0.288 N 
HETATM   11  O16 MIQ B 502       3.630  33.850  -5.186  1.00148.93    -0.171 OA
ENDROOT
BRANCH  10  12
HETATM   12  C18 MIQ B 502       3.915  36.680  -5.879  1.00139.82     0.187 C 
HETATM   13  C19 MIQ B 502       3.909  37.324  -7.271  1.00140.06     0.247 C 
HETATM   14  O25 MIQ B 502       3.941  36.632  -8.226  1.00143.95    -0.271 OA
HETATM   15  N20 MIQ B 502       3.857  38.761  -7.447  1.00140.02    -0.296 N 
HETATM   16  H13 MIQ B 502       3.860  39.169  -8.361  1.00142.77     0.171 HD
HETATM   17  C21 MIQ B 502       3.828  39.585  -6.266  1.00142.22     0.224 C 
HETATM   18  C22 MIQ B 502       4.592  39.073  -5.059  1.00139.52     0.106 C 
HETATM   19  O24 MIQ B 502       3.233  40.605  -6.239  1.00146.13    -0.273 OA
HETATM   20  C23 MIQ B 502       4.031  37.698  -4.746  1.00139.15     0.045 C 
ENDBRANCH  10  12
BRANCH   5  21
HETATM   21  N6  MIQ B 502      10.473  32.929  -6.085  1.00140.95    -0.377 N 
HETATM   22  C7  MIQ B 502      11.353  34.026  -6.452  1.00142.12     0.149 C 
HETATM   23  C8  MIQ B 502      12.583  33.540  -7.208  1.00144.10     0.187 C 
HETATM   24  O9  MIQ B 502      13.207  32.455  -6.590  1.00148.65    -0.388 OA
HETATM   25  C10 MIQ B 502      12.586  31.790  -5.530  1.00147.44     0.187 C 
HETATM   26  C11 MIQ B 502      11.062  31.740  -5.494  1.00144.08     0.149 C 
ENDBRANCH   5  21
TORSDOF 2
ENDMDL
MODEL 8
REMARK VINA RESULT:      -6.4      1.691      8.389
REMARK  2 active torsions:
REMARK  status: ('A' for Active; 'I' for Inactive)
REMARK    1  A    between atoms: C5_5  and  N6_21 
REMARK    2  A    between atoms: C18_14  and  N17_19 
ROOT
HETATM    1  O1  MIQ B 502      11.613  22.678  -0.466  1.00142.91    -0.171 OA
HETATM    2  C2  MIQ B 502      12.269  21.922  -1.440  1.00141.17     0.195 A 
HETATM    3  C3  MIQ B 502      13.026  22.482  -2.686  1.00141.71     0.035 A 
HETATM    4  C4  MIQ B 502      13.278  23.851  -3.195  1.00142.86     0.046 A 
HETATM    5  C5  MIQ B 502      14.022  24.048  -4.386  1.00139.53     0.031 A 
HETATM    6  C12 MIQ B 502      14.540  22.897  -5.113  1.00139.38     0.030 A 
HETATM    7  C13 MIQ B 502      14.299  21.585  -4.625  1.00141.18     0.019 A 
HETATM    8  C14 MIQ B 502      13.520  21.385  -3.372  1.00138.77     0.033 A 
HETATM    9  C15 MIQ B 502      13.068  20.136  -2.547  1.00142.10     0.195 A 
HETATM   10  N17 MIQ B 502      12.391  20.608  -1.513  1.00139.42    -0.288 N 
HETATM   11  O16 MIQ B 502      13.326  18.798  -2.847  1.00148.93    -0.171 OA
ENDROOT
BRANCH  10  12
HETATM   12  C18 MIQ B 502      11.799  19.722  -0.527  1.00139.82     0.187 C 
HETATM   13  C19 MIQ B 502      12.867  18.703  -0.113  1.00140.06     0.247 C 
HETATM   14  O25 MIQ B 502      13.931  19.087   0.222  1.00143.95    -0.271 OA
HETATM   15  N20 MIQ B 502      12.605  17.278  -0.117  1.00140.02    -0.296 N 
HETATM   16  H13 MIQ B 502      13.313  16.622   0.149  1.00142.77     0.171 HD
HETATM   17  C21 MIQ B 502      11.303  16.833  -0.541  1.00142.22     0.224 C 
HETATM   18  C22 MIQ B 502      10.619  17.654  -1.617  1.00139.52     0.106 C 
HETATM   19  O24 MIQ B 502      10.792  15.877  -0.069  1.00146.13    -0.273 OA
HETATM   20  C23 MIQ B 502      10.534  19.074  -1.087  1.00139.15     0.045 C 
ENDBRANCH  10  12
BRANCH   5  21
HETATM   21  N6  MIQ B 502      14.248  25.394  -4.881  1.00140.95    -0.377 N 
HETATM   22  C7  MIQ B 502      15.610  25.899  -4.921  1.00142.12     0.149 C 
HETATM   23  C8  MIQ B 502      15.655  27.418  -4.823  1.00144.10     0.187 C 
HETATM   24  O9  MIQ B 502      14.760  28.046  -5.691  1.00148.65    -0.388 OA
HETATM   25  C10 MIQ B 502      13.794  27.301  -6.372  1.00147.44     0.187 C 
HETATM   26  C11 MIQ B 502      13.247  26.039  -5.712  1.00144.08     0.149 C 
ENDBRANCH   5  21
TORSDOF 2
ENDMDL
MODEL 9
REMARK VINA RESULT:      -6.4      1.109      1.548
REMARK  2 active torsions:
REMARK  status: ('A' for Active; 'I' for Inactive)
REMARK    1  A    between atoms: C5_5  and  N6_21 
REMARK    2  A    between atoms: C18_14  and  N17_19 
ROOT
HETATM    1  O1  MIQ B 502      15.553  20.607  -4.193  1.00142.91    -0.171 OA
HETATM    2  C2  MIQ B 502      14.539  21.126  -3.384  1.00141.17     0.195 A 
HETATM    3  C3  MIQ B 502      13.685  20.326  -2.349  1.00141.71     0.035 A 
HETATM    4  C4  MIQ B 502      13.668  18.907  -1.923  1.00142.86     0.046 A 
HETATM    5  C5  MIQ B 502      12.753  18.468  -0.932  1.00139.53     0.031 A 
HETATM    6  C12 MIQ B 502      11.827  19.417  -0.332  1.00139.38     0.030 A 
HETATM    7  C13 MIQ B 502      11.845  20.778  -0.740  1.00141.18     0.019 A 
HETATM    8  C14 MIQ B 502      12.809  21.234  -1.778  1.00138.77     0.033 A 
HETATM    9  C15 MIQ B 502      13.121  22.605  -2.462  1.00142.10     0.195 A 
HETATM   10  N17 MIQ B 502      14.101  22.371  -3.319  1.00139.42    -0.288 N 
HETATM   11  O16 MIQ B 502      12.488  23.825  -2.216  1.00148.93    -0.171 OA
ENDROOT
BRANCH  10  12
HETATM   12  C18 MIQ B 502      14.645  23.426  -4.154  1.00139.82     0.187 C 
HETATM   13  C19 MIQ B 502      14.919  24.639  -3.256  1.00140.06     0.247 C 
HETATM   14  O25 MIQ B 502      15.544  24.494  -2.266  1.00143.95    -0.271 OA
HETATM   15  N20 MIQ B 502      14.434  25.963  -3.592  1.00140.02    -0.296 N 
HETATM   16  H13 MIQ B 502      14.614  26.745  -2.994  1.00142.77     0.171 HD
HETATM   17  C21 MIQ B 502      13.664  26.113  -4.799  1.00142.22     0.224 C 
HETATM   18  C22 MIQ B 502      12.782  24.944  -5.194  1.00139.52     0.106 C 
HETATM   19  O24 MIQ B 502      13.723  27.097  -5.451  1.00146.13    -0.273 OA
HETATM   20  C23 MIQ B 502      13.693  23.735  -5.308  1.00139.15     0.045 C 
ENDBRANCH  10  12
BRANCH   5  21
HETATM   21  N6  MIQ B 502      12.737  17.072  -0.535  1.00140.95    -0.377 N 
HETATM   22  C7  MIQ B 502      11.453  16.423  -0.332  1.00142.12     0.149 C 
HETATM   23  C8  MIQ B 502      11.551  15.264   0.653  1.00144.10     0.187 C 
HETATM   24  O9  MIQ B 502      12.617  14.406   0.378  1.00148.65    -0.388 OA
HETATM   25  C10 MIQ B 502      13.586  14.760  -0.565  1.00147.44     0.187 C 
HETATM   26  C11 MIQ B 502      13.904  16.238  -0.764  1.00144.08     0.149 C 
ENDBRANCH   5  21
TORSDOF 2
ENDMDL
