MODEL 1
REMARK VINA RESULT:      -6.9      0.000      0.000
REMARK  2 active torsions:
REMARK  status: ('A' for Active; 'I' for Inactive)
REMARK    1  A    between atoms: C5_5  and  N6_21 
REMARK    2  A    between atoms: C18_14  and  N17_19 
ROOT
HETATM    1  O1  MIQ B 502      -0.599  -7.819  12.092  1.00142.91    -0.171 OA
HETATM    2  C2  MIQ B 502      -1.175  -8.424  13.211  1.00141.17     0.195 A 
HETATM    3  C3  MIQ B 502      -1.682  -7.695  14.496  1.00141.71     0.035 A 
HETATM    4  C4  MIQ B 502      -1.719  -6.273  14.912  1.00142.86     0.046 A 
HETATM    5  C5  MIQ B 502      -2.255  -5.909  16.173  1.00139.53     0.031 A 
HETATM    6  C12 MIQ B 502      -2.772  -6.940  17.063  1.00139.38     0.030 A 
HETATM    7  C13 MIQ B 502      -2.737  -8.303  16.664  1.00141.18     0.019 A 
HETATM    8  C14 MIQ B 502      -2.175  -8.678  15.337  1.00138.77     0.033 A 
HETATM    9  C15 MIQ B 502      -1.975 -10.026  14.570  1.00142.10     0.195 A 
HETATM   10  N17 MIQ B 502      -1.415  -9.708  13.414  1.00139.42    -0.288 N 
HETATM   11  O16 MIQ B 502      -2.317 -11.302  15.020  1.00148.93    -0.171 OA
ENDROOT
BRANCH  10  12
HETATM   12  C18 MIQ B 502      -1.065 -10.723  12.438  1.00139.82     0.187 C 
HETATM   13  C19 MIQ B 502       0.383 -10.471  11.999  1.00140.06     0.247 C 
HETATM   14  O25 MIQ B 502       1.220 -10.344  12.821  1.00143.95    -0.271 OA
HETATM   15  N20 MIQ B 502       0.754 -10.391  10.602  1.00140.02    -0.296 N 
HETATM   16  H13 MIQ B 502       1.702 -10.219  10.329  1.00142.77     0.171 HD
HETATM   17  C21 MIQ B 502      -0.287 -10.539   9.617  1.00142.22     0.224 C 
HETATM   18  C22 MIQ B 502      -1.657 -10.007   9.990  1.00139.52     0.106 C 
HETATM   19  O24 MIQ B 502      -0.082 -11.055   8.574  1.00146.13    -0.273 OA
HETATM   20  C23 MIQ B 502      -2.057 -10.707  11.276  1.00139.15     0.045 C 
ENDBRANCH  10  12
BRANCH   5  21
HETATM   21  N6  MIQ B 502      -2.273  -4.514  16.575  1.00140.95    -0.377 N 
HETATM   22  C7  MIQ B 502      -1.146  -3.673  16.209  1.00142.12     0.149 C 
HETATM   23  C8  MIQ B 502      -0.967  -2.510  17.177  1.00144.10     0.187 C 
HETATM   24  O9  MIQ B 502      -2.159  -1.832  17.438  1.00148.65    -0.388 OA
HETATM   25  C10 MIQ B 502      -3.381  -2.359  17.013  1.00147.44     0.187 C 
HETATM   26  C11 MIQ B 502      -3.529  -3.874  16.921  1.00144.08     0.149 C 
ENDBRANCH   5  21
TORSDOF 2
ENDMDL
MODEL 2
REMARK VINA RESULT:      -6.6      6.300      9.832
REMARK  2 active torsions:
REMARK  status: ('A' for Active; 'I' for Inactive)
REMARK    1  A    between atoms: C5_5  and  N6_21 
REMARK    2  A    between atoms: C18_14  and  N17_19 
ROOT
HETATM    1  O1  MIQ B 502       0.577  -0.067  18.602  1.00142.91    -0.171 OA
HETATM    2  C2  MIQ B 502      -0.098  -1.031  19.355  1.00141.17     0.195 A 
HETATM    3  C3  MIQ B 502       0.157  -1.371  20.858  1.00141.71     0.035 A 
HETATM    4  C4  MIQ B 502       1.095  -0.843  21.878  1.00142.86     0.046 A 
HETATM    5  C5  MIQ B 502       1.089  -1.367  23.195  1.00139.53     0.031 A 
HETATM    6  C12 MIQ B 502       0.157  -2.429  23.547  1.00139.38     0.030 A 
HETATM    7  C13 MIQ B 502      -0.742  -2.934  22.570  1.00141.18     0.019 A 
HETATM    8  C14 MIQ B 502      -0.734  -2.379  21.189  1.00138.77     0.033 A 
HETATM    9  C15 MIQ B 502      -1.547  -2.665  19.885  1.00142.10     0.195 A 
HETATM   10  N17 MIQ B 502      -1.073  -1.835  18.970  1.00139.42    -0.288 N 
HETATM   11  O16 MIQ B 502      -2.563  -3.609  19.723  1.00148.93    -0.171 OA
ENDROOT
BRANCH  10  12
HETATM   12  C18 MIQ B 502      -1.589  -1.829  17.614  1.00139.82     0.187 C 
HETATM   13  C19 MIQ B 502      -3.115  -1.699  17.693  1.00140.06     0.247 C 
HETATM   14  O25 MIQ B 502      -3.586  -0.838  18.347  1.00143.95    -0.271 OA
HETATM   15  N20 MIQ B 502      -3.996  -2.603  16.983  1.00140.02    -0.296 N 
HETATM   16  H13 MIQ B 502      -4.991  -2.511  17.048  1.00142.77     0.171 HD
HETATM   17  C21 MIQ B 502      -3.397  -3.653  16.200  1.00142.22     0.224 C 
HETATM   18  C22 MIQ B 502      -2.101  -4.239  16.724  1.00139.52     0.106 C 
HETATM   19  O24 MIQ B 502      -3.891  -4.034  15.196  1.00146.13    -0.273 OA
HETATM   20  C23 MIQ B 502      -1.130  -3.080  16.865  1.00139.15     0.045 C 
ENDBRANCH  10  12
BRANCH   5  21
HETATM   21  N6  MIQ B 502       2.023  -0.851  24.180  1.00140.95    -0.377 N 
HETATM   22  C7  MIQ B 502       3.425  -1.210  24.062  1.00142.12     0.149 C 
HETATM   23  C8  MIQ B 502       4.136  -1.176  25.410  1.00144.10     0.187 C 
HETATM   24  O9  MIQ B 502       3.877  -0.010  26.132  1.00148.65    -0.388 OA
HETATM   25  C10 MIQ B 502       2.882   0.877  25.711  1.00147.44     0.187 C 
HETATM   26  C11 MIQ B 502       1.673   0.317  24.969  1.00144.08     0.149 C 
ENDBRANCH   5  21
TORSDOF 2
ENDMDL
MODEL 3
REMARK VINA RESULT:      -6.4      6.299      9.850
REMARK  2 active torsions:
REMARK  status: ('A' for Active; 'I' for Inactive)
REMARK    1  A    between atoms: C5_5  and  N6_21 
REMARK    2  A    between atoms: C18_14  and  N17_19 
ROOT
HETATM    1  O1  MIQ B 502      -2.559  -3.625  19.741  1.00142.91    -0.171 OA
HETATM    2  C2  MIQ B 502      -1.513  -2.705  19.843  1.00141.17     0.195 A 
HETATM    3  C3  MIQ B 502      -0.652  -2.426  21.116  1.00141.71     0.035 A 
HETATM    4  C4  MIQ B 502      -0.652  -2.983  22.489  1.00142.86     0.046 A 
HETATM    5  C5  MIQ B 502       0.278  -2.517  23.452  1.00139.53     0.031 A 
HETATM    6  C12 MIQ B 502       1.239  -1.486  23.089  1.00139.38     0.030 A 
HETATM    7  C13 MIQ B 502       1.241  -0.952  21.771  1.00141.18     0.019 A 
HETATM    8  C14 MIQ B 502       0.264  -1.447  20.764  1.00138.77     0.033 A 
HETATM    9  C15 MIQ B 502      -0.031  -1.118  19.264  1.00142.10     0.195 A 
HETATM   10  N17 MIQ B 502      -1.036  -1.900  18.909  1.00139.42    -0.288 N 
HETATM   11  O16 MIQ B 502       0.634  -0.184  18.467  1.00148.93    -0.171 OA
ENDROOT
BRANCH  10  12
HETATM   12  C18 MIQ B 502      -1.595  -1.856  17.570  1.00139.82     0.187 C 
HETATM   13  C19 MIQ B 502      -3.116  -1.718  17.703  1.00140.06     0.247 C 
HETATM   14  O25 MIQ B 502      -3.560  -0.871  18.393  1.00143.95    -0.271 OA
HETATM   15  N20 MIQ B 502      -4.027  -2.597  16.997  1.00140.02    -0.296 N 
HETATM   16  H13 MIQ B 502      -5.018  -2.501  17.097  1.00142.77     0.171 HD
HETATM   17  C21 MIQ B 502      -3.461  -3.630  16.169  1.00142.22     0.224 C 
HETATM   18  C22 MIQ B 502      -2.153  -4.237  16.636  1.00139.52     0.106 C 
HETATM   19  O24 MIQ B 502      -3.990  -3.981  15.172  1.00146.13    -0.273 OA
HETATM   20  C23 MIQ B 502      -1.170  -3.089  16.775  1.00139.15     0.045 C 
ENDBRANCH  10  12
BRANCH   5  21
HETATM   21  N6  MIQ B 502       0.256  -3.060  24.798  1.00140.95    -0.377 N 
HETATM   22  C7  MIQ B 502      -0.070  -4.465  24.975  1.00142.12     0.149 C 
HETATM   23  C8  MIQ B 502      -0.677  -4.740  26.345  1.00144.10     0.187 C 
HETATM   24  O9  MIQ B 502       0.050  -4.161  27.387  1.00148.65    -0.388 OA
HETATM   25  C10 MIQ B 502       1.071  -3.247  27.115  1.00147.44     0.187 C 
HETATM   26  C11 MIQ B 502       0.957  -2.374  25.870  1.00144.08     0.149 C 
ENDBRANCH   5  21
TORSDOF 2
ENDMDL
MODEL 4
REMARK VINA RESULT:      -6.2     22.623     24.100
REMARK  2 active torsions:
REMARK  status: ('A' for Active; 'I' for Inactive)
REMARK    1  A    between atoms: C5_5  and  N6_21 
REMARK    2  A    between atoms: C18_14  and  N17_19 
ROOT
HETATM    1  O1  MIQ B 502      23.865  -0.923  16.169  1.00142.91    -0.171 OA
HETATM    2  C2  MIQ B 502      22.733  -0.863  15.354  1.00141.17     0.195 A 
HETATM    3  C3  MIQ B 502      21.371  -0.188  15.716  1.00141.71     0.035 A 
HETATM    4  C4  MIQ B 502      20.880   0.538  16.911  1.00142.86     0.046 A 
HETATM    5  C5  MIQ B 502      19.559   1.052  16.944  1.00139.53     0.031 A 
HETATM    6  C12 MIQ B 502      18.681   0.865  15.797  1.00139.38     0.030 A 
HETATM    7  C13 MIQ B 502      19.153   0.170  14.651  1.00141.18     0.019 A 
HETATM    8  C14 MIQ B 502      20.542  -0.365  14.621  1.00138.77     0.033 A 
HETATM    9  C15 MIQ B 502      21.393  -1.155  13.573  1.00142.10     0.195 A 
HETATM   10  N17 MIQ B 502      22.575  -1.346  14.134  1.00139.42    -0.288 N 
HETATM   11  O16 MIQ B 502      20.982  -1.572  12.306  1.00148.93    -0.171 OA
ENDROOT
BRANCH  10  12
HETATM   12  C18 MIQ B 502      23.631  -2.068  13.447  1.00139.82     0.187 C 
HETATM   13  C19 MIQ B 502      23.847  -1.398  12.085  1.00140.06     0.247 C 
HETATM   14  O25 MIQ B 502      24.009  -0.230  12.038  1.00143.95    -0.271 OA
HETATM   15  N20 MIQ B 502      23.864  -2.159  10.853  1.00140.02    -0.296 N 
HETATM   16  H13 MIQ B 502      24.000  -1.708   9.970  1.00142.77     0.171 HD
HETATM   17  C21 MIQ B 502      23.653  -3.581  10.936  1.00142.22     0.224 C 
HETATM   18  C22 MIQ B 502      22.717  -4.069  12.025  1.00139.52     0.106 C 
HETATM   19  O24 MIQ B 502      24.188  -4.330  10.194  1.00146.13    -0.273 OA
HETATM   20  C23 MIQ B 502      23.276  -3.551  13.338  1.00139.15     0.045 C 
ENDBRANCH  10  12
BRANCH   5  21
HETATM   21  N6  MIQ B 502      19.085   1.748  18.127  1.00140.95    -0.377 N 
HETATM   22  C7  MIQ B 502      19.105   3.200  18.132  1.00142.12     0.149 C 
HETATM   23  C8  MIQ B 502      19.218   3.763  19.543  1.00144.10     0.187 C 
HETATM   24  O9  MIQ B 502      18.320   3.174  20.436  1.00148.65    -0.388 OA
HETATM   25  C10 MIQ B 502      17.594   2.039  20.065  1.00147.44     0.187 C 
HETATM   26  C11 MIQ B 502      18.221   1.065  19.073  1.00144.08     0.149 C 
ENDBRANCH   5  21
TORSDOF 2
ENDMDL
MODEL 5
REMARK VINA RESULT:      -6.1      7.540     14.216
REMARK  2 active torsions:
REMARK  status: ('A' for Active; 'I' for Inactive)
REMARK    1  A    between atoms: C5_5  and  N6_21 
REMARK    2  A    between atoms: C18_14  and  N17_19 
ROOT
HETATM    1  O1  MIQ B 502       0.454   4.425  19.520  1.00142.91    -0.171 OA
HETATM    2  C2  MIQ B 502       0.708   3.491  20.527  1.00141.17     0.195 A 
HETATM    3  C3  MIQ B 502       0.308   1.981  20.506  1.00141.71     0.035 A 
HETATM    4  C4  MIQ B 502      -0.395   1.127  19.520  1.00142.86     0.046 A 
HETATM    5  C5  MIQ B 502      -0.616  -0.247  19.791  1.00139.53     0.031 A 
HETATM    6  C12 MIQ B 502      -0.149  -0.821  21.045  1.00139.38     0.030 A 
HETATM    7  C13 MIQ B 502       0.526  -0.002  21.990  1.00141.18     0.019 A 
HETATM    8  C14 MIQ B 502       0.757   1.439  21.699  1.00138.77     0.033 A 
HETATM    9  C15 MIQ B 502       1.441   2.619  22.464  1.00142.10     0.195 A 
HETATM   10  N17 MIQ B 502       1.329   3.677  21.678  1.00139.42    -0.288 N 
HETATM   11  O16 MIQ B 502       2.043   2.562  23.722  1.00148.93    -0.171 OA
ENDROOT
BRANCH  10  12
HETATM   12  C18 MIQ B 502       1.845   4.974  22.077  1.00139.82     0.187 C 
HETATM   13  C19 MIQ B 502       0.707   5.993  21.935  1.00140.06     0.247 C 
HETATM   14  O25 MIQ B 502      -0.337   5.763  22.433  1.00143.95    -0.271 OA
HETATM   15  N20 MIQ B 502       0.881   7.236  21.212  1.00140.02    -0.296 N 
HETATM   16  H13 MIQ B 502       0.129   7.890  21.121  1.00142.77     0.171 HD
HETATM   17  C21 MIQ B 502       2.162   7.489  20.604  1.00142.22     0.224 C 
HETATM   18  C22 MIQ B 502       2.918   6.284  20.079  1.00139.52     0.106 C 
HETATM   19  O24 MIQ B 502       2.603   8.583  20.525  1.00146.13    -0.273 OA
HETATM   20  C23 MIQ B 502       3.079   5.332  21.250  1.00139.15     0.045 C 
ENDBRANCH  10  12
BRANCH   5  21
HETATM   21  N6  MIQ B 502      -1.319  -1.069  18.823  1.00140.95    -0.377 N 
HETATM   22  C7  MIQ B 502      -0.626  -2.206  18.243  1.00142.12     0.149 C 
HETATM   23  C8  MIQ B 502      -1.167  -2.560  16.864  1.00144.10     0.187 C 
HETATM   24  O9  MIQ B 502      -2.561  -2.630  16.829  1.00148.65    -0.388 OA
HETATM   25  C10 MIQ B 502      -3.320  -2.182  17.914  1.00147.44     0.187 C 
HETATM   26  C11 MIQ B 502      -2.771  -1.044  18.767  1.00144.08     0.149 C 
ENDBRANCH   5  21
TORSDOF 2
ENDMDL
MODEL 6
REMARK VINA RESULT:      -6.0     23.275     25.687
REMARK  2 active torsions:
REMARK  status: ('A' for Active; 'I' for Inactive)
REMARK    1  A    between atoms: C5_5  and  N6_21 
REMARK    2  A    between atoms: C18_14  and  N17_19 
ROOT
HETATM    1  O1  MIQ B 502      21.382   0.473  11.547  1.00142.91    -0.171 OA
HETATM    2  C2  MIQ B 502      21.644  -0.466  12.547  1.00141.17     0.195 A 
HETATM    3  C3  MIQ B 502      22.303  -1.868  12.345  1.00141.71     0.035 A 
HETATM    4  C4  MIQ B 502      22.818  -2.591  11.157  1.00142.86     0.046 A 
HETATM    5  C5  MIQ B 502      23.377  -3.886  11.294  1.00139.53     0.031 A 
HETATM    6  C12 MIQ B 502      23.446  -4.509  12.608  1.00139.38     0.030 A 
HETATM    7  C13 MIQ B 502      22.954  -3.816  13.747  1.00141.18     0.019 A 
HETATM    8  C14 MIQ B 502      22.370  -2.455  13.598  1.00138.77     0.033 A 
HETATM    9  C15 MIQ B 502      21.750  -1.411  14.583  1.00142.10     0.195 A 
HETATM   10  N17 MIQ B 502      21.403  -0.371  13.843  1.00139.42    -0.288 N 
HETATM   11  O16 MIQ B 502      21.594  -1.554  15.963  1.00148.93    -0.171 OA
ENDROOT
BRANCH  10  12
HETATM   12  C18 MIQ B 502      20.772   0.798  14.427  1.00139.82     0.187 C 
HETATM   13  C19 MIQ B 502      21.652   1.272  15.590  1.00140.06     0.247 C 
HETATM   14  O25 MIQ B 502      22.806   1.439  15.409  1.00143.95    -0.271 OA
HETATM   15  N20 MIQ B 502      21.105   1.528  16.907  1.00140.02    -0.296 N 
HETATM   16  H13 MIQ B 502      21.692   1.831  17.659  1.00142.77     0.171 HD
HETATM   17  C21 MIQ B 502      19.696   1.307  17.106  1.00142.22     0.224 C 
HETATM   18  C22 MIQ B 502      19.064   0.180  16.313  1.00139.52     0.106 C 
HETATM   19  O24 MIQ B 502      19.065   1.977  17.848  1.00146.13    -0.273 OA
HETATM   20  C23 MIQ B 502      19.340   0.474  14.850  1.00139.15     0.045 C 
ENDBRANCH  10  12
BRANCH   5  21
HETATM   21  N6  MIQ B 502      23.863  -4.589  10.120  1.00140.95    -0.377 N 
HETATM   22  C7  MIQ B 502      22.997  -5.571   9.491  1.00142.12     0.149 C 
HETATM   23  C8  MIQ B 502      23.793  -6.637   8.748  1.00144.10     0.187 C 
HETATM   24  O9  MIQ B 502      24.785  -6.101   7.925  1.00148.65    -0.388 OA
HETATM   25  C10 MIQ B 502      25.112  -4.745   8.003  1.00147.44     0.187 C 
HETATM   26  C11 MIQ B 502      24.956  -4.033   9.343  1.00144.08     0.149 C 
ENDBRANCH   5  21
TORSDOF 2
ENDMDL
MODEL 7
REMARK VINA RESULT:      -6.0      7.254     12.959
REMARK  2 active torsions:
REMARK  status: ('A' for Active; 'I' for Inactive)
REMARK    1  A    between atoms: C5_5  and  N6_21 
REMARK    2  A    between atoms: C18_14  and  N17_19 
ROOT
HETATM    1  O1  MIQ B 502       0.932  -2.519  23.792  1.00142.91    -0.171 OA
HETATM    2  C2  MIQ B 502       1.017  -1.224  23.276  1.00141.17     0.195 A 
HETATM    3  C3  MIQ B 502       0.461  -0.742  21.899  1.00141.71     0.035 A 
HETATM    4  C4  MIQ B 502      -0.266  -1.420  20.799  1.00142.86     0.046 A 
HETATM    5  C5  MIQ B 502      -0.650  -0.698  19.641  1.00139.53     0.031 A 
HETATM    6  C12 MIQ B 502      -0.329   0.718  19.534  1.00139.38     0.030 A 
HETATM    7  C13 MIQ B 502       0.366   1.369  20.588  1.00141.18     0.019 A 
HETATM    8  C14 MIQ B 502       0.765   0.606  21.802  1.00138.77     0.033 A 
HETATM    9  C15 MIQ B 502       1.514   0.963  23.128  1.00142.10     0.195 A 
HETATM   10  N17 MIQ B 502       1.566  -0.157  23.830  1.00139.42    -0.288 N 
HETATM   11  O16 MIQ B 502       2.024   2.211  23.490  1.00148.93    -0.171 OA
ENDROOT
BRANCH  10  12
HETATM   12  C18 MIQ B 502       2.212  -0.207  25.129  1.00139.82     0.187 C 
HETATM   13  C19 MIQ B 502       3.292  -1.294  25.072  1.00140.06     0.247 C 
HETATM   14  O25 MIQ B 502       4.076  -1.282  24.191  1.00143.95    -0.271 OA
HETATM   15  N20 MIQ B 502       3.382  -2.335  26.076  1.00140.02    -0.296 N 
HETATM   16  H13 MIQ B 502       4.088  -3.042  26.024  1.00142.77     0.171 HD
HETATM   17  C21 MIQ B 502       2.407  -2.335  27.136  1.00142.22     0.224 C 
HETATM   18  C22 MIQ B 502       1.016  -1.848  26.782  1.00139.52     0.106 C 
HETATM   19  O24 MIQ B 502       2.683  -2.692  28.228  1.00146.13    -0.273 OA
HETATM   20  C23 MIQ B 502       1.178  -0.444  26.228  1.00139.15     0.045 C 
ENDBRANCH  10  12
BRANCH   5  21
HETATM   21  N6  MIQ B 502      -1.348  -1.378  18.566  1.00140.95    -0.377 N 
HETATM   22  C7  MIQ B 502      -0.751  -2.575  17.998  1.00142.12     0.149 C 
HETATM   23  C8  MIQ B 502      -1.186  -2.797  16.555  1.00144.10     0.187 C 
HETATM   24  O9  MIQ B 502      -2.566  -2.677  16.378  1.00148.65    -0.388 OA
HETATM   25  C10 MIQ B 502      -3.369  -2.174  17.404  1.00147.44     0.187 C 
HETATM   26  C11 MIQ B 502      -2.770  -1.155  18.368  1.00144.08     0.149 C 
ENDBRANCH   5  21
TORSDOF 2
ENDMDL
MODEL 8
REMARK VINA RESULT:      -5.9     23.248     25.666
REMARK  2 active torsions:
REMARK  status: ('A' for Active; 'I' for Inactive)
REMARK    1  A    between atoms: C5_5  and  N6_21 
REMARK    2  A    between atoms: C18_14  and  N17_19 
ROOT
HETATM    1  O1  MIQ B 502      21.549  -1.592  15.968  1.00142.91    -0.171 OA
HETATM    2  C2  MIQ B 502      21.726  -1.432  14.592  1.00141.17     0.195 A 
HETATM    3  C3  MIQ B 502      22.368  -2.471  13.618  1.00141.71     0.035 A 
HETATM    4  C4  MIQ B 502      22.940  -3.826  13.806  1.00142.86     0.046 A 
HETATM    5  C5  MIQ B 502      23.461  -4.543  12.699  1.00139.53     0.031 A 
HETATM    6  C12 MIQ B 502      23.433  -3.945  11.372  1.00139.38     0.030 A 
HETATM    7  C13 MIQ B 502      22.884  -2.647  11.192  1.00141.18     0.019 A 
HETATM    8  C14 MIQ B 502      22.337  -1.899  12.357  1.00138.77     0.033 A 
HETATM    9  C15 MIQ B 502      21.670  -0.498  12.549  1.00142.10     0.195 A 
HETATM   10  N17 MIQ B 502      21.392  -0.399  13.838  1.00139.42    -0.288 N 
HETATM   11  O16 MIQ B 502      21.424   0.453  11.557  1.00148.93    -0.171 OA
ENDROOT
BRANCH  10  12
HETATM   12  C18 MIQ B 502      20.772   0.791  14.390  1.00139.82     0.187 C 
HETATM   13  C19 MIQ B 502      21.663   1.294  15.533  1.00140.06     0.247 C 
HETATM   14  O25 MIQ B 502      22.816   1.447  15.340  1.00143.95    -0.271 OA
HETATM   15  N20 MIQ B 502      21.126   1.593  16.845  1.00140.02    -0.296 N 
HETATM   16  H13 MIQ B 502      21.719   1.915  17.584  1.00142.77     0.171 HD
HETATM   17  C21 MIQ B 502      19.716   1.388  17.059  1.00142.22     0.224 C 
HETATM   18  C22 MIQ B 502      19.072   0.242  16.305  1.00139.52     0.106 C 
HETATM   19  O24 MIQ B 502      19.094   2.084  17.784  1.00146.13    -0.273 OA
HETATM   20  C23 MIQ B 502      19.341   0.490  14.831  1.00139.15     0.045 C 
ENDBRANCH  10  12
BRANCH   5  21
HETATM   21  N6  MIQ B 502      24.031  -5.863  12.900  1.00140.95    -0.377 N 
HETATM   22  C7  MIQ B 502      23.987  -6.813  11.802  1.00142.12     0.149 C 
HETATM   23  C8  MIQ B 502      23.998  -8.254  12.295  1.00144.10     0.187 C 
HETATM   24  O9  MIQ B 502      24.986  -8.493  13.252  1.00148.65    -0.388 OA
HETATM   25  C10 MIQ B 502      25.693  -7.431  13.820  1.00147.44     0.187 C 
HETATM   26  C11 MIQ B 502      24.994  -6.083  13.965  1.00144.08     0.149 C 
ENDBRANCH   5  21
TORSDOF 2
ENDMDL
MODEL 9
REMARK VINA RESULT:      -5.9      7.400     11.974
REMARK  2 active torsions:
REMARK  status: ('A' for Active; 'I' for Inactive)
REMARK    1  A    between atoms: C5_5  and  N6_21 
REMARK    2  A    between atoms: C18_14  and  N17_19 
ROOT
HETATM    1  O1  MIQ B 502       0.636   0.464  18.721  1.00142.91    -0.171 OA
HETATM    2  C2  MIQ B 502      -0.030   0.861  19.883  1.00141.17     0.195 A 
HETATM    3  C3  MIQ B 502       0.150   2.221  20.630  1.00141.71     0.035 A 
HETATM    4  C4  MIQ B 502       0.990   3.416  20.382  1.00142.86     0.046 A 
HETATM    5  C5  MIQ B 502       0.932   4.528  21.260  1.00139.53     0.031 A 
HETATM    6  C12 MIQ B 502       0.041   4.493  22.411  1.00139.38     0.030 A 
HETATM    7  C13 MIQ B 502      -0.766   3.348  22.649  1.00141.18     0.019 A 
HETATM    8  C14 MIQ B 502      -0.702   2.185  21.722  1.00138.77     0.033 A 
HETATM    9  C15 MIQ B 502      -1.415   0.795  21.652  1.00142.10     0.195 A 
HETATM   10  N17 MIQ B 502      -0.933   0.191  20.579  1.00139.42    -0.288 N 
HETATM   11  O16 MIQ B 502      -2.364   0.297  22.546  1.00148.93    -0.171 OA
ENDROOT
BRANCH  10  12
HETATM   12  C18 MIQ B 502      -1.361  -1.144  20.204  1.00139.82     0.187 C 
HETATM   13  C19 MIQ B 502      -0.104  -1.984  19.948  1.00140.06     0.247 C 
HETATM   14  O25 MIQ B 502       0.748  -2.008  20.763  1.00143.95    -0.271 OA
HETATM   15  N20 MIQ B 502       0.064  -2.756  18.734  1.00140.02    -0.296 N 
HETATM   16  H13 MIQ B 502       0.892  -3.296  18.576  1.00142.77     0.171 HD
HETATM   17  C21 MIQ B 502      -0.986  -2.702  17.749  1.00142.22     0.224 C 
HETATM   18  C22 MIQ B 502      -1.735  -1.390  17.624  1.00139.52     0.106 C 
HETATM   19  O24 MIQ B 502      -1.251  -3.638  17.077  1.00146.13    -0.273 OA
HETATM   20  C23 MIQ B 502      -2.299  -1.082  18.999  1.00139.15     0.045 C 
ENDBRANCH  10  12
BRANCH   5  21
HETATM   21  N6  MIQ B 502       1.771   5.686  21.014  1.00140.95    -0.377 N 
HETATM   22  C7  MIQ B 502       2.939   5.529  20.164  1.00142.12     0.149 C 
HETATM   23  C8  MIQ B 502       4.024   6.546  20.496  1.00144.10     0.187 C 
HETATM   24  O9  MIQ B 502       3.534   7.849  20.601  1.00148.65    -0.388 OA
HETATM   25  C10 MIQ B 502       2.157   8.087  20.624  1.00147.44     0.187 C 
HETATM   26  C11 MIQ B 502       1.242   7.023  21.221  1.00144.08     0.149 C 
ENDBRANCH   5  21
TORSDOF 2
ENDMDL
