MODEL 1
REMARK VINA RESULT:      -6.4      0.000      0.000
REMARK  2 active torsions:
REMARK  status: ('A' for Active; 'I' for Inactive)
REMARK    1  A    between atoms: C5_5  and  N6_21 
REMARK    2  A    between atoms: C18_14  and  N17_19 
ROOT
HETATM    1  O1  MIQ B 502       7.529  17.708  -3.572  1.00142.91    -0.171 OA
HETATM    2  C2  MIQ B 502       8.294  18.781  -4.036  1.00141.17     0.195 A 
HETATM    3  C3  MIQ B 502       9.737  19.155  -3.570  1.00141.71     0.035 A 
HETATM    4  C4  MIQ B 502      10.677  18.560  -2.591  1.00142.86     0.046 A 
HETATM    5  C5  MIQ B 502      11.955  19.139  -2.381  1.00139.53     0.031 A 
HETATM    6  C12 MIQ B 502      12.343  20.324  -3.134  1.00139.38     0.030 A 
HETATM    7  C13 MIQ B 502      11.442  20.893  -4.073  1.00141.18     0.019 A 
HETATM    8  C14 MIQ B 502      10.104  20.280  -4.291  1.00138.77     0.033 A 
HETATM    9  C15 MIQ B 502       8.881  20.606  -5.210  1.00142.10     0.195 A 
HETATM   10  N17 MIQ B 502       7.971  19.683  -4.947  1.00139.42    -0.288 N 
HETATM   11  O16 MIQ B 502       8.776  21.660  -6.118  1.00148.93    -0.171 OA
ENDROOT
BRANCH  10  12
HETATM   12  C18 MIQ B 502       6.681  19.680  -5.613  1.00139.82     0.187 C 
HETATM   13  C19 MIQ B 502       5.598  19.575  -4.533  1.00140.06     0.247 C 
HETATM   14  O25 MIQ B 502       5.620  20.321  -3.620  1.00143.95    -0.271 OA
HETATM   15  N20 MIQ B 502       4.541  18.586  -4.605  1.00140.02    -0.296 N 
HETATM   16  H13 MIQ B 502       3.843  18.523  -3.890  1.00142.77     0.171 HD
HETATM   17  C21 MIQ B 502       4.541  17.680  -5.724  1.00142.22     0.224 C 
HETATM   18  C22 MIQ B 502       5.895  17.270  -6.269  1.00139.52     0.106 C 
HETATM   19  O24 MIQ B 502       3.533  17.281  -6.196  1.00146.13    -0.273 OA
HETATM   20  C23 MIQ B 502       6.616  18.553  -6.642  1.00139.15     0.045 C 
ENDBRANCH  10  12
BRANCH   5  21
HETATM   21  N6  MIQ B 502      12.860  18.556  -1.408  1.00140.95    -0.377 N 
HETATM   22  C7  MIQ B 502      14.130  18.025  -1.873  1.00142.12     0.149 C 
HETATM   23  C8  MIQ B 502      14.655  16.926  -0.958  1.00144.10     0.187 C 
HETATM   24  O9  MIQ B 502      14.612  17.275   0.393  1.00148.65    -0.388 OA
HETATM   25  C10 MIQ B 502      13.932  18.424   0.805  1.00147.44     0.187 C 
HETATM   26  C11 MIQ B 502      12.721  18.884  -0.000  1.00144.08     0.149 C 
ENDBRANCH   5  21
TORSDOF 2
ENDMDL
MODEL 2
REMARK VINA RESULT:      -6.2      4.114      8.942
REMARK  2 active torsions:
REMARK  status: ('A' for Active; 'I' for Inactive)
REMARK    1  A    between atoms: C5_5  and  N6_21 
REMARK    2  A    between atoms: C18_14  and  N17_19 
ROOT
HETATM    1  O1  MIQ B 502       4.961  18.779  -4.322  1.00142.91    -0.171 OA
HETATM    2  C2  MIQ B 502       5.494  19.957  -4.850  1.00141.17     0.195 A 
HETATM    3  C3  MIQ B 502       4.713  21.281  -5.126  1.00141.71     0.035 A 
HETATM    4  C4  MIQ B 502       3.300  21.688  -4.939  1.00142.86     0.046 A 
HETATM    5  C5  MIQ B 502       2.878  22.995  -5.292  1.00139.53     0.031 A 
HETATM    6  C12 MIQ B 502       3.839  23.941  -5.839  1.00139.38     0.030 A 
HETATM    7  C13 MIQ B 502       5.194  23.552  -6.017  1.00141.18     0.019 A 
HETATM    8  C14 MIQ B 502       5.632  22.179  -5.643  1.00138.77     0.033 A 
HETATM    9  C15 MIQ B 502       6.992  21.409  -5.688  1.00142.10     0.195 A 
HETATM   10  N17 MIQ B 502       6.742  20.200  -5.213  1.00139.42    -0.288 N 
HETATM   11  O16 MIQ B 502       8.217  21.902  -6.140  1.00148.93    -0.171 OA
ENDROOT
BRANCH  10  12
HETATM   12  C18 MIQ B 502       7.783  19.193  -5.120  1.00139.82     0.187 C 
HETATM   13  C19 MIQ B 502       7.216  17.881  -5.677  1.00140.06     0.247 C 
HETATM   14  O25 MIQ B 502       6.698  17.882  -6.737  1.00143.95    -0.271 OA
HETATM   15  N20 MIQ B 502       7.304  16.637  -4.941  1.00140.02    -0.296 N 
HETATM   16  H13 MIQ B 502       6.925  15.789  -5.312  1.00142.77     0.171 HD
HETATM   17  C21 MIQ B 502       7.933  16.664  -3.645  1.00142.22     0.224 C 
HETATM   18  C22 MIQ B 502       7.754  17.929  -2.827  1.00139.52     0.106 C 
HETATM   19  O24 MIQ B 502       8.560  15.746  -3.243  1.00146.13    -0.273 OA
HETATM   20  C23 MIQ B 502       8.277  19.071  -3.680  1.00139.15     0.045 C 
ENDBRANCH  10  12
BRANCH   5  21
HETATM   21  N6  MIQ B 502       1.488  23.375  -5.117  1.00140.95    -0.377 N 
HETATM   22  C7  MIQ B 502       1.179  24.502  -4.254  1.00142.12     0.149 C 
HETATM   23  C8  MIQ B 502      -0.219  24.396  -3.658  1.00144.10     0.187 C 
HETATM   24  O9  MIQ B 502      -1.193  24.089  -4.610  1.00148.65    -0.388 OA
HETATM   25  C10 MIQ B 502      -0.824  23.702  -5.901  1.00147.44     0.187 C 
HETATM   26  C11 MIQ B 502       0.494  22.958  -6.091  1.00144.08     0.149 C 
ENDBRANCH   5  21
TORSDOF 2
ENDMDL
MODEL 3
REMARK VINA RESULT:      -6.0      6.894     10.621
REMARK  2 active torsions:
REMARK  status: ('A' for Active; 'I' for Inactive)
REMARK    1  A    between atoms: C5_5  and  N6_21 
REMARK    2  A    between atoms: C18_14  and  N17_19 
ROOT
HETATM    1  O1  MIQ B 502      17.139  15.769  -5.306  1.00142.91    -0.171 OA
HETATM    2  C2  MIQ B 502      17.851  16.597  -4.435  1.00141.17     0.195 A 
HETATM    3  C3  MIQ B 502      19.296  16.347  -3.899  1.00141.71     0.035 A 
HETATM    4  C4  MIQ B 502      20.289  15.268  -4.112  1.00142.86     0.046 A 
HETATM    5  C5  MIQ B 502      21.553  15.320  -3.471  1.00139.53     0.031 A 
HETATM    6  C12 MIQ B 502      21.876  16.441  -2.600  1.00139.38     0.030 A 
HETATM    7  C13 MIQ B 502      20.924  17.476  -2.396  1.00141.18     0.019 A 
HETATM    8  C14 MIQ B 502      19.600  17.417  -3.073  1.00138.77     0.033 A 
HETATM    9  C15 MIQ B 502      18.336  18.338  -3.098  1.00142.10     0.195 A 
HETATM   10  N17 MIQ B 502      17.466  17.743  -3.898  1.00139.42    -0.288 N 
HETATM   11  O16 MIQ B 502      18.165  19.541  -2.411  1.00148.93    -0.171 OA
ENDROOT
BRANCH  10  12
HETATM   12  C18 MIQ B 502      16.155  18.312  -4.149  1.00139.82     0.187 C 
HETATM   13  C19 MIQ B 502      16.352  19.778  -4.554  1.00140.06     0.247 C 
HETATM   14  O25 MIQ B 502      17.117  20.041  -5.412  1.00143.95    -0.271 OA
HETATM   15  N20 MIQ B 502      15.618  20.851  -3.915  1.00140.02    -0.296 N 
HETATM   16  H13 MIQ B 502      15.760  21.805  -4.185  1.00142.77     0.171 HD
HETATM   17  C21 MIQ B 502      14.697  20.506  -2.864  1.00142.22     0.224 C 
HETATM   18  C22 MIQ B 502      15.071  19.324  -1.991  1.00139.52     0.106 C 
HETATM   19  O24 MIQ B 502      13.697  21.113  -2.695  1.00146.13    -0.273 OA
HETATM   20  C23 MIQ B 502      15.259  18.141  -2.923  1.00139.15     0.045 C 
ENDBRANCH  10  12
BRANCH   5  21
HETATM   21  N6  MIQ B 502      22.511  14.249  -3.677  1.00140.95    -0.377 N 
HETATM   22  C7  MIQ B 502      23.392  13.885  -2.581  1.00142.12     0.149 C 
HETATM   23  C8  MIQ B 502      24.695  13.272  -3.079  1.00144.10     0.187 C 
HETATM   24  O9  MIQ B 502      24.496  12.278  -4.039  1.00148.65    -0.388 OA
HETATM   25  C10 MIQ B 502      23.234  12.086  -4.607  1.00147.44     0.187 C 
HETATM   26  C11 MIQ B 502      22.305  13.287  -4.746  1.00144.08     0.149 C 
ENDBRANCH   5  21
TORSDOF 2
ENDMDL
MODEL 4
REMARK VINA RESULT:      -6.0      1.754      7.872
REMARK  2 active torsions:
REMARK  status: ('A' for Active; 'I' for Inactive)
REMARK    1  A    between atoms: C5_5  and  N6_21 
REMARK    2  A    between atoms: C18_14  and  N17_19 
ROOT
HETATM    1  O1  MIQ B 502      10.916  18.069  -1.709  1.00142.91    -0.171 OA
HETATM    2  C2  MIQ B 502      10.970  19.135  -2.610  1.00141.17     0.195 A 
HETATM    3  C3  MIQ B 502       9.869  19.523  -3.647  1.00141.71     0.035 A 
HETATM    4  C4  MIQ B 502       8.542  18.955  -3.985  1.00142.86     0.046 A 
HETATM    5  C5  MIQ B 502       7.748  19.543  -5.002  1.00139.53     0.031 A 
HETATM    6  C12 MIQ B 502       8.241  20.712  -5.717  1.00139.38     0.030 A 
HETATM    7  C13 MIQ B 502       9.512  21.257  -5.393  1.00141.18     0.019 A 
HETATM    8  C14 MIQ B 502      10.340  20.637  -4.323  1.00138.77     0.033 A 
HETATM    9  C15 MIQ B 502      11.741  20.943  -3.700  1.00142.10     0.195 A 
HETATM   10  N17 MIQ B 502      11.936  20.024  -2.769  1.00139.42    -0.288 N 
HETATM   11  O16 MIQ B 502      12.608  21.976  -4.060  1.00148.93    -0.171 OA
ENDROOT
BRANCH  10  12
HETATM   12  C18 MIQ B 502      13.156  19.987  -1.985  1.00139.82     0.187 C 
HETATM   13  C19 MIQ B 502      13.819  18.623  -2.214  1.00140.06     0.247 C 
HETATM   14  O25 MIQ B 502      13.994  18.247  -3.319  1.00143.95    -0.271 OA
HETATM   15  N20 MIQ B 502      14.243  17.784  -1.112  1.00140.02    -0.296 N 
HETATM   16  H13 MIQ B 502      14.668  16.893  -1.275  1.00142.77     0.171 HD
HETATM   17  C21 MIQ B 502      14.009  18.261   0.227  1.00142.22     0.224 C 
HETATM   18  C22 MIQ B 502      12.760  19.094   0.445  1.00139.52     0.106 C 
HETATM   19  O24 MIQ B 502      14.757  18.019   1.109  1.00146.13    -0.273 OA
HETATM   20  C23 MIQ B 502      12.851  20.267  -0.514  1.00139.15     0.045 C 
ENDBRANCH  10  12
BRANCH   5  21
HETATM   21  N6  MIQ B 502       6.458  18.968  -5.333  1.00140.95    -0.377 N 
HETATM   22  C7  MIQ B 502       6.267  17.539  -5.153  1.00142.12     0.149 C 
HETATM   23  C8  MIQ B 502       5.199  16.985  -6.087  1.00144.10     0.187 C 
HETATM   24  O9  MIQ B 502       4.029  17.747  -6.088  1.00148.65    -0.388 OA
HETATM   25  C10 MIQ B 502       3.998  18.996  -5.461  1.00147.44     0.187 C 
HETATM   26  C11 MIQ B 502       5.282  19.817  -5.406  1.00144.08     0.149 C 
ENDBRANCH   5  21
TORSDOF 2
ENDMDL
MODEL 5
REMARK VINA RESULT:      -6.0      7.177     12.825
REMARK  2 active torsions:
REMARK  status: ('A' for Active; 'I' for Inactive)
REMARK    1  A    between atoms: C5_5  and  N6_21 
REMARK    2  A    between atoms: C18_14  and  N17_19 
ROOT
HETATM    1  O1  MIQ B 502      21.429  18.094  -2.301  1.00142.91    -0.171 OA
HETATM    2  C2  MIQ B 502      20.650  17.201  -3.042  1.00141.17     0.195 A 
HETATM    3  C3  MIQ B 502      19.200  17.456  -3.564  1.00141.71     0.035 A 
HETATM    4  C4  MIQ B 502      18.268  18.604  -3.464  1.00142.86     0.046 A 
HETATM    5  C5  MIQ B 502      16.983  18.537  -4.059  1.00139.53     0.031 A 
HETATM    6  C12 MIQ B 502      16.578  17.334  -4.772  1.00139.38     0.030 A 
HETATM    7  C13 MIQ B 502      17.472  16.233  -4.868  1.00141.18     0.019 A 
HETATM    8  C14 MIQ B 502      18.821  16.310  -4.244  1.00138.77     0.033 A 
HETATM    9  C15 MIQ B 502      20.043  15.339  -4.144  1.00142.10     0.195 A 
HETATM   10  N17 MIQ B 502      20.967  15.985  -3.452  1.00139.42    -0.288 N 
HETATM   11  O16 MIQ B 502      20.133  14.052  -4.677  1.00148.93    -0.171 OA
ENDROOT
BRANCH  10  12
HETATM   12  C18 MIQ B 502      22.247  15.376  -3.146  1.00139.82     0.187 C 
HETATM   13  C19 MIQ B 502      23.008  15.197  -4.466  1.00140.06     0.247 C 
HETATM   14  O25 MIQ B 502      23.121  16.118  -5.194  1.00143.95    -0.271 OA
HETATM   15  N20 MIQ B 502      23.597  13.928  -4.842  1.00140.02    -0.296 N 
HETATM   16  H13 MIQ B 502      24.085  13.823  -5.709  1.00142.77     0.171 HD
HETATM   17  C21 MIQ B 502      23.436  12.816  -3.941  1.00142.22     0.224 C 
HETATM   18  C22 MIQ B 502      22.141  12.759  -3.153  1.00139.52     0.106 C 
HETATM   19  O24 MIQ B 502      24.276  11.993  -3.819  1.00146.13    -0.273 OA
HETATM   20  C23 MIQ B 502      22.045  14.065  -2.386  1.00139.15     0.045 C 
ENDBRANCH  10  12
BRANCH   5  21
HETATM   21  N6  MIQ B 502      16.074  19.663  -3.940  1.00140.95    -0.377 N 
HETATM   22  C7  MIQ B 502      15.056  19.627  -2.905  1.00142.12     0.149 C 
HETATM   23  C8  MIQ B 502      13.840  20.468  -3.275  1.00144.10     0.187 C 
HETATM   24  O9  MIQ B 502      14.179  21.742  -3.735  1.00148.65    -0.388 OA
HETATM   25  C10 MIQ B 502      15.509  22.059  -4.023  1.00147.44     0.187 C 
HETATM   26  C11 MIQ B 502      16.435  20.949  -4.511  1.00144.08     0.149 C 
ENDBRANCH   5  21
TORSDOF 2
ENDMDL
MODEL 6
REMARK VINA RESULT:      -5.9      9.462     14.913
REMARK  2 active torsions:
REMARK  status: ('A' for Active; 'I' for Inactive)
REMARK    1  A    between atoms: C5_5  and  N6_21 
REMARK    2  A    between atoms: C18_14  and  N17_19 
ROOT
HETATM    1  O1  MIQ B 502      22.312  13.842  -5.275  1.00142.91    -0.171 OA
HETATM    2  C2  MIQ B 502      22.735  14.872  -4.432  1.00141.17     0.195 A 
HETATM    3  C3  MIQ B 502      21.833  15.987  -3.813  1.00141.71     0.035 A 
HETATM    4  C4  MIQ B 502      20.385  16.290  -3.900  1.00142.86     0.046 A 
HETATM    5  C5  MIQ B 502      19.843  17.401  -3.205  1.00139.53     0.031 A 
HETATM    6  C12 MIQ B 502      20.714  18.246  -2.402  1.00139.38     0.030 A 
HETATM    7  C13 MIQ B 502      22.102  17.955  -2.318  1.00141.18     0.019 A 
HETATM    8  C14 MIQ B 502      22.666  16.786  -3.048  1.00138.77     0.033 A 
HETATM    9  C15 MIQ B 502      24.093  16.164  -3.192  1.00142.10     0.195 A 
HETATM   10  N17 MIQ B 502      23.956  15.115  -3.985  1.00139.42    -0.288 N 
HETATM   11  O16 MIQ B 502      25.270  16.628  -2.602  1.00148.93    -0.171 OA
ENDROOT
BRANCH  10  12
HETATM   12  C18 MIQ B 502      25.092  14.293  -4.358  1.00139.82     0.187 C 
HETATM   13  C19 MIQ B 502      25.188  14.293  -5.888  1.00140.06     0.247 C 
HETATM   14  O25 MIQ B 502      25.180  15.321  -6.466  1.00143.95    -0.271 OA
HETATM   15  N20 MIQ B 502      25.293  13.063  -6.647  1.00140.02    -0.296 N 
HETATM   16  H13 MIQ B 502      25.348  13.076  -7.646  1.00142.77     0.171 HD
HETATM   17  C21 MIQ B 502      25.290  11.820  -5.920  1.00142.22     0.224 C 
HETATM   18  C22 MIQ B 502      24.452  11.771  -4.657  1.00139.52     0.106 C 
HETATM   19  O24 MIQ B 502      25.915  10.887  -6.288  1.00146.13    -0.273 OA
HETATM   20  C23 MIQ B 502      24.953  12.892  -3.764  1.00139.15     0.045 C 
ENDBRANCH  10  12
BRANCH   5  21
HETATM   21  N6  MIQ B 502      18.425  17.695  -3.311  1.00140.95    -0.377 N 
HETATM   22  C7  MIQ B 502      17.630  16.948  -4.271  1.00142.12     0.149 C 
HETATM   23  C8  MIQ B 502      16.413  17.737  -4.737  1.00144.10     0.187 C 
HETATM   24  O9  MIQ B 502      15.696  18.304  -3.682  1.00148.65    -0.388 OA
HETATM   25  C10 MIQ B 502      16.225  18.308  -2.389  1.00147.44     0.187 C 
HETATM   26  C11 MIQ B 502      17.740  18.366  -2.220  1.00144.08     0.149 C 
ENDBRANCH   5  21
TORSDOF 2
ENDMDL
MODEL 7
REMARK VINA RESULT:      -5.9      2.731      4.136
REMARK  2 active torsions:
REMARK  status: ('A' for Active; 'I' for Inactive)
REMARK    1  A    between atoms: C5_5  and  N6_21 
REMARK    2  A    between atoms: C18_14  and  N17_19 
ROOT
HETATM    1  O1  MIQ B 502       9.485  19.701  -4.427  1.00142.91    -0.171 OA
HETATM    2  C2  MIQ B 502      10.017  19.130  -3.268  1.00141.17     0.195 A 
HETATM    3  C3  MIQ B 502      11.520  19.133  -2.845  1.00141.71     0.035 A 
HETATM    4  C4  MIQ B 502      12.751  19.684  -3.461  1.00142.86     0.046 A 
HETATM    5  C5  MIQ B 502      14.006  19.524  -2.820  1.00139.53     0.031 A 
HETATM    6  C12 MIQ B 502      14.084  18.816  -1.551  1.00139.38     0.030 A 
HETATM    7  C13 MIQ B 502      12.904  18.289  -0.960  1.00141.18     0.019 A 
HETATM    8  C14 MIQ B 502      11.590  18.461  -1.636  1.00138.77     0.033 A 
HETATM    9  C15 MIQ B 502      10.120  18.040  -1.306  1.00142.10     0.195 A 
HETATM   10  N17 MIQ B 502       9.379  18.488  -2.305  1.00139.42    -0.288 N 
HETATM   11  O16 MIQ B 502       9.686  17.332  -0.184  1.00148.93    -0.171 OA
ENDROOT
BRANCH  10  12
HETATM   12  C18 MIQ B 502       7.946  18.263  -2.345  1.00139.82     0.187 C 
HETATM   13  C19 MIQ B 502       7.625  17.519  -3.646  1.00140.06     0.247 C 
HETATM   14  O25 MIQ B 502       8.231  16.543  -3.916  1.00143.95    -0.271 OA
HETATM   15  N20 MIQ B 502       6.592  17.976  -4.553  1.00140.02    -0.296 N 
HETATM   16  H13 MIQ B 502       6.397  17.485  -5.403  1.00142.77     0.171 HD
HETATM   17  C21 MIQ B 502       5.873  19.175  -4.207  1.00142.22     0.224 C 
HETATM   18  C22 MIQ B 502       6.650  20.245  -3.464  1.00139.52     0.106 C 
HETATM   19  O24 MIQ B 502       4.733  19.314  -4.485  1.00146.13    -0.273 OA
HETATM   20  C23 MIQ B 502       7.196  19.588  -2.209  1.00139.15     0.045 C 
ENDBRANCH  10  12
BRANCH   5  21
HETATM   21  N6  MIQ B 502      15.205  20.055  -3.442  1.00140.95    -0.377 N 
HETATM   22  C7  MIQ B 502      16.172  19.123  -3.996  1.00142.12     0.149 C 
HETATM   23  C8  MIQ B 502      17.580  19.705  -4.011  1.00144.10     0.187 C 
HETATM   24  O9  MIQ B 502      17.628  20.998  -4.537  1.00148.65    -0.388 OA
HETATM   25  C10 MIQ B 502      16.449  21.706  -4.782  1.00147.44     0.187 C 
HETATM   26  C11 MIQ B 502      15.237  21.435  -3.897  1.00144.08     0.149 C 
ENDBRANCH   5  21
TORSDOF 2
ENDMDL
MODEL 8
REMARK VINA RESULT:      -5.9      1.450      2.377
REMARK  2 active torsions:
REMARK  status: ('A' for Active; 'I' for Inactive)
REMARK    1  A    between atoms: C5_5  and  N6_21 
REMARK    2  A    between atoms: C18_14  and  N17_19 
ROOT
HETATM    1  O1  MIQ B 502       9.660  20.885  -5.230  1.00142.91    -0.171 OA
HETATM    2  C2  MIQ B 502       9.384  19.857  -4.326  1.00141.17     0.195 A 
HETATM    3  C3  MIQ B 502      10.322  19.358  -3.182  1.00141.71     0.035 A 
HETATM    4  C4  MIQ B 502      11.671  19.764  -2.720  1.00142.86     0.046 A 
HETATM    5  C5  MIQ B 502      12.281  19.105  -1.622  1.00139.53     0.031 A 
HETATM    6  C12 MIQ B 502      11.578  18.025  -0.946  1.00139.38     0.030 A 
HETATM    7  C13 MIQ B 502      10.284  17.636  -1.388  1.00141.18     0.019 A 
HETATM    8  C14 MIQ B 502       9.648  18.332  -2.539  1.00138.77     0.033 A 
HETATM    9  C15 MIQ B 502       8.282  18.195  -3.288  1.00142.10     0.195 A 
HETATM   10  N17 MIQ B 502       8.296  19.110  -4.243  1.00139.42    -0.288 N 
HETATM   11  O16 MIQ B 502       7.261  17.287  -3.004  1.00148.93    -0.171 OA
ENDROOT
BRANCH  10  12
HETATM   12  C18 MIQ B 502       7.182  19.264  -5.160  1.00139.82     0.187 C 
HETATM   13  C19 MIQ B 502       5.915  19.485  -4.325  1.00140.06     0.247 C 
HETATM   14  O25 MIQ B 502       5.915  20.317  -3.488  1.00143.95    -0.271 OA
HETATM   15  N20 MIQ B 502       4.714  18.705  -4.538  1.00140.02    -0.296 N 
HETATM   16  H13 MIQ B 502       3.896  18.854  -3.981  1.00142.77     0.171 HD
HETATM   17  C21 MIQ B 502       4.742  17.688  -5.558  1.00142.22     0.224 C 
HETATM   18  C22 MIQ B 502       6.064  16.977  -5.775  1.00139.52     0.106 C 
HETATM   19  O24 MIQ B 502       3.782  17.427  -6.196  1.00146.13    -0.273 OA
HETATM   20  C23 MIQ B 502       7.086  18.055  -6.089  1.00139.15     0.045 C 
ENDBRANCH  10  12
BRANCH   5  21
HETATM   21  N6  MIQ B 502      13.608  19.504  -1.190  1.00140.95    -0.377 N 
HETATM   22  C7  MIQ B 502      14.728  18.629  -1.491  1.00142.12     0.149 C 
HETATM   23  C8  MIQ B 502      15.864  18.795  -0.489  1.00144.10     0.187 C 
HETATM   24  O9  MIQ B 502      16.196  20.132  -0.261  1.00148.65    -0.388 OA
HETATM   25  C10 MIQ B 502      15.380  21.156  -0.747  1.00147.44     0.187 C 
HETATM   26  C11 MIQ B 502      13.883  20.896  -0.880  1.00144.08     0.149 C 
ENDBRANCH   5  21
TORSDOF 2
ENDMDL
MODEL 9
REMARK VINA RESULT:      -5.8      4.402      8.929
REMARK  2 active torsions:
REMARK  status: ('A' for Active; 'I' for Inactive)
REMARK    1  A    between atoms: C5_5  and  N6_21 
REMARK    2  A    between atoms: C18_14  and  N17_19 
ROOT
HETATM    1  O1  MIQ B 502       8.172  21.888  -6.197  1.00142.91    -0.171 OA
HETATM    2  C2  MIQ B 502       6.980  21.332  -5.729  1.00141.17     0.195 A 
HETATM    3  C3  MIQ B 502       5.587  22.037  -5.687  1.00141.71     0.035 A 
HETATM    4  C4  MIQ B 502       5.114  23.383  -6.089  1.00142.86     0.046 A 
HETATM    5  C5  MIQ B 502       3.752  23.743  -5.926  1.00139.53     0.031 A 
HETATM    6  C12 MIQ B 502       2.814  22.783  -5.361  1.00139.38     0.030 A 
HETATM    7  C13 MIQ B 502       3.267  21.492  -4.976  1.00141.18     0.019 A 
HETATM    8  C14 MIQ B 502       4.698  21.120  -5.152  1.00138.77     0.033 A 
HETATM    9  C15 MIQ B 502       5.543  19.837  -4.861  1.00142.10     0.195 A 
HETATM   10  N17 MIQ B 502       6.779  20.121  -5.238  1.00139.42    -0.288 N 
HETATM   11  O16 MIQ B 502       5.083  18.640  -4.311  1.00148.93    -0.171 OA
ENDROOT
BRANCH  10  12
HETATM   12  C18 MIQ B 502       7.854  19.156  -5.099  1.00139.82     0.187 C 
HETATM   13  C19 MIQ B 502       7.345  17.809  -5.626  1.00140.06     0.247 C 
HETATM   14  O25 MIQ B 502       6.846  17.760  -6.694  1.00143.95    -0.271 OA
HETATM   15  N20 MIQ B 502       7.466  16.591  -4.852  1.00140.02    -0.296 N 
HETATM   16  H13 MIQ B 502       7.123  15.719  -5.204  1.00142.77     0.171 HD
HETATM   17  C21 MIQ B 502       8.069  16.678  -3.547  1.00142.22     0.224 C 
HETATM   18  C22 MIQ B 502       7.831  17.958  -2.770  1.00139.52     0.106 C 
HETATM   19  O24 MIQ B 502       8.722  15.796  -3.108  1.00146.13    -0.273 OA
HETATM   20  C23 MIQ B 502       8.327  19.094  -3.647  1.00139.15     0.045 C 
ENDBRANCH  10  12
BRANCH   5  21
HETATM   21  N6  MIQ B 502       3.306  25.069  -6.310  1.00140.95    -0.377 N 
HETATM   22  C7  MIQ B 502       4.294  26.026  -6.778  1.00142.12     0.149 C 
HETATM   23  C8  MIQ B 502       3.855  27.464  -6.528  1.00144.10     0.187 C 
HETATM   24  O9  MIQ B 502       2.544  27.711  -6.939  1.00148.65    -0.388 OA
HETATM   25  C10 MIQ B 502       1.707  26.655  -7.309  1.00147.44     0.187 C 
HETATM   26  C11 MIQ B 502       1.911  25.296  -6.647  1.00144.08     0.149 C 
ENDBRANCH   5  21
TORSDOF 2
ENDMDL
