MODEL 1
REMARK VINA RESULT:      -6.9      0.000      0.000
REMARK  2 active torsions:
REMARK  status: ('A' for Active; 'I' for Inactive)
REMARK    1  A    between atoms: C5_5  and  N6_21 
REMARK    2  A    between atoms: C18_14  and  N17_19 
ROOT
HETATM    1  O1  MIQ B 502      -8.468 -10.206  -8.558  1.00142.91    -0.171 OA
HETATM    2  C2  MIQ B 502      -9.376 -11.267  -8.578  1.00141.17     0.195 A 
HETATM    3  C3  MIQ B 502     -10.395 -11.630  -7.452  1.00141.71     0.035 A 
HETATM    4  C4  MIQ B 502     -10.710 -11.034  -6.131  1.00142.86     0.046 A 
HETATM    5  C5  MIQ B 502     -11.717 -11.602  -5.311  1.00139.53     0.031 A 
HETATM    6  C12 MIQ B 502     -12.446 -12.776  -5.769  1.00139.38     0.030 A 
HETATM    7  C13 MIQ B 502     -12.145 -13.347  -7.035  1.00141.18     0.019 A 
HETATM    8  C14 MIQ B 502     -11.089 -12.745  -7.893  1.00138.77     0.033 A 
HETATM    9  C15 MIQ B 502     -10.497 -13.076  -9.302  1.00142.10     0.195 A 
HETATM   10  N17 MIQ B 502      -9.565 -12.164  -9.530  1.00139.42    -0.288 N 
HETATM   11  O16 MIQ B 502     -10.876 -14.124 -10.143  1.00148.93    -0.171 OA
ENDROOT
BRANCH  10  12
HETATM   12  C18 MIQ B 502      -8.784 -12.169 -10.753  1.00139.82     0.187 C 
HETATM   13  C19 MIQ B 502      -7.303 -12.232 -10.361  1.00140.06     0.247 C 
HETATM   14  O25 MIQ B 502      -6.942 -13.061  -9.605  1.00143.95    -0.271 OA
HETATM   15  N20 MIQ B 502      -6.331 -11.302 -10.899  1.00140.02    -0.296 N 
HETATM   16  H13 MIQ B 502      -5.368 -11.349 -10.631  1.00142.77     0.171 HD
HETATM   17  C21 MIQ B 502      -6.798 -10.291 -11.813  1.00142.22     0.224 C 
HETATM   18  C22 MIQ B 502      -8.196  -9.754 -11.578  1.00139.52     0.106 C 
HETATM   19  O24 MIQ B 502      -6.124  -9.905 -12.704  1.00146.13    -0.273 OA
HETATM   20  C23 MIQ B 502      -9.129 -10.951 -11.609  1.00139.15     0.045 C 
ENDBRANCH  10  12
BRANCH   5  21
HETATM   21  N6  MIQ B 502     -12.004 -11.018  -4.013  1.00140.95    -0.377 N 
HETATM   22  C7  MIQ B 502     -13.075 -10.042  -3.913  1.00142.12     0.149 C 
HETATM   23  C8  MIQ B 502     -12.861  -9.078  -2.753  1.00144.10     0.187 C 
HETATM   24  O9  MIQ B 502     -12.532  -9.728  -1.561  1.00148.65    -0.388 OA
HETATM   25  C10 MIQ B 502     -12.218 -11.089  -1.561  1.00147.44     0.187 C 
HETATM   26  C11 MIQ B 502     -11.565 -11.688  -2.802  1.00144.08     0.149 C 
ENDBRANCH   5  21
TORSDOF 2
ENDMDL
MODEL 2
REMARK VINA RESULT:      -6.8      6.607     13.502
REMARK  2 active torsions:
REMARK  status: ('A' for Active; 'I' for Inactive)
REMARK    1  A    between atoms: C5_5  and  N6_21 
REMARK    2  A    between atoms: C18_14  and  N17_19 
ROOT
HETATM    1  O1  MIQ B 502     -13.863  -5.596   1.311  1.00142.91    -0.171 OA
HETATM    2  C2  MIQ B 502     -14.640  -6.684   1.715  1.00141.17     0.195 A 
HETATM    3  C3  MIQ B 502     -14.701  -8.082   1.021  1.00141.71     0.035 A 
HETATM    4  C4  MIQ B 502     -14.028  -8.660  -0.166  1.00142.86     0.046 A 
HETATM    5  C5  MIQ B 502     -14.293  -9.996  -0.559  1.00139.53     0.031 A 
HETATM    6  C12 MIQ B 502     -15.232 -10.803   0.207  1.00139.38     0.030 A 
HETATM    7  C13 MIQ B 502     -15.877 -10.249   1.346  1.00141.18     0.019 A 
HETATM    8  C14 MIQ B 502     -15.592  -8.846   1.756  1.00138.77     0.033 A 
HETATM    9  C15 MIQ B 502     -16.087  -7.918   2.913  1.00142.10     0.195 A 
HETATM   10  N17 MIQ B 502     -15.463  -6.763   2.747  1.00139.42    -0.288 N 
HETATM   11  O16 MIQ B 502     -17.002  -8.246   3.914  1.00148.93    -0.171 OA
ENDROOT
BRANCH  10  12
HETATM   12  C18 MIQ B 502     -15.693  -5.643   3.640  1.00139.82     0.187 C 
HETATM   13  C19 MIQ B 502     -15.417  -6.121   5.070  1.00140.06     0.247 C 
HETATM   14  O25 MIQ B 502     -14.401  -6.672   5.307  1.00143.95    -0.271 OA
HETATM   15  N20 MIQ B 502     -16.367  -5.910   6.143  1.00140.02    -0.296 N 
HETATM   16  H13 MIQ B 502     -16.178  -6.232   7.071  1.00142.77     0.171 HD
HETATM   17  C21 MIQ B 502     -17.604  -5.244   5.827  1.00142.22     0.224 C 
HETATM   18  C22 MIQ B 502     -18.180  -5.496   4.446  1.00139.52     0.106 C 
HETATM   19  O24 MIQ B 502     -18.139  -4.533   6.604  1.00146.13    -0.273 OA
HETATM   20  C23 MIQ B 502     -17.106  -5.094   3.451  1.00139.15     0.045 C 
ENDBRANCH  10  12
BRANCH   5  21
HETATM   21  N6  MIQ B 502     -13.638 -10.546  -1.733  1.00140.95    -0.377 N 
HETATM   22  C7  MIQ B 502     -13.920  -9.951  -3.028  1.00142.12     0.149 C 
HETATM   23  C8  MIQ B 502     -13.728 -10.947  -4.165  1.00144.10     0.187 C 
HETATM   24  O9  MIQ B 502     -12.521 -11.644  -4.078  1.00148.65    -0.388 OA
HETATM   25  C10 MIQ B 502     -11.736 -11.559  -2.925  1.00147.44     0.187 C 
HETATM   26  C11 MIQ B 502     -12.430 -11.338  -1.585  1.00144.08     0.149 C 
ENDBRANCH   5  21
TORSDOF 2
ENDMDL
MODEL 3
REMARK VINA RESULT:      -6.6      5.810     10.136
REMARK  2 active torsions:
REMARK  status: ('A' for Active; 'I' for Inactive)
REMARK    1  A    between atoms: C5_5  and  N6_21 
REMARK    2  A    between atoms: C18_14  and  N17_19 
ROOT
HETATM    1  O1  MIQ B 502     -16.592 -11.312  -0.254  1.00142.91    -0.171 OA
HETATM    2  C2  MIQ B 502     -15.563 -10.370  -0.180  1.00141.17     0.195 A 
HETATM    3  C3  MIQ B 502     -15.477  -9.176   0.823  1.00141.71     0.035 A 
HETATM    4  C4  MIQ B 502     -16.359  -8.696   1.914  1.00142.86     0.046 A 
HETATM    5  C5  MIQ B 502     -16.003  -7.551   2.672  1.00139.53     0.031 A 
HETATM    6  C12 MIQ B 502     -14.764  -6.846   2.376  1.00139.38     0.030 A 
HETATM    7  C13 MIQ B 502     -13.918  -7.306   1.331  1.00141.18     0.019 A 
HETATM    8  C14 MIQ B 502     -14.296  -8.510   0.541  1.00138.77     0.033 A 
HETATM    9  C15 MIQ B 502     -13.645  -9.295  -0.644  1.00142.10     0.195 A 
HETATM   10  N17 MIQ B 502     -14.469 -10.293  -0.918  1.00139.42    -0.288 N 
HETATM   11  O16 MIQ B 502     -12.439  -8.998  -1.281  1.00148.93    -0.171 OA
ENDROOT
BRANCH  10  12
HETATM   12  C18 MIQ B 502     -14.191 -11.233  -1.987  1.00139.82     0.187 C 
HETATM   13  C19 MIQ B 502     -12.893 -11.970  -1.636  1.00140.06     0.247 C 
HETATM   14  O25 MIQ B 502     -12.783 -12.468  -0.572  1.00143.95    -0.271 OA
HETATM   15  N20 MIQ B 502     -11.797 -12.078  -2.577  1.00140.02    -0.296 N 
HETATM   16  H13 MIQ B 502     -10.952 -12.556  -2.334  1.00142.77     0.171 HD
HETATM   17  C21 MIQ B 502     -11.952 -11.454  -3.866  1.00142.22     0.224 C 
HETATM   18  C22 MIQ B 502     -12.764 -10.174  -3.910  1.00139.52     0.106 C 
HETATM   19  O24 MIQ B 502     -11.472 -11.920  -4.840  1.00146.13    -0.273 OA
HETATM   20  C23 MIQ B 502     -14.126 -10.508  -3.330  1.00139.15     0.045 C 
ENDBRANCH  10  12
BRANCH   5  21
HETATM   21  N6  MIQ B 502     -16.882  -7.084   3.727  1.00140.95    -0.377 N 
HETATM   22  C7  MIQ B 502     -17.010  -5.652   3.942  1.00142.12     0.149 C 
HETATM   23  C8  MIQ B 502     -17.392  -5.325   5.380  1.00144.10     0.187 C 
HETATM   24  O9  MIQ B 502     -18.457  -6.096   5.848  1.00148.65    -0.388 OA
HETATM   25  C10 MIQ B 502     -18.918  -7.189   5.111  1.00147.44     0.187 C 
HETATM   26  C11 MIQ B 502     -17.924  -7.955   4.244  1.00144.08     0.149 C 
ENDBRANCH   5  21
TORSDOF 2
ENDMDL
MODEL 4
REMARK VINA RESULT:      -6.5      7.427     12.248
REMARK  2 active torsions:
REMARK  status: ('A' for Active; 'I' for Inactive)
REMARK    1  A    between atoms: C5_5  and  N6_21 
REMARK    2  A    between atoms: C18_14  and  N17_19 
ROOT
HETATM    1  O1  MIQ B 502     -16.775 -10.383   2.213  1.00142.91    -0.171 OA
HETATM    2  C2  MIQ B 502     -16.028  -9.234   1.945  1.00141.17     0.195 A 
HETATM    3  C3  MIQ B 502     -16.082  -7.892   2.742  1.00141.71     0.035 A 
HETATM    4  C4  MIQ B 502     -16.856  -7.438   3.922  1.00142.86     0.046 A 
HETATM    5  C5  MIQ B 502     -16.683  -6.126   4.431  1.00139.53     0.031 A 
HETATM    6  C12 MIQ B 502     -15.739  -5.222   3.791  1.00139.38     0.030 A 
HETATM    7  C13 MIQ B 502     -14.996  -5.657   2.661  1.00141.18     0.019 A 
HETATM    8  C14 MIQ B 502     -15.180  -7.036   2.132  1.00138.77     0.033 A 
HETATM    9  C15 MIQ B 502     -14.561  -7.852   0.950  1.00142.10     0.195 A 
HETATM   10  N17 MIQ B 502     -15.135  -9.043   0.989  1.00139.42    -0.288 N 
HETATM   11  O16 MIQ B 502     -13.601  -7.406   0.040  1.00148.93    -0.171 OA
ENDROOT
BRANCH  10  12
HETATM   12  C18 MIQ B 502     -14.811 -10.071   0.018  1.00139.82     0.187 C 
HETATM   13  C19 MIQ B 502     -13.302 -10.332   0.098  1.00140.06     0.247 C 
HETATM   14  O25 MIQ B 502     -12.810 -10.548   1.148  1.00143.95    -0.271 OA
HETATM   15  N20 MIQ B 502     -12.462 -10.327  -1.082  1.00140.02    -0.296 N 
HETATM   16  H13 MIQ B 502     -11.477 -10.492  -1.016  1.00142.77     0.171 HD
HETATM   17  C21 MIQ B 502     -13.085 -10.051  -2.352  1.00142.22     0.224 C 
HETATM   18  C22 MIQ B 502     -14.252  -9.083  -2.342  1.00139.52     0.106 C 
HETATM   19  O24 MIQ B 502     -12.706 -10.559  -3.349  1.00146.13    -0.273 OA
HETATM   20  C23 MIQ B 502     -15.276  -9.651  -1.376  1.00139.15     0.045 C 
ENDBRANCH  10  12
BRANCH   5  21
HETATM   21  N6  MIQ B 502     -17.459  -5.690   5.578  1.00140.95    -0.377 N 
HETATM   22  C7  MIQ B 502     -18.715  -4.999   5.344  1.00142.12     0.149 C 
HETATM   23  C8  MIQ B 502     -19.076  -4.070   6.497  1.00144.10     0.187 C 
HETATM   24  O9  MIQ B 502     -18.955  -4.682   7.746  1.00148.65    -0.388 OA
HETATM   25  C10 MIQ B 502     -18.339  -5.931   7.866  1.00147.44     0.187 C 
HETATM   26  C11 MIQ B 502     -17.237  -6.298   6.878  1.00144.08     0.149 C 
ENDBRANCH   5  21
TORSDOF 2
ENDMDL
MODEL 5
REMARK VINA RESULT:      -6.5      7.100     11.218
REMARK  2 active torsions:
REMARK  status: ('A' for Active; 'I' for Inactive)
REMARK    1  A    between atoms: C5_5  and  N6_21 
REMARK    2  A    between atoms: C18_14  and  N17_19 
ROOT
HETATM    1  O1  MIQ B 502     -15.938 -11.319  -2.083  1.00142.91    -0.171 OA
HETATM    2  C2  MIQ B 502     -16.252 -11.017  -0.756  1.00141.17     0.195 A 
HETATM    3  C3  MIQ B 502     -17.686 -10.958  -0.139  1.00141.71     0.035 A 
HETATM    4  C4  MIQ B 502     -19.043 -11.180  -0.692  1.00142.86     0.046 A 
HETATM    5  C5  MIQ B 502     -20.185 -11.051   0.139  1.00139.53     0.031 A 
HETATM    6  C12 MIQ B 502     -20.022 -10.699   1.542  1.00139.38     0.030 A 
HETATM    7  C13 MIQ B 502     -18.720 -10.487   2.073  1.00141.18     0.019 A 
HETATM    8  C14 MIQ B 502     -17.525 -10.626   1.196  1.00138.77     0.033 A 
HETATM    9  C15 MIQ B 502     -15.983 -10.480   1.409  1.00142.10     0.195 A 
HETATM   10  N17 MIQ B 502     -15.427 -10.731   0.236  1.00139.42    -0.288 N 
HETATM   11  O16 MIQ B 502     -15.331 -10.149   2.599  1.00148.93    -0.171 OA
ENDROOT
BRANCH  10  12
HETATM   12  C18 MIQ B 502     -13.989 -10.671   0.051  1.00139.82     0.187 C 
HETATM   13  C19 MIQ B 502     -13.707  -9.716  -1.115  1.00140.06     0.247 C 
HETATM   14  O25 MIQ B 502     -14.195  -8.642  -1.111  1.00143.95    -0.271 OA
HETATM   15  N20 MIQ B 502     -12.851 -10.092  -2.221  1.00140.02    -0.296 N 
HETATM   16  H13 MIQ B 502     -12.679  -9.462  -2.979  1.00142.77     0.171 HD
HETATM   17  C21 MIQ B 502     -12.274 -11.412  -2.209  1.00142.22     0.224 C 
HETATM   18  C22 MIQ B 502     -13.110 -12.515  -1.588  1.00139.52     0.106 C 
HETATM   19  O24 MIQ B 502     -11.201 -11.622  -2.656  1.00146.13    -0.273 OA
HETATM   20  C23 MIQ B 502     -13.423 -12.073  -0.170  1.00139.15     0.045 C 
ENDBRANCH  10  12
BRANCH   5  21
HETATM   21  N6  MIQ B 502     -21.509 -11.256  -0.419  1.00140.95    -0.377 N 
HETATM   22  C7  MIQ B 502     -22.314 -10.092  -0.746  1.00142.12     0.149 C 
HETATM   23  C8  MIQ B 502     -23.805 -10.397  -0.690  1.00144.10     0.187 C 
HETATM   24  O9  MIQ B 502     -24.146 -11.568  -1.370  1.00148.65    -0.388 OA
HETATM   25  C10 MIQ B 502     -23.151 -12.438  -1.824  1.00147.44     0.187 C 
HETATM   26  C11 MIQ B 502     -21.845 -12.525  -1.041  1.00144.08     0.149 C 
ENDBRANCH   5  21
TORSDOF 2
ENDMDL
MODEL 6
REMARK VINA RESULT:      -6.5      2.510      3.438
REMARK  2 active torsions:
REMARK  status: ('A' for Active; 'I' for Inactive)
REMARK    1  A    between atoms: C5_5  and  N6_21 
REMARK    2  A    between atoms: C18_14  and  N17_19 
ROOT
HETATM    1  O1  MIQ B 502     -13.121 -12.392  -8.059  1.00142.91    -0.171 OA
HETATM    2  C2  MIQ B 502     -12.126 -12.027  -7.150  1.00141.17     0.195 A 
HETATM    3  C3  MIQ B 502     -12.267 -11.985  -5.595  1.00141.71     0.035 A 
HETATM    4  C4  MIQ B 502     -13.380 -12.288  -4.664  1.00142.86     0.046 A 
HETATM    5  C5  MIQ B 502     -13.200 -12.155  -3.264  1.00139.53     0.031 A 
HETATM    6  C12 MIQ B 502     -11.914 -11.718  -2.739  1.00139.38     0.030 A 
HETATM    7  C13 MIQ B 502     -10.847 -11.428  -3.631  1.00141.18     0.019 A 
HETATM    8  C14 MIQ B 502     -11.041 -11.572  -5.100  1.00138.77     0.033 A 
HETATM    9  C15 MIQ B 502     -10.133 -11.357  -6.355  1.00142.10     0.195 A 
HETATM   10  N17 MIQ B 502     -10.883 -11.654  -7.403  1.00139.42    -0.288 N 
HETATM   11  O16 MIQ B 502      -8.802 -10.935  -6.362  1.00148.93    -0.171 OA
ENDROOT
BRANCH  10  12
HETATM   12  C18 MIQ B 502     -10.368 -11.552  -8.756  1.00139.82     0.187 C 
HETATM   13  C19 MIQ B 502      -9.054 -12.340  -8.817  1.00140.06     0.247 C 
HETATM   14  O25 MIQ B 502      -9.029 -13.450  -8.420  1.00143.95    -0.271 OA
HETATM   15  N20 MIQ B 502      -7.841 -11.761  -9.356  1.00140.02    -0.296 N 
HETATM   16  H13 MIQ B 502      -6.987 -12.284  -9.384  1.00142.77     0.171 HD
HETATM   17  C21 MIQ B 502      -7.893 -10.400  -9.826  1.00142.22     0.224 C 
HETATM   18  C22 MIQ B 502      -8.827  -9.461  -9.088  1.00139.52     0.106 C 
HETATM   19  O24 MIQ B 502      -7.244 -10.038 -10.744  1.00146.13    -0.273 OA
HETATM   20  C23 MIQ B 502     -10.209 -10.085  -9.155  1.00139.15     0.045 C 
ENDBRANCH  10  12
BRANCH   5  21
HETATM   21  N6  MIQ B 502     -14.303 -12.441  -2.365  1.00140.95    -0.377 N 
HETATM   22  C7  MIQ B 502     -15.326 -11.427  -2.177  1.00142.12     0.149 C 
HETATM   23  C8  MIQ B 502     -16.007 -11.551  -0.820  1.00144.10     0.187 C 
HETATM   24  O9  MIQ B 502     -16.401 -12.859  -0.527  1.00148.65    -0.388 OA
HETATM   25  C10 MIQ B 502     -15.975 -13.922  -1.328  1.00147.44     0.187 C 
HETATM   26  C11 MIQ B 502     -14.622 -13.816  -2.022  1.00144.08     0.149 C 
ENDBRANCH   5  21
TORSDOF 2
ENDMDL
MODEL 7
REMARK VINA RESULT:      -6.5      5.931      9.932
REMARK  2 active torsions:
REMARK  status: ('A' for Active; 'I' for Inactive)
REMARK    1  A    between atoms: C5_5  and  N6_21 
REMARK    2  A    between atoms: C18_14  and  N17_19 
ROOT
HETATM    1  O1  MIQ B 502     -13.237  -9.667  -0.697  1.00142.91    -0.171 OA
HETATM    2  C2  MIQ B 502     -14.473 -10.248  -0.403  1.00141.17     0.195 A 
HETATM    3  C3  MIQ B 502     -15.435  -9.834   0.756  1.00141.71     0.035 A 
HETATM    4  C4  MIQ B 502     -15.368  -8.798   1.814  1.00142.86     0.046 A 
HETATM    5  C5  MIQ B 502     -16.426  -8.658   2.748  1.00139.53     0.031 A 
HETATM    6  C12 MIQ B 502     -17.583  -9.538   2.665  1.00139.38     0.030 A 
HETATM    7  C13 MIQ B 502     -17.648 -10.530   1.650  1.00141.18     0.019 A 
HETATM    8  C14 MIQ B 502     -16.535 -10.671   0.671  1.00138.77     0.033 A 
HETATM    9  C15 MIQ B 502     -16.256 -11.609  -0.548  1.00142.10     0.195 A 
HETATM   10  N17 MIQ B 502     -15.080 -11.242  -1.029  1.00139.42    -0.288 N 
HETATM   11  O16 MIQ B 502     -17.082 -12.628  -1.025  1.00148.93    -0.171 OA
ENDROOT
BRANCH  10  12
HETATM   12  C18 MIQ B 502     -14.485 -11.914  -2.169  1.00139.82     0.187 C 
HETATM   13  C19 MIQ B 502     -13.099 -12.417  -1.745  1.00140.06     0.247 C 
HETATM   14  O25 MIQ B 502     -12.994 -13.051  -0.757  1.00143.95    -0.271 OA
HETATM   15  N20 MIQ B 502     -11.913 -12.139  -2.529  1.00140.02    -0.296 N 
HETATM   16  H13 MIQ B 502     -11.013 -12.467  -2.238  1.00142.77     0.171 HD
HETATM   17  C21 MIQ B 502     -12.065 -11.353  -3.727  1.00142.22     0.224 C 
HETATM   18  C22 MIQ B 502     -13.135 -10.279  -3.706  1.00139.52     0.106 C 
HETATM   19  O24 MIQ B 502     -11.392 -11.543  -4.680  1.00146.13    -0.273 OA
HETATM   20  C23 MIQ B 502     -14.441 -10.977  -3.375  1.00139.15     0.045 C 
ENDBRANCH  10  12
BRANCH   5  21
HETATM   21  N6  MIQ B 502     -16.341  -7.650   3.788  1.00140.95    -0.377 N 
HETATM   22  C7  MIQ B 502     -15.059  -7.013   4.035  1.00142.12     0.149 C 
HETATM   23  C8  MIQ B 502     -14.940  -6.512   5.469  1.00144.10     0.187 C 
HETATM   24  O9  MIQ B 502     -16.057  -5.785   5.885  1.00148.65    -0.388 OA
HETATM   25  C10 MIQ B 502     -17.216  -5.762   5.106  1.00147.44     0.187 C 
HETATM   26  C11 MIQ B 502     -17.545  -6.980   4.250  1.00144.08     0.149 C 
ENDBRANCH   5  21
TORSDOF 2
ENDMDL
MODEL 8
REMARK VINA RESULT:      -6.4      7.759     10.866
REMARK  2 active torsions:
REMARK  status: ('A' for Active; 'I' for Inactive)
REMARK    1  A    between atoms: C5_5  and  N6_21 
REMARK    2  A    between atoms: C18_14  and  N17_19 
ROOT
HETATM    1  O1  MIQ B 502     -16.378  -9.404  -1.233  1.00142.91    -0.171 OA
HETATM    2  C2  MIQ B 502     -16.542 -10.778  -1.039  1.00141.17     0.195 A 
HETATM    3  C3  MIQ B 502     -17.902 -11.533  -0.896  1.00141.71     0.035 A 
HETATM    4  C4  MIQ B 502     -19.318 -11.096  -0.919  1.00142.86     0.046 A 
HETATM    5  C5  MIQ B 502     -20.363 -12.041  -0.760  1.00139.53     0.031 A 
HETATM    6  C12 MIQ B 502     -20.041 -13.449  -0.573  1.00139.38     0.030 A 
HETATM    7  C13 MIQ B 502     -18.684 -13.868  -0.552  1.00141.18     0.019 A 
HETATM    8  C14 MIQ B 502     -17.591 -12.872  -0.722  1.00138.77     0.033 A 
HETATM    9  C15 MIQ B 502     -16.030 -12.948  -0.758  1.00142.10     0.195 A 
HETATM   10  N17 MIQ B 502     -15.608 -11.708  -0.943  1.00139.42    -0.288 N 
HETATM   11  O16 MIQ B 502     -15.246 -14.095  -0.620  1.00148.93    -0.171 OA
ENDROOT
BRANCH  10  12
HETATM   12  C18 MIQ B 502     -14.194 -11.392  -1.013  1.00139.82     0.187 C 
HETATM   13  C19 MIQ B 502     -13.920 -10.250  -0.027  1.00140.06     0.247 C 
HETATM   14  O25 MIQ B 502     -14.295 -10.348   1.088  1.00143.95    -0.271 OA
HETATM   15  N20 MIQ B 502     -13.209  -9.052  -0.424  1.00140.02    -0.296 N 
HETATM   16  H13 MIQ B 502     -13.043  -8.310   0.228  1.00142.77     0.171 HD
HETATM   17  C21 MIQ B 502     -12.771  -8.950  -1.792  1.00142.22     0.224 C 
HETATM   18  C22 MIQ B 502     -13.656  -9.596  -2.841  1.00139.52     0.106 C 
HETATM   19  O24 MIQ B 502     -11.768  -8.395  -2.080  1.00146.13    -0.273 OA
HETATM   20  C23 MIQ B 502     -13.794 -11.055  -2.448  1.00139.15     0.045 C 
ENDBRANCH  10  12
BRANCH   5  21
HETATM   21  N6  MIQ B 502     -21.745 -11.597  -0.769  1.00140.95    -0.377 N 
HETATM   22  C7  MIQ B 502     -22.022 -10.187  -0.556  1.00142.12     0.149 C 
HETATM   23  C8  MIQ B 502     -23.407  -9.963   0.039  1.00144.10     0.187 C 
HETATM   24  O9  MIQ B 502     -24.406 -10.674  -0.629  1.00148.65    -0.388 OA
HETATM   25  C10 MIQ B 502     -24.071 -11.646  -1.576  1.00147.44     0.187 C 
HETATM   26  C11 MIQ B 502     -22.765 -12.413  -1.403  1.00144.08     0.149 C 
ENDBRANCH   5  21
TORSDOF 2
ENDMDL
MODEL 9
REMARK VINA RESULT:      -6.3      5.665      9.708
REMARK  2 active torsions:
REMARK  status: ('A' for Active; 'I' for Inactive)
REMARK    1  A    between atoms: C5_5  and  N6_21 
REMARK    2  A    between atoms: C18_14  and  N17_19 
ROOT
HETATM    1  O1  MIQ B 502     -16.499  -9.291  -1.021  1.00142.91    -0.171 OA
HETATM    2  C2  MIQ B 502     -15.227  -9.684  -0.598  1.00141.17     0.195 A 
HETATM    3  C3  MIQ B 502     -14.599  -9.417   0.807  1.00141.71     0.035 A 
HETATM    4  C4  MIQ B 502     -15.088  -8.737   2.029  1.00142.86     0.046 A 
HETATM    5  C5  MIQ B 502     -14.265  -8.654   3.181  1.00139.53     0.031 A 
HETATM    6  C12 MIQ B 502     -12.933  -9.241   3.162  1.00139.38     0.030 A 
HETATM    7  C13 MIQ B 502     -12.464  -9.895   1.990  1.00141.18     0.019 A 
HETATM    8  C14 MIQ B 502     -13.333  -9.981   0.785  1.00138.77     0.033 A 
HETATM    9  C15 MIQ B 502     -13.175 -10.601  -0.642  1.00142.10     0.195 A 
HETATM   10  N17 MIQ B 502     -14.309 -10.352  -1.276  1.00139.42    -0.288 N 
HETATM   11  O16 MIQ B 502     -12.061 -11.278  -1.140  1.00148.93    -0.171 OA
ENDROOT
BRANCH  10  12
HETATM   12  C18 MIQ B 502     -14.517 -10.773  -2.649  1.00139.82     0.187 C 
HETATM   13  C19 MIQ B 502     -14.240 -12.279  -2.723  1.00140.06     0.247 C 
HETATM   14  O25 MIQ B 502     -14.770 -13.001  -1.956  1.00143.95    -0.271 OA
HETATM   15  N20 MIQ B 502     -13.347 -12.843  -3.715  1.00140.02    -0.296 N 
HETATM   16  H13 MIQ B 502     -13.169 -13.828  -3.749  1.00142.77     0.171 HD
HETATM   17  C21 MIQ B 502     -12.703 -11.940  -4.634  1.00142.22     0.224 C 
HETATM   18  C22 MIQ B 502     -12.349 -10.565  -4.103  1.00139.52     0.106 C 
HETATM   19  O24 MIQ B 502     -12.468 -12.257  -5.748  1.00146.13    -0.273 OA
HETATM   20  C23 MIQ B 502     -13.642  -9.953  -3.595  1.00139.15     0.045 C 
ENDBRANCH  10  12
BRANCH   5  21
HETATM   21  N6  MIQ B 502     -14.751  -7.971   4.366  1.00140.95    -0.377 N 
HETATM   22  C7  MIQ B 502     -14.545  -8.596   5.661  1.00142.12     0.149 C 
HETATM   23  C8  MIQ B 502     -15.598  -8.166   6.675  1.00144.10     0.187 C 
HETATM   24  O9  MIQ B 502     -15.791  -6.783   6.703  1.00148.65    -0.388 OA
HETATM   25  C10 MIQ B 502     -15.223  -5.969   5.721  1.00147.44     0.187 C 
HETATM   26  C11 MIQ B 502     -15.021  -6.545   4.323  1.00144.08     0.149 C 
ENDBRANCH   5  21
TORSDOF 2
ENDMDL
