MODEL 1
REMARK VINA RESULT:      -6.6      0.000      0.000
REMARK  2 active torsions:
REMARK  status: ('A' for Active; 'I' for Inactive)
REMARK    1  A    between atoms: C5_5  and  N6_21 
REMARK    2  A    between atoms: C18_14  and  N17_19 
ROOT
HETATM    1  O1  MIQ B 502       1.526  12.266 -13.044  1.00142.91    -0.171 OA
HETATM    2  C2  MIQ B 502       1.724  11.341 -12.016  1.00141.17     0.195 A 
HETATM    3  C3  MIQ B 502       2.093   9.833 -12.192  1.00141.71     0.035 A 
HETATM    4  C4  MIQ B 502       2.334   8.974 -13.375  1.00142.86     0.046 A 
HETATM    5  C5  MIQ B 502       2.662   7.604 -13.211  1.00139.53     0.031 A 
HETATM    6  C12 MIQ B 502       2.763   7.040 -11.873  1.00139.38     0.030 A 
HETATM    7  C13 MIQ B 502       2.533   7.864 -10.738  1.00141.18     0.019 A 
HETATM    8  C14 MIQ B 502       2.191   9.302 -10.916  1.00138.77     0.033 A 
HETATM    9  C15 MIQ B 502       1.883  10.486  -9.943  1.00142.10     0.195 A 
HETATM   10  N17 MIQ B 502       1.649  11.538 -10.711  1.00139.42    -0.288 N 
HETATM   11  O16 MIQ B 502       1.857  10.437  -8.549  1.00148.93    -0.171 OA
ENDROOT
BRANCH  10  12
HETATM   12  C18 MIQ B 502       1.308  12.829 -10.144  1.00139.82     0.187 C 
HETATM   13  C19 MIQ B 502       2.356  13.162  -9.075  1.00140.06     0.247 C 
HETATM   14  O25 MIQ B 502       3.501  13.090  -9.350  1.00143.95    -0.271 OA
HETATM   15  N20 MIQ B 502       1.980  13.569  -7.737  1.00140.02    -0.296 N 
HETATM   16  H13 MIQ B 502       2.674  13.777  -7.046  1.00142.77     0.171 HD
HETATM   17  C21 MIQ B 502       0.576  13.639  -7.423  1.00142.22     0.224 C 
HETATM   18  C22 MIQ B 502      -0.326  12.631  -8.108  1.00139.52     0.106 C 
HETATM   19  O24 MIQ B 502       0.150  14.447  -6.673  1.00146.13    -0.273 OA
HETATM   20  C23 MIQ B 502      -0.120  12.811  -9.601  1.00139.15     0.045 C 
ENDBRANCH  10  12
BRANCH   5  21
HETATM   21  N6  MIQ B 502       2.880   6.771 -14.380  1.00140.95    -0.377 N 
HETATM   22  C7  MIQ B 502       4.231   6.642 -14.898  1.00142.12     0.149 C 
HETATM   23  C8  MIQ B 502       4.241   6.325 -16.388  1.00144.10     0.187 C 
HETATM   24  O9  MIQ B 502       3.370   5.289 -16.729  1.00148.65    -0.388 OA
HETATM   25  C10 MIQ B 502       2.449   4.803 -15.797  1.00147.44     0.187 C 
HETATM   26  C11 MIQ B 502       1.901   5.762 -14.745  1.00144.08     0.149 C 
ENDBRANCH   5  21
TORSDOF 2
ENDMDL
MODEL 2
REMARK VINA RESULT:      -6.6      2.605      3.429
REMARK  2 active torsions:
REMARK  status: ('A' for Active; 'I' for Inactive)
REMARK    1  A    between atoms: C5_5  and  N6_21 
REMARK    2  A    between atoms: C18_14  and  N17_19 
ROOT
HETATM    1  O1  MIQ B 502       4.624  11.716  -8.882  1.00142.91    -0.171 OA
HETATM    2  C2  MIQ B 502       3.343  11.357  -9.306  1.00141.17     0.195 A 
HETATM    3  C3  MIQ B 502       2.928   9.984  -9.925  1.00141.71     0.035 A 
HETATM    4  C4  MIQ B 502       3.671   8.739 -10.233  1.00142.86     0.046 A 
HETATM    5  C5  MIQ B 502       3.001   7.629 -10.808  1.00139.53     0.031 A 
HETATM    6  C12 MIQ B 502       1.577   7.714 -11.095  1.00139.38     0.030 A 
HETATM    7  C13 MIQ B 502       0.864   8.907 -10.798  1.00141.18     0.019 A 
HETATM    8  C14 MIQ B 502       1.571  10.068 -10.193  1.00138.77     0.033 A 
HETATM    9  C15 MIQ B 502       1.142  11.501  -9.738  1.00142.10     0.195 A 
HETATM   10  N17 MIQ B 502       2.236  12.079  -9.270  1.00139.42    -0.288 N 
HETATM   11  O16 MIQ B 502      -0.137  12.054  -9.814  1.00148.93    -0.171 OA
ENDROOT
BRANCH  10  12
HETATM   12  C18 MIQ B 502       2.218  13.440  -8.767  1.00139.82     0.187 C 
HETATM   13  C19 MIQ B 502       3.314  14.224  -9.501  1.00140.06     0.247 C 
HETATM   14  O25 MIQ B 502       3.355  14.191 -10.679  1.00143.95    -0.271 OA
HETATM   15  N20 MIQ B 502       4.298  15.011  -8.786  1.00140.02    -0.296 N 
HETATM   16  H13 MIQ B 502       5.012  15.513  -9.276  1.00142.77     0.171 HD
HETATM   17  C21 MIQ B 502       4.233  15.028  -7.348  1.00142.22     0.224 C 
HETATM   18  C22 MIQ B 502       3.757  13.756  -6.672  1.00139.52     0.106 C 
HETATM   19  O24 MIQ B 502       4.531  15.989  -6.727  1.00146.13    -0.273 OA
HETATM   20  C23 MIQ B 502       2.388  13.448  -7.249  1.00139.15     0.045 C 
ENDBRANCH  10  12
BRANCH   5  21
HETATM   21  N6  MIQ B 502       3.744   6.421 -11.118  1.00140.95    -0.377 N 
HETATM   22  C7  MIQ B 502       3.946   6.070 -12.513  1.00142.12     0.149 C 
HETATM   23  C8  MIQ B 502       4.130   4.569 -12.701  1.00144.10     0.187 C 
HETATM   24  O9  MIQ B 502       5.050   4.018 -11.807  1.00148.65    -0.388 OA
HETATM   25  C10 MIQ B 502       5.532   4.771 -10.733  1.00147.44     0.187 C 
HETATM   26  C11 MIQ B 502       4.625   5.835 -10.123  1.00144.08     0.149 C 
ENDBRANCH   5  21
TORSDOF 2
ENDMDL
MODEL 3
REMARK VINA RESULT:      -6.4      2.270      8.222
REMARK  2 active torsions:
REMARK  status: ('A' for Active; 'I' for Inactive)
REMARK    1  A    between atoms: C5_5  and  N6_21 
REMARK    2  A    between atoms: C18_14  and  N17_19 
ROOT
HETATM    1  O1  MIQ B 502       2.486  11.233 -13.847  1.00142.91    -0.171 OA
HETATM    2  C2  MIQ B 502       2.250  10.657 -12.597  1.00141.17     0.195 A 
HETATM    3  C3  MIQ B 502       2.046  11.424 -11.252  1.00141.71     0.035 A 
HETATM    4  C4  MIQ B 502       2.032  12.861 -10.890  1.00142.86     0.046 A 
HETATM    5  C5  MIQ B 502       1.814  13.260  -9.547  1.00139.53     0.031 A 
HETATM    6  C12 MIQ B 502       1.602  12.252  -8.519  1.00139.38     0.030 A 
HETATM    7  C13 MIQ B 502       1.614  10.874  -8.866  1.00141.18     0.019 A 
HETATM    8  C14 MIQ B 502       1.841  10.461 -10.278  1.00138.77     0.033 A 
HETATM    9  C15 MIQ B 502       1.917   9.088 -11.022  1.00142.10     0.195 A 
HETATM   10  N17 MIQ B 502       2.146   9.374 -12.293  1.00139.42    -0.288 N 
HETATM   11  O16 MIQ B 502       1.776   7.820 -10.455  1.00148.93    -0.171 OA
ENDROOT
BRANCH  10  12
HETATM   12  C18 MIQ B 502       2.294   8.330 -13.290  1.00139.82     0.187 C 
HETATM   13  C19 MIQ B 502       1.127   7.350 -13.118  1.00140.06     0.247 C 
HETATM   14  O25 MIQ B 502       0.025   7.768 -13.079  1.00143.95    -0.271 OA
HETATM   15  N20 MIQ B 502       1.339   5.922 -13.008  1.00140.02    -0.296 N 
HETATM   16  H13 MIQ B 502       0.570   5.293 -12.889  1.00142.77     0.171 HD
HETATM   17  C21 MIQ B 502       2.695   5.436 -13.048  1.00142.22     0.224 C 
HETATM   18  C22 MIQ B 502       3.757   6.332 -12.440  1.00139.52     0.106 C 
HETATM   19  O24 MIQ B 502       2.964   4.393 -13.535  1.00146.13    -0.273 OA
HETATM   20  C23 MIQ B 502       3.663   7.664 -13.162  1.00139.15     0.045 C 
ENDBRANCH  10  12
BRANCH   5  21
HETATM   21  N6  MIQ B 502       1.819  14.671  -9.205  1.00140.95    -0.377 N 
HETATM   22  C7  MIQ B 502       2.134  15.053  -7.839  1.00142.12     0.149 C 
HETATM   23  C8  MIQ B 502       1.500  16.386  -7.461  1.00144.10     0.187 C 
HETATM   24  O9  MIQ B 502       1.707  17.378  -8.421  1.00148.65    -0.388 OA
HETATM   25  C10 MIQ B 502       2.239  17.052  -9.672  1.00147.44     0.187 C 
HETATM   26  C11 MIQ B 502       1.951  15.671 -10.250  1.00144.08     0.149 C 
ENDBRANCH   5  21
TORSDOF 2
ENDMDL
MODEL 4
REMARK VINA RESULT:      -6.4      1.810      8.441
REMARK  2 active torsions:
REMARK  status: ('A' for Active; 'I' for Inactive)
REMARK    1  A    between atoms: C5_5  and  N6_21 
REMARK    2  A    between atoms: C18_14  and  N17_19 
ROOT
HETATM    1  O1  MIQ B 502       3.096   7.355 -10.482  1.00142.91    -0.171 OA
HETATM    2  C2  MIQ B 502       2.900   8.155 -11.610  1.00141.17     0.195 A 
HETATM    3  C3  MIQ B 502       2.422   9.642 -11.614  1.00141.71     0.035 A 
HETATM    4  C4  MIQ B 502       2.059  10.599 -10.542  1.00142.86     0.046 A 
HETATM    5  C5  MIQ B 502       1.653  11.918 -10.866  1.00139.53     0.031 A 
HETATM    6  C12 MIQ B 502       1.593  12.334 -12.260  1.00139.38     0.030 A 
HETATM    7  C13 MIQ B 502       1.942  11.417 -13.288  1.00141.18     0.019 A 
HETATM    8  C14 MIQ B 502       2.370  10.034 -12.942  1.00138.77     0.033 A 
HETATM    9  C15 MIQ B 502       2.820   8.784 -13.767  1.00142.10     0.195 A 
HETATM   10  N17 MIQ B 502       3.078   7.836 -12.881  1.00139.42    -0.288 N 
HETATM   11  O16 MIQ B 502       2.923   8.692 -15.156  1.00148.93    -0.171 OA
ENDROOT
BRANCH  10  12
HETATM   12  C18 MIQ B 502       3.511   6.514 -13.292  1.00139.82     0.187 C 
HETATM   13  C19 MIQ B 502       4.679   6.687 -14.270  1.00140.06     0.247 C 
HETATM   14  O25 MIQ B 502       5.589   7.374 -13.965  1.00143.95    -0.271 OA
HETATM   15  N20 MIQ B 502       4.701   6.026 -15.559  1.00140.02    -0.296 N 
HETATM   16  H13 MIQ B 502       5.466   6.153 -16.191  1.00142.77     0.171 HD
HETATM   17  C21 MIQ B 502       3.574   5.202 -15.913  1.00142.22     0.224 C 
HETATM   18  C22 MIQ B 502       2.218   5.643 -15.396  1.00139.52     0.106 C 
HETATM   19  O24 MIQ B 502       3.703   4.228 -16.570  1.00146.13    -0.273 OA
HETATM   20  C23 MIQ B 502       2.341   5.731 -13.886  1.00139.15     0.045 C 
ENDBRANCH  10  12
BRANCH   5  21
HETATM   21  N6  MIQ B 502       1.286  12.840  -9.806  1.00140.95    -0.377 N 
HETATM   22  C7  MIQ B 502       0.984  14.217 -10.157  1.00142.12     0.149 C 
HETATM   23  C8  MIQ B 502       1.252  15.170  -9.000  1.00144.10     0.187 C 
HETATM   24  O9  MIQ B 502       0.706  14.728  -7.794  1.00148.65    -0.388 OA
HETATM   25  C10 MIQ B 502       0.190  13.435  -7.682  1.00147.44     0.187 C 
HETATM   26  C11 MIQ B 502       0.803  12.329  -8.535  1.00144.08     0.149 C 
ENDBRANCH   5  21
TORSDOF 2
ENDMDL
MODEL 5
REMARK VINA RESULT:      -6.3      1.143      1.285
REMARK  2 active torsions:
REMARK  status: ('A' for Active; 'I' for Inactive)
REMARK    1  A    between atoms: C5_5  and  N6_21 
REMARK    2  A    between atoms: C18_14  and  N17_19 
ROOT
HETATM    1  O1  MIQ B 502       3.366  11.820 -13.247  1.00142.91    -0.171 OA
HETATM    2  C2  MIQ B 502       2.779  10.807 -12.486  1.00141.17     0.195 A 
HETATM    3  C3  MIQ B 502       2.619   9.311 -12.908  1.00141.71     0.035 A 
HETATM    4  C4  MIQ B 502       2.998   8.549 -14.121  1.00142.86     0.046 A 
HETATM    5  C5  MIQ B 502       2.714   7.163 -14.214  1.00139.53     0.031 A 
HETATM    6  C12 MIQ B 502       2.048   6.486 -13.111  1.00139.38     0.030 A 
HETATM    7  C13 MIQ B 502       1.686   7.217 -11.947  1.00141.18     0.019 A 
HETATM    8  C14 MIQ B 502       1.988   8.671 -11.854  1.00138.77     0.033 A 
HETATM    9  C15 MIQ B 502       1.755   9.775 -10.771  1.00142.10     0.195 A 
HETATM   10  N17 MIQ B 502       2.251  10.892 -11.277  1.00139.42    -0.288 N 
HETATM   11  O16 MIQ B 502       1.144   9.610  -9.527  1.00148.93    -0.171 OA
ENDROOT
BRANCH  10  12
HETATM   12  C18 MIQ B 502       2.196  12.144 -10.545  1.00139.82     0.187 C 
HETATM   13  C19 MIQ B 502       2.710  11.879  -9.125  1.00140.06     0.247 C 
HETATM   14  O25 MIQ B 502       3.743  11.329  -8.979  1.00143.95    -0.271 OA
HETATM   15  N20 MIQ B 502       1.963  12.290  -7.953  1.00140.02    -0.296 N 
HETATM   16  H13 MIQ B 502       2.307  12.105  -7.031  1.00142.77     0.171 HD
HETATM   17  C21 MIQ B 502       0.700  12.950  -8.156  1.00142.22     0.224 C 
HETATM   18  C22 MIQ B 502      -0.111  12.514  -9.362  1.00139.52     0.106 C 
HETATM   19  O24 MIQ B 502       0.317  13.793  -7.421  1.00146.13    -0.273 OA
HETATM   20  C23 MIQ B 502       0.779  12.716 -10.575  1.00139.15     0.045 C 
ENDBRANCH  10  12
BRANCH   5  21
HETATM   21  N6  MIQ B 502       3.078   6.432 -15.414  1.00140.95    -0.377 N 
HETATM   22  C7  MIQ B 502       4.407   6.623 -15.969  1.00142.12     0.149 C 
HETATM   23  C8  MIQ B 502       4.441   6.357 -17.468  1.00144.10     0.187 C 
HETATM   24  O9  MIQ B 502       3.814   5.162 -17.823  1.00148.65    -0.388 OA
HETATM   25  C10 MIQ B 502       3.054   4.457 -16.886  1.00147.44     0.187 C 
HETATM   26  C11 MIQ B 502       2.339   5.239 -15.789  1.00144.08     0.149 C 
ENDBRANCH   5  21
TORSDOF 2
ENDMDL
MODEL 6
REMARK VINA RESULT:      -6.3      4.134     11.101
REMARK  2 active torsions:
REMARK  status: ('A' for Active; 'I' for Inactive)
REMARK    1  A    between atoms: C5_5  and  N6_21 
REMARK    2  A    between atoms: C18_14  and  N17_19 
ROOT
HETATM    1  O1  MIQ B 502       1.230   3.269 -17.917  1.00142.91    -0.171 OA
HETATM    2  C2  MIQ B 502       2.460   3.907 -17.747  1.00141.17     0.195 A 
HETATM    3  C3  MIQ B 502       2.825   4.918 -16.613  1.00141.71     0.035 A 
HETATM    4  C4  MIQ B 502       2.073   5.476 -15.464  1.00142.86     0.046 A 
HETATM    5  C5  MIQ B 502       2.690   6.399 -14.584  1.00139.53     0.031 A 
HETATM    6  C12 MIQ B 502       4.071   6.801 -14.810  1.00139.38     0.030 A 
HETATM    7  C13 MIQ B 502       4.793   6.266 -15.911  1.00141.18     0.019 A 
HETATM    8  C14 MIQ B 502       4.140   5.295 -16.831  1.00138.77     0.033 A 
HETATM    9  C15 MIQ B 502       4.595   4.512 -18.106  1.00142.10     0.195 A 
HETATM   10  N17 MIQ B 502       3.551   3.792 -18.484  1.00139.42    -0.288 N 
HETATM   11  O16 MIQ B 502       5.848   4.568 -18.718  1.00148.93    -0.171 OA
ENDROOT
BRANCH  10  12
HETATM   12  C18 MIQ B 502       3.604   2.941 -19.657  1.00139.82     0.187 C 
HETATM   13  C19 MIQ B 502       2.421   3.313 -20.559  1.00140.06     0.247 C 
HETATM   14  O25 MIQ B 502       2.247   4.445 -20.843  1.00143.95    -0.271 OA
HETATM   15  N20 MIQ B 502       1.511   2.313 -21.077  1.00140.02    -0.296 N 
HETATM   16  H13 MIQ B 502       0.738   2.570 -21.660  1.00142.77     0.171 HD
HETATM   17  C21 MIQ B 502       1.737   0.939 -20.708  1.00142.22     0.224 C 
HETATM   18  C22 MIQ B 502       2.306   0.691 -19.324  1.00139.52     0.106 C 
HETATM   19  O24 MIQ B 502       1.495   0.052 -21.450  1.00146.13    -0.273 OA
HETATM   20  C23 MIQ B 502       3.607   1.469 -19.247  1.00139.15     0.045 C 
ENDBRANCH  10  12
BRANCH   5  21
HETATM   21  N6  MIQ B 502       1.937   6.949 -13.471  1.00140.95    -0.377 N 
HETATM   22  C7  MIQ B 502       1.690   8.380 -13.439  1.00142.12     0.149 C 
HETATM   23  C8  MIQ B 502       1.500   8.892 -12.017  1.00144.10     0.187 C 
HETATM   24  O9  MIQ B 502       0.609   8.116 -11.274  1.00148.65    -0.388 OA
HETATM   25  C10 MIQ B 502       0.162   6.887 -11.765  1.00147.44     0.187 C 
HETATM   26  C11 MIQ B 502       1.088   6.083 -12.672  1.00144.08     0.149 C 
ENDBRANCH   5  21
TORSDOF 2
ENDMDL
MODEL 7
REMARK VINA RESULT:      -6.2      3.623      6.359
REMARK  2 active torsions:
REMARK  status: ('A' for Active; 'I' for Inactive)
REMARK    1  A    between atoms: C5_5  and  N6_21 
REMARK    2  A    between atoms: C18_14  and  N17_19 
ROOT
HETATM    1  O1  MIQ B 502       1.604   6.151 -13.724  1.00142.91    -0.171 OA
HETATM    2  C2  MIQ B 502       2.804   6.325 -14.417  1.00141.17     0.195 A 
HETATM    3  C3  MIQ B 502       3.177   5.682 -15.791  1.00141.71     0.035 A 
HETATM    4  C4  MIQ B 502       2.462   4.774 -16.719  1.00142.86     0.046 A 
HETATM    5  C5  MIQ B 502       3.076   4.352 -17.924  1.00139.53     0.031 A 
HETATM    6  C12 MIQ B 502       4.418   4.814 -18.252  1.00139.38     0.030 A 
HETATM    7  C13 MIQ B 502       5.103   5.685 -17.363  1.00141.18     0.019 A 
HETATM    8  C14 MIQ B 502       4.452   6.127 -16.100  1.00138.77     0.033 A 
HETATM    9  C15 MIQ B 502       4.873   7.052 -14.912  1.00142.10     0.195 A 
HETATM   10  N17 MIQ B 502       3.851   7.056 -14.072  1.00139.42    -0.288 N 
HETATM   11  O16 MIQ B 502       6.084   7.732 -14.770  1.00148.93    -0.171 OA
ENDROOT
BRANCH  10  12
HETATM   12  C18 MIQ B 502       3.893   7.806 -12.831  1.00139.82     0.187 C 
HETATM   13  C19 MIQ B 502       3.512   6.851 -11.693  1.00140.06     0.247 C 
HETATM   14  O25 MIQ B 502       4.068   5.815 -11.601  1.00143.95    -0.271 OA
HETATM   15  N20 MIQ B 502       2.489   7.187 -10.724  1.00140.02    -0.296 N 
HETATM   16  H13 MIQ B 502       2.245   6.552  -9.990  1.00142.77     0.171 HD
HETATM   17  C21 MIQ B 502       1.817   8.453 -10.864  1.00142.22     0.224 C 
HETATM   18  C22 MIQ B 502       1.608   8.960 -12.278  1.00139.52     0.106 C 
HETATM   19  O24 MIQ B 502       1.452   9.067  -9.923  1.00146.13    -0.273 OA
HETATM   20  C23 MIQ B 502       2.982   9.030 -12.919  1.00139.15     0.045 C 
ENDBRANCH  10  12
BRANCH   5  21
HETATM   21  N6  MIQ B 502       2.370   3.451 -18.817  1.00140.95    -0.377 N 
HETATM   22  C7  MIQ B 502       1.089   2.915 -18.391  1.00142.12     0.149 C 
HETATM   23  C8  MIQ B 502       0.787   1.573 -19.046  1.00144.10     0.187 C 
HETATM   24  O9  MIQ B 502       1.001   1.582 -20.426  1.00148.65    -0.388 OA
HETATM   25  C10 MIQ B 502       1.647   2.662 -21.035  1.00147.44     0.187 C 
HETATM   26  C11 MIQ B 502       2.688   3.435 -20.234  1.00144.08     0.149 C 
ENDBRANCH   5  21
TORSDOF 2
ENDMDL
MODEL 8
REMARK VINA RESULT:      -6.2      1.615      2.891
REMARK  2 active torsions:
REMARK  status: ('A' for Active; 'I' for Inactive)
REMARK    1  A    between atoms: C5_5  and  N6_21 
REMARK    2  A    between atoms: C18_14  and  N17_19 
ROOT
HETATM    1  O1  MIQ B 502       3.084  10.377  -8.515  1.00142.91    -0.171 OA
HETATM    2  C2  MIQ B 502       2.540  11.188  -9.513  1.00141.17     0.195 A 
HETATM    3  C3  MIQ B 502       2.381  10.812 -11.021  1.00141.71     0.035 A 
HETATM    4  C4  MIQ B 502       2.713   9.602 -11.810  1.00142.86     0.046 A 
HETATM    5  C5  MIQ B 502       2.440   9.557 -13.201  1.00139.53     0.031 A 
HETATM    6  C12 MIQ B 502       1.830  10.705 -13.856  1.00139.38     0.030 A 
HETATM    7  C13 MIQ B 502       1.510  11.865 -13.099  1.00141.18     0.019 A 
HETATM    8  C14 MIQ B 502       1.797  11.906 -11.639  1.00138.77     0.033 A 
HETATM    9  C15 MIQ B 502       1.592  12.967 -10.508  1.00142.10     0.195 A 
HETATM   10  N17 MIQ B 502       2.052  12.411  -9.399  1.00139.42    -0.288 N 
HETATM   11  O16 MIQ B 502       1.039  14.240 -10.648  1.00148.93    -0.171 OA
ENDROOT
BRANCH  10  12
HETATM   12  C18 MIQ B 502       2.038  13.122  -8.134  1.00139.82     0.187 C 
HETATM   13  C19 MIQ B 502       0.592  13.547  -7.853  1.00140.06     0.247 C 
HETATM   14  O25 MIQ B 502      -0.268  12.742  -7.915  1.00143.95    -0.271 OA
HETATM   15  N20 MIQ B 502       0.251  14.912  -7.506  1.00140.02    -0.296 N 
HETATM   16  H13 MIQ B 502      -0.698  15.178  -7.332  1.00142.77     0.171 HD
HETATM   17  C21 MIQ B 502       1.316  15.879  -7.447  1.00142.22     0.224 C 
HETATM   18  C22 MIQ B 502       2.463  15.690  -8.421  1.00139.52     0.106 C 
HETATM   19  O24 MIQ B 502       1.297  16.772  -6.673  1.00146.13    -0.273 OA
HETATM   20  C23 MIQ B 502       3.014  14.298  -8.174  1.00139.15     0.045 C 
ENDBRANCH  10  12
BRANCH   5  21
HETATM   21  N6  MIQ B 502       2.784   8.371 -13.964  1.00140.95    -0.377 N 
HETATM   22  C7  MIQ B 502       4.167   8.181 -14.367  1.00142.12     0.149 C 
HETATM   23  C8  MIQ B 502       4.281   7.334 -15.627  1.00144.10     0.187 C 
HETATM   24  O9  MIQ B 502       3.511   6.171 -15.572  1.00148.65    -0.388 OA
HETATM   25  C10 MIQ B 502       2.580   5.986 -14.546  1.00147.44     0.187 C 
HETATM   26  C11 MIQ B 502       1.906   7.215 -13.943  1.00144.08     0.149 C 
ENDBRANCH   5  21
TORSDOF 2
ENDMDL
MODEL 9
REMARK VINA RESULT:      -6.2      2.545      8.275
REMARK  2 active torsions:
REMARK  status: ('A' for Active; 'I' for Inactive)
REMARK    1  A    between atoms: C5_5  and  N6_21 
REMARK    2  A    between atoms: C18_14  and  N17_19 
ROOT
HETATM    1  O1  MIQ B 502       4.074   8.727 -10.166  1.00142.91    -0.171 OA
HETATM    2  C2  MIQ B 502       3.434   9.389 -11.216  1.00141.17     0.195 A 
HETATM    3  C3  MIQ B 502       2.695  10.762 -11.126  1.00141.71     0.035 A 
HETATM    4  C4  MIQ B 502       2.454  11.719 -10.021  1.00142.86     0.046 A 
HETATM    5  C5  MIQ B 502       1.731  12.916 -10.254  1.00139.53     0.031 A 
HETATM    6  C12 MIQ B 502       1.222  13.205 -11.587  1.00139.38     0.030 A 
HETATM    7  C13 MIQ B 502       1.454  12.288 -12.648  1.00141.18     0.019 A 
HETATM    8  C14 MIQ B 502       2.217  11.034 -12.398  1.00138.77     0.033 A 
HETATM    9  C15 MIQ B 502       2.662   9.823 -13.281  1.00142.10     0.195 A 
HETATM   10  N17 MIQ B 502       3.324   9.008 -12.477  1.00139.42    -0.288 N 
HETATM   11  O16 MIQ B 502       2.406   9.643 -14.642  1.00148.93    -0.171 OA
ENDROOT
BRANCH  10  12
HETATM   12  C18 MIQ B 502       3.878   7.756 -12.957  1.00139.82     0.187 C 
HETATM   13  C19 MIQ B 502       3.346   6.634 -12.058  1.00140.06     0.247 C 
HETATM   14  O25 MIQ B 502       2.185   6.555 -11.862  1.00143.95    -0.271 OA
HETATM   15  N20 MIQ B 502       4.228   5.661 -11.447  1.00140.02    -0.296 N 
HETATM   16  H13 MIQ B 502       3.868   4.937 -10.856  1.00142.77     0.171 HD
HETATM   17  C21 MIQ B 502       5.642   5.785 -11.693  1.00142.22     0.224 C 
HETATM   18  C22 MIQ B 502       6.185   7.191 -11.854  1.00139.52     0.106 C 
HETATM   19  O24 MIQ B 502       6.340   4.834 -11.770  1.00146.13    -0.273 OA
HETATM   20  C23 MIQ B 502       5.404   7.828 -12.990  1.00139.15     0.045 C 
ENDBRANCH  10  12
BRANCH   5  21
HETATM   21  N6  MIQ B 502       1.489  13.837  -9.159  1.00140.95    -0.377 N 
HETATM   22  C7  MIQ B 502       1.432  15.260  -9.448  1.00142.12     0.149 C 
HETATM   23  C8  MIQ B 502       1.819  16.102  -8.239  1.00144.10     0.187 C 
HETATM   24  O9  MIQ B 502       1.169  15.704  -7.069  1.00148.65    -0.388 OA
HETATM   25  C10 MIQ B 502       0.442  14.511  -7.034  1.00147.44     0.187 C 
HETATM   26  C11 MIQ B 502       0.889  13.358  -7.926  1.00144.08     0.149 C 
ENDBRANCH   5  21
TORSDOF 2
ENDMDL
