MODEL 1
REMARK VINA RESULT:      -7.0      0.000      0.000
REMARK  2 active torsions:
REMARK  status: ('A' for Active; 'I' for Inactive)
REMARK    1  A    between atoms: C5_5  and  N6_21 
REMARK    2  A    between atoms: C18_14  and  N17_19 
ROOT
HETATM    1  O1  MIQ B 502      -7.724  -5.707  12.404  1.00142.91    -0.171 OA
HETATM    2  C2  MIQ B 502      -7.317  -4.784  13.370  1.00141.17     0.195 A 
HETATM    3  C3  MIQ B 502      -5.856  -4.291  13.616  1.00141.71     0.035 A 
HETATM    4  C4  MIQ B 502      -4.555  -4.599  12.976  1.00142.86     0.046 A 
HETATM    5  C5  MIQ B 502      -3.366  -3.974  13.431  1.00139.53     0.031 A 
HETATM    6  C12 MIQ B 502      -3.426  -3.024  14.533  1.00139.38     0.030 A 
HETATM    7  C13 MIQ B 502      -4.673  -2.727  15.146  1.00141.18     0.019 A 
HETATM    8  C14 MIQ B 502      -5.918  -3.385  14.662  1.00138.77     0.033 A 
HETATM    9  C15 MIQ B 502      -7.426  -3.314  15.067  1.00142.10     0.195 A 
HETATM   10  N17 MIQ B 502      -8.061  -4.144  14.255  1.00139.42    -0.288 N 
HETATM   11  O16 MIQ B 502      -7.984  -2.535  16.082  1.00148.93    -0.171 OA
ENDROOT
BRANCH  10  12
HETATM   12  C18 MIQ B 502      -9.494  -4.350  14.353  1.00139.82     0.187 C 
HETATM   13  C19 MIQ B 502      -9.741  -5.856  14.496  1.00140.06     0.247 C 
HETATM   14  O25 MIQ B 502      -9.153  -6.460  15.321  1.00143.95    -0.271 OA
HETATM   15  N20 MIQ B 502     -10.684  -6.560  13.651  1.00140.02    -0.296 N 
HETATM   16  H13 MIQ B 502     -10.831  -7.545  13.750  1.00142.77     0.171 HD
HETATM   17  C21 MIQ B 502     -11.382  -5.803  12.644  1.00142.22     0.224 C 
HETATM   18  C22 MIQ B 502     -10.626  -4.651  12.011  1.00139.52     0.106 C 
HETATM   19  O24 MIQ B 502     -12.492  -6.065  12.333  1.00146.13    -0.273 OA
HETATM   20  C23 MIQ B 502     -10.203  -3.737  13.146  1.00139.15     0.045 C 
ENDBRANCH  10  12
BRANCH   5  21
HETATM   21  N6  MIQ B 502      -2.097  -4.296  12.805  1.00140.95    -0.377 N 
HETATM   22  C7  MIQ B 502      -2.014  -5.487  11.976  1.00142.12     0.149 C 
HETATM   23  C8  MIQ B 502      -0.599  -6.049  11.929  1.00144.10     0.187 C 
HETATM   24  O9  MIQ B 502       0.366  -5.074  11.671  1.00148.65    -0.388 OA
HETATM   25  C10 MIQ B 502       0.027  -3.718  11.699  1.00147.44     0.187 C 
HETATM   26  C11 MIQ B 502      -1.089  -3.265  12.636  1.00144.08     0.149 C 
ENDBRANCH   5  21
TORSDOF 2
ENDMDL
MODEL 2
REMARK VINA RESULT:      -6.9      3.152      8.265
REMARK  2 active torsions:
REMARK  status: ('A' for Active; 'I' for Inactive)
REMARK    1  A    between atoms: C5_5  and  N6_21 
REMARK    2  A    between atoms: C18_14  and  N17_19 
ROOT
HETATM    1  O1  MIQ B 502      -9.776  -2.604  13.921  1.00142.91    -0.171 OA
HETATM    2  C2  MIQ B 502      -9.016  -3.715  13.549  1.00141.17     0.195 A 
HETATM    3  C3  MIQ B 502      -9.520  -4.946  12.730  1.00141.71     0.035 A 
HETATM    4  C4  MIQ B 502     -10.828  -5.307  12.135  1.00142.86     0.046 A 
HETATM    5  C5  MIQ B 502     -10.982  -6.526  11.427  1.00139.53     0.031 A 
HETATM    6  C12 MIQ B 502      -9.847  -7.426  11.285  1.00139.38     0.030 A 
HETATM    7  C13 MIQ B 502      -8.592  -7.080  11.854  1.00141.18     0.019 A 
HETATM    8  C14 MIQ B 502      -8.436  -5.798  12.594  1.00138.77     0.033 A 
HETATM    9  C15 MIQ B 502      -7.252  -5.092  13.332  1.00142.10     0.195 A 
HETATM   10  N17 MIQ B 502      -7.740  -3.954  13.799  1.00139.42    -0.288 N 
HETATM   11  O16 MIQ B 502      -5.949  -5.571  13.470  1.00148.93    -0.171 OA
ENDROOT
BRANCH  10  12
HETATM   12  C18 MIQ B 502      -6.917  -3.035  14.563  1.00139.82     0.187 C 
HETATM   13  C19 MIQ B 502      -5.564  -2.916  13.851  1.00140.06     0.247 C 
HETATM   14  O25 MIQ B 502      -5.540  -2.674  12.697  1.00143.95    -0.271 OA
HETATM   15  N20 MIQ B 502      -4.311  -3.087  14.558  1.00140.02    -0.296 N 
HETATM   16  H13 MIQ B 502      -3.435  -3.014  14.080  1.00142.77     0.171 HD
HETATM   17  C21 MIQ B 502      -4.367  -3.392  15.965  1.00142.22     0.224 C 
HETATM   18  C22 MIQ B 502      -5.535  -4.240  16.432  1.00139.52     0.106 C 
HETATM   19  O24 MIQ B 502      -3.545  -2.996  16.716  1.00146.13    -0.273 OA
HETATM   20  C23 MIQ B 502      -6.795  -3.507  16.011  1.00139.15     0.045 C 
ENDBRANCH  10  12
BRANCH   5  21
HETATM   21  N6  MIQ B 502     -12.273  -6.874  10.862  1.00140.95    -0.377 N 
HETATM   22  C7  MIQ B 502     -12.909  -8.107  11.291  1.00142.12     0.149 C 
HETATM   23  C8  MIQ B 502     -13.849  -8.662  10.228  1.00144.10     0.187 C 
HETATM   24  O9  MIQ B 502     -14.712  -7.695   9.708  1.00148.65    -0.388 OA
HETATM   25  C10 MIQ B 502     -14.519  -6.343  10.002  1.00147.44     0.187 C 
HETATM   26  C11 MIQ B 502     -13.099  -5.846  10.253  1.00144.08     0.149 C 
ENDBRANCH   5  21
TORSDOF 2
ENDMDL
MODEL 3
REMARK VINA RESULT:      -6.7      2.958      4.707
REMARK  2 active torsions:
REMARK  status: ('A' for Active; 'I' for Inactive)
REMARK    1  A    between atoms: C5_5  and  N6_21 
REMARK    2  A    between atoms: C18_14  and  N17_19 
ROOT
HETATM    1  O1  MIQ B 502      -5.551  -6.072  14.940  1.00142.91    -0.171 OA
HETATM    2  C2  MIQ B 502      -4.649  -5.337  14.168  1.00141.17     0.195 A 
HETATM    3  C3  MIQ B 502      -3.352  -5.886  13.492  1.00141.71     0.035 A 
HETATM    4  C4  MIQ B 502      -2.716  -7.224  13.445  1.00142.86     0.046 A 
HETATM    5  C5  MIQ B 502      -1.507  -7.418  12.729  1.00139.53     0.031 A 
HETATM    6  C12 MIQ B 502      -0.890  -6.296  12.036  1.00139.38     0.030 A 
HETATM    7  C13 MIQ B 502      -1.500  -5.013  12.080  1.00141.18     0.019 A 
HETATM    8  C14 MIQ B 502      -2.770  -4.816  12.832  1.00138.77     0.033 A 
HETATM    9  C15 MIQ B 502      -3.711  -3.596  13.099  1.00142.10     0.195 A 
HETATM   10  N17 MIQ B 502      -4.699  -4.055  13.849  1.00139.42    -0.288 N 
HETATM   11  O16 MIQ B 502      -3.537  -2.290  12.639  1.00148.93    -0.171 OA
ENDROOT
BRANCH  10  12
HETATM   12  C18 MIQ B 502      -5.766  -3.186  14.309  1.00139.82     0.187 C 
HETATM   13  C19 MIQ B 502      -5.830  -3.294  15.838  1.00140.06     0.247 C 
HETATM   14  O25 MIQ B 502      -4.843  -3.150  16.467  1.00143.95    -0.271 OA
HETATM   15  N20 MIQ B 502      -7.072  -3.562  16.533  1.00140.02    -0.296 N 
HETATM   16  H13 MIQ B 502      -7.100  -3.637  17.531  1.00142.77     0.171 HD
HETATM   17  C21 MIQ B 502      -8.262  -3.744  15.743  1.00142.22     0.224 C 
HETATM   18  C22 MIQ B 502      -8.086  -4.400  14.387  1.00139.52     0.106 C 
HETATM   19  O24 MIQ B 502      -9.322  -3.394  16.132  1.00146.13    -0.273 OA
HETATM   20  C23 MIQ B 502      -7.083  -3.552  13.625  1.00139.15     0.045 C 
ENDBRANCH  10  12
BRANCH   5  21
HETATM   21  N6  MIQ B 502      -0.887  -8.730  12.703  1.00140.95    -0.377 N 
HETATM   22  C7  MIQ B 502       0.505  -8.833  12.301  1.00142.12     0.149 C 
HETATM   23  C8  MIQ B 502       0.826 -10.198  11.708  1.00144.10     0.187 C 
HETATM   24  O9  MIQ B 502       0.351 -11.255  12.487  1.00148.65    -0.388 OA
HETATM   25  C10 MIQ B 502      -0.519 -11.012  13.553  1.00147.44     0.187 C 
HETATM   26  C11 MIQ B 502      -1.469  -9.822  13.463  1.00144.08     0.149 C 
ENDBRANCH   5  21
TORSDOF 2
ENDMDL
MODEL 4
REMARK VINA RESULT:      -6.6      2.963      4.658
REMARK  2 active torsions:
REMARK  status: ('A' for Active; 'I' for Inactive)
REMARK    1  A    between atoms: C5_5  and  N6_21 
REMARK    2  A    between atoms: C18_14  and  N17_19 
ROOT
HETATM    1  O1  MIQ B 502      -6.012  -7.238  15.472  1.00142.91    -0.171 OA
HETATM    2  C2  MIQ B 502      -5.306  -6.275  14.747  1.00141.17     0.195 A 
HETATM    3  C3  MIQ B 502      -3.976  -6.504  13.960  1.00141.71     0.035 A 
HETATM    4  C4  MIQ B 502      -3.113  -7.689  13.741  1.00142.86     0.046 A 
HETATM    5  C5  MIQ B 502      -1.937  -7.584  12.957  1.00139.53     0.031 A 
HETATM    6  C12 MIQ B 502      -1.576  -6.304  12.364  1.00139.38     0.030 A 
HETATM    7  C13 MIQ B 502      -2.404  -5.168  12.573  1.00141.18     0.019 A 
HETATM    8  C14 MIQ B 502      -3.639  -5.285  13.395  1.00138.77     0.033 A 
HETATM    9  C15 MIQ B 502      -4.766  -4.294  13.833  1.00142.10     0.195 A 
HETATM   10  N17 MIQ B 502      -5.607  -5.000  14.570  1.00139.42    -0.288 N 
HETATM   11  O16 MIQ B 502      -4.859  -2.939  13.510  1.00148.93    -0.171 OA
ENDROOT
BRANCH  10  12
HETATM   12  C18 MIQ B 502      -6.783  -4.395  15.168  1.00139.82     0.187 C 
HETATM   13  C19 MIQ B 502      -7.494  -3.581  14.080  1.00140.06     0.247 C 
HETATM   14  O25 MIQ B 502      -7.740  -4.094  13.046  1.00143.95    -0.271 OA
HETATM   15  N20 MIQ B 502      -7.880  -2.201  14.287  1.00140.02    -0.296 N 
HETATM   16  H13 MIQ B 502      -8.338  -1.679  13.566  1.00142.77     0.171 HD
HETATM   17  C21 MIQ B 502      -7.559  -1.594  15.553  1.00142.22     0.224 C 
HETATM   18  C22 MIQ B 502      -6.278  -2.052  16.224  1.00139.52     0.106 C 
HETATM   19  O24 MIQ B 502      -8.265  -0.784  16.046  1.00146.13    -0.273 OA
HETATM   20  C23 MIQ B 502      -6.390  -3.557  16.384  1.00139.15     0.045 C 
ENDBRANCH  10  12
BRANCH   5  21
HETATM   21  N6  MIQ B 502      -1.093  -8.749  12.762  1.00140.95    -0.377 N 
HETATM   22  C7  MIQ B 502      -1.723 -10.055  12.669  1.00142.12     0.149 C 
HETATM   23  C8  MIQ B 502      -0.785 -11.171  13.110  1.00144.10     0.187 C 
HETATM   24  O9  MIQ B 502       0.482 -11.077  12.530  1.00148.65    -0.388 OA
HETATM   25  C10 MIQ B 502       0.853  -9.930  11.823  1.00147.44     0.187 C 
HETATM   26  C11 MIQ B 502       0.252  -8.591  12.236  1.00144.08     0.149 C 
ENDBRANCH   5  21
TORSDOF 2
ENDMDL
MODEL 5
REMARK VINA RESULT:      -6.4      3.085      8.169
REMARK  2 active torsions:
REMARK  status: ('A' for Active; 'I' for Inactive)
REMARK    1  A    between atoms: C5_5  and  N6_21 
REMARK    2  A    between atoms: C18_14  and  N17_19 
ROOT
HETATM    1  O1  MIQ B 502      -8.015  -4.081  13.992  1.00142.91    -0.171 OA
HETATM    2  C2  MIQ B 502      -7.794  -5.422  13.674  1.00141.17     0.195 A 
HETATM    3  C3  MIQ B 502      -8.763  -6.354  12.879  1.00141.71     0.035 A 
HETATM    4  C4  MIQ B 502     -10.095  -6.149  12.260  1.00142.86     0.046 A 
HETATM    5  C5  MIQ B 502     -10.743  -7.214  11.585  1.00139.53     0.031 A 
HETATM    6  C12 MIQ B 502     -10.096  -8.515  11.500  1.00139.38     0.030 A 
HETATM    7  C13 MIQ B 502      -8.819  -8.712  12.091  1.00141.18     0.019 A 
HETATM    8  C14 MIQ B 502      -8.142  -7.589  12.797  1.00138.77     0.033 A 
HETATM    9  C15 MIQ B 502      -6.779  -7.424  13.544  1.00142.10     0.195 A 
HETATM   10  N17 MIQ B 502      -6.743  -6.170  13.964  1.00139.42    -0.288 N 
HETATM   11  O16 MIQ B 502      -5.804  -8.405  13.731  1.00148.93    -0.171 OA
ENDROOT
BRANCH  10  12
HETATM   12  C18 MIQ B 502      -5.616  -5.657  14.722  1.00139.82     0.187 C 
HETATM   13  C19 MIQ B 502      -6.162  -5.058  16.024  1.00140.06     0.247 C 
HETATM   14  O25 MIQ B 502      -6.886  -5.702  16.695  1.00143.95    -0.271 OA
HETATM   15  N20 MIQ B 502      -5.807  -3.722  16.457  1.00140.02    -0.296 N 
HETATM   16  H13 MIQ B 502      -6.175  -3.340  17.306  1.00142.77     0.171 HD
HETATM   17  C21 MIQ B 502      -4.928  -2.951  15.615  1.00142.22     0.224 C 
HETATM   18  C22 MIQ B 502      -5.050  -3.172  14.120  1.00139.52     0.106 C 
HETATM   19  O24 MIQ B 502      -4.149  -2.188  16.070  1.00146.13    -0.273 OA
HETATM   20  C23 MIQ B 502      -4.825  -4.655  13.884  1.00139.15     0.045 C 
ENDBRANCH  10  12
BRANCH   5  21
HETATM   21  N6  MIQ B 502     -12.053  -7.003  10.997  1.00140.95    -0.377 N 
HETATM   22  C7  MIQ B 502     -12.964  -8.131  10.908  1.00142.12     0.149 C 
HETATM   23  C8  MIQ B 502     -13.956  -7.972   9.763  1.00144.10     0.187 C 
HETATM   24  O9  MIQ B 502     -14.560  -6.713   9.738  1.00148.65    -0.388 OA
HETATM   25  C10 MIQ B 502     -14.087  -5.685  10.557  1.00147.44     0.187 C 
HETATM   26  C11 MIQ B 502     -12.605  -5.662  10.916  1.00144.08     0.149 C 
ENDBRANCH   5  21
TORSDOF 2
ENDMDL
MODEL 6
REMARK VINA RESULT:      -6.4      3.370      5.300
REMARK  2 active torsions:
REMARK  status: ('A' for Active; 'I' for Inactive)
REMARK    1  A    between atoms: C5_5  and  N6_21 
REMARK    2  A    between atoms: C18_14  and  N17_19 
ROOT
HETATM    1  O1  MIQ B 502      -2.334  -4.018  12.290  1.00142.91    -0.171 OA
HETATM    2  C2  MIQ B 502      -3.077  -4.898  13.080  1.00141.17     0.195 A 
HETATM    3  C3  MIQ B 502      -2.788  -6.419  13.289  1.00141.71     0.035 A 
HETATM    4  C4  MIQ B 502      -1.743  -7.337  12.777  1.00142.86     0.046 A 
HETATM    5  C5  MIQ B 502      -1.742  -8.703  13.156  1.00139.53     0.031 A 
HETATM    6  C12 MIQ B 502      -2.773  -9.206  14.053  1.00139.38     0.030 A 
HETATM    7  C13 MIQ B 502      -3.775  -8.326  14.544  1.00141.18     0.019 A 
HETATM    8  C14 MIQ B 502      -3.770  -6.892  14.145  1.00138.77     0.033 A 
HETATM    9  C15 MIQ B 502      -4.672  -5.657  14.470  1.00142.10     0.195 A 
HETATM   10  N17 MIQ B 502      -4.151  -4.638  13.806  1.00139.42    -0.288 N 
HETATM   11  O16 MIQ B 502      -5.800  -5.640  15.293  1.00148.93    -0.171 OA
ENDROOT
BRANCH  10  12
HETATM   12  C18 MIQ B 502      -4.746  -3.316  13.860  1.00139.82     0.187 C 
HETATM   13  C19 MIQ B 502      -4.936  -2.948  15.336  1.00140.06     0.247 C 
HETATM   14  O25 MIQ B 502      -4.024  -3.052  16.078  1.00143.95    -0.271 OA
HETATM   15  N20 MIQ B 502      -6.205  -2.471  15.847  1.00140.02    -0.296 N 
HETATM   16  H13 MIQ B 502      -6.318  -2.240  16.815  1.00142.77     0.171 HD
HETATM   17  C21 MIQ B 502      -7.306  -2.363  14.925  1.00142.22     0.224 C 
HETATM   18  C22 MIQ B 502      -7.363  -3.389  13.809  1.00139.52     0.106 C 
HETATM   19  O24 MIQ B 502      -8.120  -1.513  15.031  1.00146.13    -0.273 OA
HETATM   20  C23 MIQ B 502      -6.047  -3.285  13.060  1.00139.15     0.045 C 
ENDBRANCH  10  12
BRANCH   5  21
HETATM   21  N6  MIQ B 502      -0.721  -9.595  12.636  1.00140.95    -0.377 N 
HETATM   22  C7  MIQ B 502      -1.129 -10.884  12.106  1.00142.12     0.149 C 
HETATM   23  C8  MIQ B 502      -0.015 -11.919  12.207  1.00144.10     0.187 C 
HETATM   24  O9  MIQ B 502       1.211 -11.443  11.740  1.00148.65    -0.388 OA
HETATM   25  C10 MIQ B 502       1.380 -10.087  11.449  1.00147.44     0.187 C 
HETATM   26  C11 MIQ B 502       0.573  -9.065  12.242  1.00144.08     0.149 C 
ENDBRANCH   5  21
TORSDOF 2
ENDMDL
MODEL 7
REMARK VINA RESULT:      -6.3      3.167      5.191
REMARK  2 active torsions:
REMARK  status: ('A' for Active; 'I' for Inactive)
REMARK    1  A    between atoms: C5_5  and  N6_21 
REMARK    2  A    between atoms: C18_14  and  N17_19 
ROOT
HETATM    1  O1  MIQ B 502      -5.331  -7.930  14.786  1.00142.91    -0.171 OA
HETATM    2  C2  MIQ B 502      -4.581  -6.929  14.164  1.00141.17     0.195 A 
HETATM    3  C3  MIQ B 502      -3.187  -7.110  13.483  1.00141.71     0.035 A 
HETATM    4  C4  MIQ B 502      -2.292  -8.275  13.286  1.00142.86     0.046 A 
HETATM    5  C5  MIQ B 502      -1.056  -8.124  12.609  1.00139.53     0.031 A 
HETATM    6  C12 MIQ B 502      -0.665  -6.816  12.104  1.00139.38     0.030 A 
HETATM    7  C13 MIQ B 502      -1.522  -5.698  12.291  1.00141.18     0.019 A 
HETATM    8  C14 MIQ B 502      -2.820  -5.864  13.001  1.00138.77     0.033 A 
HETATM    9  C15 MIQ B 502      -3.994  -4.904  13.384  1.00142.10     0.195 A 
HETATM   10  N17 MIQ B 502      -4.883  -5.650  14.017  1.00139.42    -0.288 N 
HETATM   11  O16 MIQ B 502      -4.078  -3.538  13.112  1.00148.93    -0.171 OA
ENDROOT
BRANCH  10  12
HETATM   12  C18 MIQ B 502      -6.113  -5.084  14.539  1.00139.82     0.187 C 
HETATM   13  C19 MIQ B 502      -6.762  -4.262  13.419  1.00140.06     0.247 C 
HETATM   14  O25 MIQ B 502      -6.920  -4.756  12.359  1.00143.95    -0.271 OA
HETATM   15  N20 MIQ B 502      -7.192  -2.894  13.626  1.00140.02    -0.296 N 
HETATM   16  H13 MIQ B 502      -7.609  -2.366  12.884  1.00142.77     0.171 HD
HETATM   17  C21 MIQ B 502      -6.979  -2.309  14.925  1.00142.22     0.224 C 
HETATM   18  C22 MIQ B 502      -5.741  -2.755  15.678  1.00139.52     0.106 C 
HETATM   19  O24 MIQ B 502      -7.737  -1.525  15.381  1.00146.13    -0.273 OA
HETATM   20  C23 MIQ B 502      -5.829  -4.265  15.798  1.00139.15     0.045 C 
ENDBRANCH  10  12
BRANCH   5  21
HETATM   21  N6  MIQ B 502      -0.183  -9.270  12.437  1.00140.95    -0.377 N 
HETATM   22  C7  MIQ B 502       1.249  -9.083  12.594  1.00142.12     0.149 C 
HETATM   23  C8  MIQ B 502       2.047 -10.105  11.794  1.00144.10     0.187 C 
HETATM   24  O9  MIQ B 502       1.593 -11.413  11.978  1.00148.65    -0.388 OA
HETATM   25  C10 MIQ B 502       0.390 -11.657  12.644  1.00147.44     0.187 C 
HETATM   26  C11 MIQ B 502      -0.720 -10.615  12.552  1.00144.08     0.149 C 
ENDBRANCH   5  21
TORSDOF 2
ENDMDL
MODEL 8
REMARK VINA RESULT:      -6.3      3.706      7.304
REMARK  2 active torsions:
REMARK  status: ('A' for Active; 'I' for Inactive)
REMARK    1  A    between atoms: C5_5  and  N6_21 
REMARK    2  A    between atoms: C18_14  and  N17_19 
ROOT
HETATM    1  O1  MIQ B 502      -4.673  -8.280  14.557  1.00142.91    -0.171 OA
HETATM    2  C2  MIQ B 502      -3.891  -7.325  13.902  1.00141.17     0.195 A 
HETATM    3  C3  MIQ B 502      -4.107  -5.779  13.931  1.00141.71     0.035 A 
HETATM    4  C4  MIQ B 502      -5.101  -4.901  14.593  1.00142.86     0.046 A 
HETATM    5  C5  MIQ B 502      -5.037  -3.494  14.429  1.00139.53     0.031 A 
HETATM    6  C12 MIQ B 502      -3.988  -2.910  13.607  1.00139.38     0.030 A 
HETATM    7  C13 MIQ B 502      -3.034  -3.751  12.973  1.00141.18     0.019 A 
HETATM    8  C14 MIQ B 502      -3.105  -5.227  13.150  1.00138.77     0.033 A 
HETATM    9  C15 MIQ B 502      -2.261  -6.438  12.634  1.00142.10     0.195 A 
HETATM   10  N17 MIQ B 502      -2.827  -7.520  13.142  1.00139.42    -0.288 N 
HETATM   11  O16 MIQ B 502      -1.142  -6.382  11.802  1.00148.93    -0.171 OA
ENDROOT
BRANCH  10  12
HETATM   12  C18 MIQ B 502      -2.314  -8.848  12.858  1.00139.82     0.187 C 
HETATM   13  C19 MIQ B 502      -3.495  -9.722  12.420  1.00140.06     0.247 C 
HETATM   14  O25 MIQ B 502      -4.213  -9.335  11.567  1.00143.95    -0.271 OA
HETATM   15  N20 MIQ B 502      -3.753 -11.015  13.020  1.00140.02    -0.296 N 
HETATM   16  H13 MIQ B 502      -4.531 -11.573  12.730  1.00142.77     0.171 HD
HETATM   17  C21 MIQ B 502      -2.870 -11.460  14.067  1.00142.22     0.224 C 
HETATM   18  C22 MIQ B 502      -2.294 -10.390  14.974  1.00139.52     0.106 C 
HETATM   19  O24 MIQ B 502      -2.604 -12.603  14.206  1.00146.13    -0.273 OA
HETATM   20  C23 MIQ B 502      -1.574  -9.403  14.074  1.00139.15     0.045 C 
ENDBRANCH  10  12
BRANCH   5  21
HETATM   21  N6  MIQ B 502      -6.026  -2.648  15.071  1.00140.95    -0.377 N 
HETATM   22  C7  MIQ B 502      -7.425  -2.825  14.721  1.00142.12     0.149 C 
HETATM   23  C8  MIQ B 502      -8.228  -1.547  14.923  1.00144.10     0.187 C 
HETATM   24  O9  MIQ B 502      -7.995  -0.949  16.163  1.00148.65    -0.388 OA
HETATM   25  C10 MIQ B 502      -6.952  -1.395  16.980  1.00147.44     0.187 C 
HETATM   26  C11 MIQ B 502      -5.706  -1.976  16.319  1.00144.08     0.149 C 
ENDBRANCH   5  21
TORSDOF 2
ENDMDL
MODEL 9
REMARK VINA RESULT:      -6.2      1.246      1.400
REMARK  2 active torsions:
REMARK  status: ('A' for Active; 'I' for Inactive)
REMARK    1  A    between atoms: C5_5  and  N6_21 
REMARK    2  A    between atoms: C18_14  and  N17_19 
ROOT
HETATM    1  O1  MIQ B 502      -8.393  -7.024  13.156  1.00142.91    -0.171 OA
HETATM    2  C2  MIQ B 502      -8.063  -5.721  13.534  1.00141.17     0.195 A 
HETATM    3  C3  MIQ B 502      -6.637  -5.083  13.495  1.00141.71     0.035 A 
HETATM    4  C4  MIQ B 502      -5.306  -5.588  13.086  1.00142.86     0.046 A 
HETATM    5  C5  MIQ B 502      -4.165  -4.749  13.164  1.00139.53     0.031 A 
HETATM    6  C12 MIQ B 502      -4.305  -3.384  13.648  1.00139.38     0.030 A 
HETATM    7  C13 MIQ B 502      -5.582  -2.898  14.040  1.00141.18     0.019 A 
HETATM    8  C14 MIQ B 502      -6.776  -3.783  13.953  1.00138.77     0.033 A 
HETATM    9  C15 MIQ B 502      -8.296  -3.612  14.278  1.00142.10     0.195 A 
HETATM   10  N17 MIQ B 502      -8.863  -4.772  13.989  1.00139.42    -0.288 N 
HETATM   11  O16 MIQ B 502      -8.921  -2.468  14.776  1.00148.93    -0.171 OA
ENDROOT
BRANCH  10  12
HETATM   12  C18 MIQ B 502     -10.285  -4.989  14.184  1.00139.82     0.187 C 
HETATM   13  C19 MIQ B 502     -10.453  -6.265  15.017  1.00140.06     0.247 C 
HETATM   14  O25 MIQ B 502      -9.848  -6.380  16.023  1.00143.95    -0.271 OA
HETATM   15  N20 MIQ B 502     -11.340  -7.334  14.606  1.00140.02    -0.296 N 
HETATM   16  H13 MIQ B 502     -11.436  -8.165  15.156  1.00142.77     0.171 HD
HETATM   17  C21 MIQ B 502     -12.060  -7.175  13.369  1.00142.22     0.224 C 
HETATM   18  C22 MIQ B 502     -11.355  -6.412  12.264  1.00139.52     0.106 C 
HETATM   19  O24 MIQ B 502     -13.148  -7.614  13.226  1.00146.13    -0.273 OA
HETATM   20  C23 MIQ B 502     -11.002  -5.051  12.836  1.00139.15     0.045 C 
ENDBRANCH  10  12
BRANCH   5  21
HETATM   21  N6  MIQ B 502      -2.865  -5.263  12.774  1.00140.95    -0.377 N 
HETATM   22  C7  MIQ B 502      -2.746  -6.671  12.439  1.00142.12     0.149 C 
HETATM   23  C8  MIQ B 502      -1.337  -7.197  12.683  1.00144.10     0.187 C 
HETATM   24  O9  MIQ B 502      -0.348  -6.370  12.146  1.00148.65    -0.388 OA
HETATM   25  C10 MIQ B 502      -0.673  -5.100  11.662  1.00147.44     0.187 C 
HETATM   26  C11 MIQ B 502      -1.837  -4.351  12.302  1.00144.08     0.149 C 
ENDBRANCH   5  21
TORSDOF 2
ENDMDL
