MODEL 1
REMARK VINA RESULT:      -7.4      0.000      0.000
REMARK  2 active torsions:
REMARK  status: ('A' for Active; 'I' for Inactive)
REMARK    1  A    between atoms: C5_5  and  N6_21 
REMARK    2  A    between atoms: C18_14  and  N17_19 
ROOT
HETATM    1  O1  MIQ B 502     -17.380   2.356 -18.423  1.00142.91    -0.171 OA
HETATM    2  C2  MIQ B 502     -16.095   2.462 -17.886  1.00141.17     0.195 A 
HETATM    3  C3  MIQ B 502     -14.998   1.349 -17.892  1.00141.71     0.035 A 
HETATM    4  C4  MIQ B 502     -14.957  -0.037 -18.413  1.00142.86     0.046 A 
HETATM    5  C5  MIQ B 502     -13.786  -0.824 -18.265  1.00139.53     0.031 A 
HETATM    6  C12 MIQ B 502     -12.619  -0.264 -17.598  1.00139.38     0.030 A 
HETATM    7  C13 MIQ B 502     -12.659   1.066 -17.099  1.00141.18     0.019 A 
HETATM    8  C14 MIQ B 502     -13.890   1.887 -17.259  1.00138.77     0.033 A 
HETATM    9  C15 MIQ B 502     -14.300   3.342 -16.859  1.00142.10     0.195 A 
HETATM   10  N17 MIQ B 502     -15.544   3.500 -17.280  1.00139.42    -0.288 N 
HETATM   11  O16 MIQ B 502     -13.510   4.280 -16.191  1.00148.93    -0.171 OA
ENDROOT
BRANCH  10  12
HETATM   12  C18 MIQ B 502     -16.265   4.740 -17.065  1.00139.82     0.187 C 
HETATM   13  C19 MIQ B 502     -17.608   4.393 -16.411  1.00140.06     0.247 C 
HETATM   14  O25 MIQ B 502     -17.621   3.704 -15.453  1.00143.95    -0.271 OA
HETATM   15  N20 MIQ B 502     -18.864   4.893 -16.933  1.00140.02    -0.296 N 
HETATM   16  H13 MIQ B 502     -19.734   4.653 -16.500  1.00142.77     0.171 HD
HETATM   17  C21 MIQ B 502     -18.822   5.723 -18.108  1.00142.22     0.224 C 
HETATM   18  C22 MIQ B 502     -17.737   5.415 -19.122  1.00139.52     0.106 C 
HETATM   19  O24 MIQ B 502     -19.594   6.604 -18.270  1.00146.13    -0.273 OA
HETATM   20  C23 MIQ B 502     -16.416   5.503 -18.380  1.00139.15     0.045 C 
ENDBRANCH  10  12
BRANCH   5  21
HETATM   21  N6  MIQ B 502     -13.764  -2.185 -18.767  1.00140.95    -0.377 N 
HETATM   22  C7  MIQ B 502     -14.690  -2.550 -19.826  1.00142.12     0.149 C 
HETATM   23  C8  MIQ B 502     -15.020  -4.037 -19.805  1.00144.10     0.187 C 
HETATM   24  O9  MIQ B 502     -13.886  -4.845 -19.699  1.00148.65    -0.388 OA
HETATM   25  C10 MIQ B 502     -12.641  -4.281 -19.410  1.00147.44     0.187 C 
HETATM   26  C11 MIQ B 502     -12.592  -3.017 -18.558  1.00144.08     0.149 C 
ENDBRANCH   5  21
TORSDOF 2
ENDMDL
MODEL 2
REMARK VINA RESULT:      -7.1      3.197      3.707
REMARK  2 active torsions:
REMARK  status: ('A' for Active; 'I' for Inactive)
REMARK    1  A    between atoms: C5_5  and  N6_21 
REMARK    2  A    between atoms: C18_14  and  N17_19 
ROOT
HETATM    1  O1  MIQ B 502     -15.295   4.697 -19.331  1.00142.91    -0.171 OA
HETATM    2  C2  MIQ B 502     -14.825   3.776 -18.392  1.00141.17     0.195 A 
HETATM    3  C3  MIQ B 502     -13.648   2.769 -18.598  1.00141.71     0.035 A 
HETATM    4  C4  MIQ B 502     -12.735   2.487 -19.730  1.00142.86     0.046 A 
HETATM    5  C5  MIQ B 502     -11.737   1.486 -19.614  1.00139.53     0.031 A 
HETATM    6  C12 MIQ B 502     -11.610   0.734 -18.375  1.00139.38     0.030 A 
HETATM    7  C13 MIQ B 502     -12.484   1.005 -17.288  1.00141.18     0.019 A 
HETATM    8  C14 MIQ B 502     -13.529   2.058 -17.415  1.00138.77     0.033 A 
HETATM    9  C15 MIQ B 502     -14.637   2.627 -16.470  1.00142.10     0.195 A 
HETATM   10  N17 MIQ B 502     -15.259   3.568 -17.161  1.00139.42    -0.288 N 
HETATM   11  O16 MIQ B 502     -14.911   2.219 -15.163  1.00148.93    -0.171 OA
ENDROOT
BRANCH  10  12
HETATM   12  C18 MIQ B 502     -16.370   4.311 -16.598  1.00139.82     0.187 C 
HETATM   13  C19 MIQ B 502     -17.572   4.136 -17.534  1.00140.06     0.247 C 
HETATM   14  O25 MIQ B 502     -17.891   3.049 -17.864  1.00143.95    -0.271 OA
HETATM   15  N20 MIQ B 502     -18.333   5.268 -18.022  1.00140.02    -0.296 N 
HETATM   16  H13 MIQ B 502     -19.111   5.141 -18.638  1.00142.77     0.171 HD
HETATM   17  C21 MIQ B 502     -17.917   6.585 -17.613  1.00142.22     0.224 C 
HETATM   18  C22 MIQ B 502     -16.429   6.799 -17.413  1.00139.52     0.106 C 
HETATM   19  O24 MIQ B 502     -18.700   7.453 -17.438  1.00146.13    -0.273 OA
HETATM   20  C23 MIQ B 502     -15.980   5.773 -16.388  1.00139.15     0.045 C 
ENDBRANCH  10  12
BRANCH   5  21
HETATM   21  N6  MIQ B 502     -10.859   1.210 -20.737  1.00140.95    -0.377 N 
HETATM   22  C7  MIQ B 502      -9.815   2.169 -21.054  1.00142.12     0.149 C 
HETATM   23  C8  MIQ B 502      -9.427   2.120 -22.527  1.00144.10     0.187 C 
HETATM   24  O9  MIQ B 502      -9.204   0.821 -22.987  1.00148.65    -0.388 OA
HETATM   25  C10 MIQ B 502      -9.548  -0.279 -22.196  1.00147.44     0.187 C 
HETATM   26  C11 MIQ B 502     -10.725  -0.147 -21.236  1.00144.08     0.149 C 
ENDBRANCH   5  21
TORSDOF 2
ENDMDL
MODEL 3
REMARK VINA RESULT:      -7.1      2.925      8.275
REMARK  2 active torsions:
REMARK  status: ('A' for Active; 'I' for Inactive)
REMARK    1  A    between atoms: C5_5  and  N6_21 
REMARK    2  A    between atoms: C18_14  and  N17_19 
ROOT
HETATM    1  O1  MIQ B 502     -14.917   3.703 -19.177  1.00142.91    -0.171 OA
HETATM    2  C2  MIQ B 502     -15.981   4.073 -18.351  1.00141.17     0.195 A 
HETATM    3  C3  MIQ B 502     -17.172   5.004 -18.742  1.00141.71     0.035 A 
HETATM    4  C4  MIQ B 502     -17.537   5.724 -19.985  1.00142.86     0.046 A 
HETATM    5  C5  MIQ B 502     -18.714   6.512 -20.038  1.00139.53     0.031 A 
HETATM    6  C12 MIQ B 502     -19.570   6.613 -18.864  1.00139.38     0.030 A 
HETATM    7  C13 MIQ B 502     -19.221   5.921 -17.673  1.00141.18     0.019 A 
HETATM    8  C14 MIQ B 502     -17.985   5.094 -17.624  1.00138.77     0.033 A 
HETATM    9  C15 MIQ B 502     -17.294   4.213 -16.532  1.00142.10     0.195 A 
HETATM   10  N17 MIQ B 502     -16.203   3.721 -17.096  1.00139.42    -0.288 N 
HETATM   11  O16 MIQ B 502     -17.740   3.997 -15.227  1.00148.93    -0.171 OA
ENDROOT
BRANCH  10  12
HETATM   12  C18 MIQ B 502     -15.295   2.859 -16.363  1.00139.82     0.187 C 
HETATM   13  C19 MIQ B 502     -13.880   3.432 -16.517  1.00140.06     0.247 C 
HETATM   14  O25 MIQ B 502     -13.692   4.572 -16.281  1.00143.95    -0.271 OA
HETATM   15  N20 MIQ B 502     -12.765   2.610 -16.939  1.00140.02    -0.296 N 
HETATM   16  H13 MIQ B 502     -11.848   2.997 -17.041  1.00142.77     0.171 HD
HETATM   17  C21 MIQ B 502     -13.022   1.223 -17.231  1.00142.22     0.224 C 
HETATM   18  C22 MIQ B 502     -14.376   0.892 -17.828  1.00139.52     0.106 C 
HETATM   19  O24 MIQ B 502     -12.218   0.386 -17.011  1.00146.13    -0.273 OA
HETATM   20  C23 MIQ B 502     -15.416   1.418 -16.855  1.00139.15     0.045 C 
ENDBRANCH  10  12
BRANCH   5  21
HETATM   21  N6  MIQ B 502     -19.051   7.224 -21.257  1.00140.95    -0.377 N 
HETATM   22  C7  MIQ B 502     -17.972   7.720 -22.093  1.00142.12     0.149 C 
HETATM   23  C8  MIQ B 502     -18.398   8.930 -22.915  1.00144.10     0.187 C 
HETATM   24  O9  MIQ B 502     -19.619   8.741 -23.566  1.00148.65    -0.388 OA
HETATM   25  C10 MIQ B 502     -20.419   7.636 -23.264  1.00147.44     0.187 C 
HETATM   26  C11 MIQ B 502     -20.367   7.062 -21.852  1.00144.08     0.149 C 
ENDBRANCH   5  21
TORSDOF 2
ENDMDL
MODEL 4
REMARK VINA RESULT:      -6.8     18.316     21.290
REMARK  2 active torsions:
REMARK  status: ('A' for Active; 'I' for Inactive)
REMARK    1  A    between atoms: C5_5  and  N6_21 
REMARK    2  A    between atoms: C18_14  and  N17_19 
ROOT
HETATM    1  O1  MIQ B 502     -14.879   5.619   1.347  1.00142.91    -0.171 OA
HETATM    2  C2  MIQ B 502     -15.405   6.874   1.030  1.00141.17     0.195 A 
HETATM    3  C3  MIQ B 502     -16.808   7.417   1.449  1.00141.71     0.035 A 
HETATM    4  C4  MIQ B 502     -17.928   6.849   2.237  1.00142.86     0.046 A 
HETATM    5  C5  MIQ B 502     -19.107   7.605   2.455  1.00139.53     0.031 A 
HETATM    6  C12 MIQ B 502     -19.218   8.947   1.901  1.00139.38     0.030 A 
HETATM    7  C13 MIQ B 502     -18.144   9.492   1.146  1.00141.18     0.019 A 
HETATM    8  C14 MIQ B 502     -16.908   8.695   0.923  1.00138.77     0.033 A 
HETATM    9  C15 MIQ B 502     -15.558   8.946   0.174  1.00142.10     0.195 A 
HETATM   10  N17 MIQ B 502     -14.842   7.845   0.333  1.00139.42    -0.288 N 
HETATM   11  O16 MIQ B 502     -15.190  10.099  -0.521  1.00148.93    -0.171 OA
ENDROOT
BRANCH  10  12
HETATM   12  C18 MIQ B 502     -13.519   7.712  -0.248  1.00139.82     0.187 C 
HETATM   13  C19 MIQ B 502     -13.550   6.520  -1.212  1.00140.06     0.247 C 
HETATM   14  O25 MIQ B 502     -14.398   6.462  -2.030  1.00143.95    -0.271 OA
HETATM   15  N20 MIQ B 502     -12.561   5.462  -1.151  1.00140.02    -0.296 N 
HETATM   16  H13 MIQ B 502     -12.596   4.686  -1.782  1.00142.77     0.171 HD
HETATM   17  C21 MIQ B 502     -11.542   5.550  -0.137  1.00142.22     0.224 C 
HETATM   18  C22 MIQ B 502     -11.944   6.183   1.181  1.00139.52     0.106 C 
HETATM   19  O24 MIQ B 502     -10.446   5.152  -0.328  1.00146.13    -0.273 OA
HETATM   20  C23 MIQ B 502     -12.467   7.570   0.851  1.00139.15     0.045 C 
ENDBRANCH  10  12
BRANCH   5  21
HETATM   21  N6  MIQ B 502     -20.201   7.030   3.216  1.00140.95    -0.377 N 
HETATM   22  C7  MIQ B 502     -20.482   5.613   3.067  1.00142.12     0.149 C 
HETATM   23  C8  MIQ B 502     -21.941   5.288   3.361  1.00144.10     0.187 C 
HETATM   24  O9  MIQ B 502     -22.398   5.865   4.547  1.00148.65    -0.388 OA
HETATM   25  C10 MIQ B 502     -21.623   6.816   5.216  1.00147.44     0.187 C 
HETATM   26  C11 MIQ B 502     -20.701   7.713   4.397  1.00144.08     0.149 C 
ENDBRANCH   5  21
TORSDOF 2
ENDMDL
MODEL 5
REMARK VINA RESULT:      -6.8     18.684     21.942
REMARK  2 active torsions:
REMARK  status: ('A' for Active; 'I' for Inactive)
REMARK    1  A    between atoms: C5_5  and  N6_21 
REMARK    2  A    between atoms: C18_14  and  N17_19 
ROOT
HETATM    1  O1  MIQ B 502     -13.129   9.591   1.070  1.00142.91    -0.171 OA
HETATM    2  C2  MIQ B 502     -13.904  10.296   0.147  1.00141.17     0.195 A 
HETATM    3  C3  MIQ B 502     -13.788  11.819  -0.183  1.00141.71     0.035 A 
HETATM    4  C4  MIQ B 502     -12.910  12.905   0.315  1.00142.86     0.046 A 
HETATM    5  C5  MIQ B 502     -13.045  14.223  -0.191  1.00139.53     0.031 A 
HETATM    6  C12 MIQ B 502     -14.050  14.509  -1.204  1.00139.38     0.030 A 
HETATM    7  C13 MIQ B 502     -14.891  13.468  -1.682  1.00141.18     0.019 A 
HETATM    8  C14 MIQ B 502     -14.743  12.086  -1.150  1.00138.77     0.033 A 
HETATM    9  C15 MIQ B 502     -15.457  10.721  -1.422  1.00142.10     0.195 A 
HETATM   10  N17 MIQ B 502     -14.873   9.839  -0.628  1.00139.42    -0.288 N 
HETATM   11  O16 MIQ B 502     -16.500  10.488  -2.320  1.00148.93    -0.171 OA
ENDROOT
BRANCH  10  12
HETATM   12  C18 MIQ B 502     -15.294   8.450  -0.599  1.00139.82     0.187 C 
HETATM   13  C19 MIQ B 502     -15.595   8.083   0.859  1.00140.06     0.247 C 
HETATM   14  O25 MIQ B 502     -16.314   8.774   1.490  1.00143.95    -0.271 OA
HETATM   15  N20 MIQ B 502     -15.027   6.906   1.483  1.00140.02    -0.296 N 
HETATM   16  H13 MIQ B 502     -15.227   6.681   2.438  1.00142.77     0.171 HD
HETATM   17  C21 MIQ B 502     -14.145   6.084   0.695  1.00142.22     0.224 C 
HETATM   18  C22 MIQ B 502     -13.281   6.797  -0.327  1.00139.52     0.106 C 
HETATM   19  O24 MIQ B 502     -14.102   4.911   0.837  1.00146.13    -0.273 OA
HETATM   20  C23 MIQ B 502     -14.229   7.559  -1.236  1.00139.15     0.045 C 
ENDBRANCH  10  12
BRANCH   5  21
HETATM   21  N6  MIQ B 502     -12.189  15.280   0.316  1.00140.95    -0.377 N 
HETATM   22  C7  MIQ B 502     -12.652  16.654   0.221  1.00142.12     0.149 C 
HETATM   23  C8  MIQ B 502     -11.493  17.641   0.165  1.00144.10     0.187 C 
HETATM   24  O9  MIQ B 502     -10.528  17.403   1.145  1.00148.65    -0.388 OA
HETATM   25  C10 MIQ B 502     -10.565  16.231   1.905  1.00147.44     0.187 C 
HETATM   26  C11 MIQ B 502     -11.140  14.969   1.272  1.00144.08     0.149 C 
ENDBRANCH   5  21
TORSDOF 2
ENDMDL
MODEL 6
REMARK VINA RESULT:      -6.7     18.170     21.102
REMARK  2 active torsions:
REMARK  status: ('A' for Active; 'I' for Inactive)
REMARK    1  A    between atoms: C5_5  and  N6_21 
REMARK    2  A    between atoms: C18_14  and  N17_19 
ROOT
HETATM    1  O1  MIQ B 502     -17.017   8.765   2.336  1.00142.91    -0.171 OA
HETATM    2  C2  MIQ B 502     -16.641   9.080   1.029  1.00141.17     0.195 A 
HETATM    3  C3  MIQ B 502     -17.379  10.070   0.071  1.00141.71     0.035 A 
HETATM    4  C4  MIQ B 502     -18.588  10.914   0.213  1.00142.86     0.046 A 
HETATM    5  C5  MIQ B 502     -19.022  11.731  -0.862  1.00139.53     0.031 A 
HETATM    6  C12 MIQ B 502     -18.274  11.739  -2.111  1.00139.38     0.030 A 
HETATM    7  C13 MIQ B 502     -17.114  10.930  -2.247  1.00141.18     0.019 A 
HETATM    8  C14 MIQ B 502     -16.662  10.077  -1.115  1.00138.77     0.033 A 
HETATM    9  C15 MIQ B 502     -15.472   9.087  -0.891  1.00142.10     0.195 A 
HETATM   10  N17 MIQ B 502     -15.607   8.627   0.342  1.00139.42    -0.288 N 
HETATM   11  O16 MIQ B 502     -14.475   8.757  -1.811  1.00148.93    -0.171 OA
ENDROOT
BRANCH  10  12
HETATM   12  C18 MIQ B 502     -14.677   7.660   0.895  1.00139.82     0.187 C 
HETATM   13  C19 MIQ B 502     -13.262   8.233   0.747  1.00140.06     0.247 C 
HETATM   14  O25 MIQ B 502     -13.041   9.327   1.131  1.00143.95    -0.271 OA
HETATM   15  N20 MIQ B 502     -12.186   7.467   0.153  1.00140.02    -0.296 N 
HETATM   16  H13 MIQ B 502     -11.268   7.856   0.056  1.00142.77     0.171 HD
HETATM   17  C21 MIQ B 502     -12.483   6.139  -0.318  1.00142.22     0.224 C 
HETATM   18  C22 MIQ B 502     -13.873   5.911  -0.880  1.00139.52     0.106 C 
HETATM   19  O24 MIQ B 502     -11.684   5.270  -0.262  1.00146.13    -0.273 OA
HETATM   20  C23 MIQ B 502     -14.851   6.304   0.212  1.00139.15     0.045 C 
ENDBRANCH  10  12
BRANCH   5  21
HETATM   21  N6  MIQ B 502     -20.217  12.542  -0.715  1.00140.95    -0.377 N 
HETATM   22  C7  MIQ B 502     -20.745  13.220  -1.886  1.00142.12     0.149 C 
HETATM   23  C8  MIQ B 502     -21.529  14.472  -1.513  1.00144.10     0.187 C 
HETATM   24  O9  MIQ B 502     -22.449  14.251  -0.485  1.00148.65    -0.388 OA
HETATM   25  C10 MIQ B 502     -22.432  13.054   0.235  1.00147.44     0.187 C 
HETATM   26  C11 MIQ B 502     -21.100  12.333   0.419  1.00144.08     0.149 C 
ENDBRANCH   5  21
TORSDOF 2
ENDMDL
MODEL 7
REMARK VINA RESULT:      -6.6      2.415      3.053
REMARK  2 active torsions:
REMARK  status: ('A' for Active; 'I' for Inactive)
REMARK    1  A    between atoms: C5_5  and  N6_21 
REMARK    2  A    between atoms: C18_14  and  N17_19 
ROOT
HETATM    1  O1  MIQ B 502     -15.257   1.144 -17.018  1.00142.91    -0.171 OA
HETATM    2  C2  MIQ B 502     -14.556   1.858 -17.993  1.00141.17     0.195 A 
HETATM    3  C3  MIQ B 502     -13.513   1.269 -18.996  1.00141.71     0.035 A 
HETATM    4  C4  MIQ B 502     -12.979  -0.094 -19.227  1.00142.86     0.046 A 
HETATM    5  C5  MIQ B 502     -12.015  -0.323 -20.241  1.00139.53     0.031 A 
HETATM    6  C12 MIQ B 502     -11.548   0.787 -21.059  1.00139.38     0.030 A 
HETATM    7  C13 MIQ B 502     -12.061   2.094 -20.839  1.00141.18     0.019 A 
HETATM    8  C14 MIQ B 502     -13.075   2.328 -19.774  1.00138.77     0.033 A 
HETATM    9  C15 MIQ B 502     -13.851   3.582 -19.252  1.00142.10     0.195 A 
HETATM   10  N17 MIQ B 502     -14.627   3.148 -18.272  1.00139.42    -0.288 N 
HETATM   11  O16 MIQ B 502     -13.741   4.890 -19.726  1.00148.93    -0.171 OA
ENDROOT
BRANCH  10  12
HETATM   12  C18 MIQ B 502     -15.490   4.052 -17.534  1.00139.82     0.187 C 
HETATM   13  C19 MIQ B 502     -15.143   3.918 -16.046  1.00140.06     0.247 C 
HETATM   14  O25 MIQ B 502     -14.016   4.010 -15.707  1.00143.95    -0.271 OA
HETATM   15  N20 MIQ B 502     -16.161   3.689 -15.042  1.00140.02    -0.296 N 
HETATM   16  H13 MIQ B 502     -15.921   3.597 -14.074  1.00142.77     0.171 HD
HETATM   17  C21 MIQ B 502     -17.527   3.571 -15.481  1.00142.22     0.224 C 
HETATM   18  C22 MIQ B 502     -17.753   2.934 -16.839  1.00139.52     0.106 C 
HETATM   19  O24 MIQ B 502     -18.426   3.957 -14.818  1.00146.13    -0.273 OA
HETATM   20  C23 MIQ B 502     -16.957   3.753 -17.838  1.00139.15     0.045 C 
ENDBRANCH  10  12
BRANCH   5  21
HETATM   21  N6  MIQ B 502     -11.489  -1.660 -20.447  1.00140.95    -0.377 N 
HETATM   22  C7  MIQ B 502     -12.172  -2.779 -19.821  1.00142.12     0.149 C 
HETATM   23  C8  MIQ B 502     -11.231  -3.949 -19.564  1.00144.10     0.187 C 
HETATM   24  O9  MIQ B 502     -10.451  -4.272 -20.676  1.00148.65    -0.388 OA
HETATM   25  C10 MIQ B 502     -10.418  -3.427 -21.788  1.00147.44     0.187 C 
HETATM   26  C11 MIQ B 502     -10.610  -1.929 -21.571  1.00144.08     0.149 C 
ENDBRANCH   5  21
TORSDOF 2
ENDMDL
MODEL 8
REMARK VINA RESULT:      -6.6     21.864     24.450
REMARK  2 active torsions:
REMARK  status: ('A' for Active; 'I' for Inactive)
REMARK    1  A    between atoms: C5_5  and  N6_21 
REMARK    2  A    between atoms: C18_14  and  N17_19 
ROOT
HETATM    1  O1  MIQ B 502     -18.522  -0.448   3.623  1.00142.91    -0.171 OA
HETATM    2  C2  MIQ B 502     -19.523  -0.557   4.591  1.00141.17     0.195 A 
HETATM    3  C3  MIQ B 502     -20.781   0.359   4.723  1.00141.71     0.035 A 
HETATM    4  C4  MIQ B 502     -21.283   1.520   3.950  1.00142.86     0.046 A 
HETATM    5  C5  MIQ B 502     -22.492   2.161   4.322  1.00139.53     0.031 A 
HETATM    6  C12 MIQ B 502     -23.244   1.675   5.470  1.00139.38     0.030 A 
HETATM    7  C13 MIQ B 502     -22.764   0.561   6.211  1.00141.18     0.019 A 
HETATM    8  C14 MIQ B 502     -21.495  -0.109   5.814  1.00138.77     0.033 A 
HETATM    9  C15 MIQ B 502     -20.676  -1.323   6.362  1.00142.10     0.195 A 
HETATM   10  N17 MIQ B 502     -19.620  -1.436   5.573  1.00139.42    -0.288 N 
HETATM   11  O16 MIQ B 502     -20.996  -2.120   7.462  1.00148.93    -0.171 OA
ENDROOT
BRANCH  10  12
HETATM   12  C18 MIQ B 502     -18.616  -2.460   5.794  1.00139.82     0.187 C 
HETATM   13  C19 MIQ B 502     -17.256  -1.763   5.917  1.00140.06     0.247 C 
HETATM   14  O25 MIQ B 502     -17.137  -0.861   6.667  1.00143.95    -0.271 OA
HETATM   15  N20 MIQ B 502     -16.108  -2.186   5.140  1.00140.02    -0.296 N 
HETATM   16  H13 MIQ B 502     -15.227  -1.718   5.224  1.00142.77     0.171 HD
HETATM   17  C21 MIQ B 502     -16.281  -3.283   4.223  1.00142.22     0.224 C 
HETATM   18  C22 MIQ B 502     -17.638  -3.406   3.556  1.00139.52     0.106 C 
HETATM   19  O24 MIQ B 502     -15.409  -4.050   4.007  1.00146.13    -0.273 OA
HETATM   20  C23 MIQ B 502     -18.661  -3.499   4.674  1.00139.15     0.045 C 
ENDBRANCH  10  12
BRANCH   5  21
HETATM   21  N6  MIQ B 502     -22.963   3.306   3.564  1.00140.95    -0.377 N 
HETATM   22  C7  MIQ B 502     -23.995   4.147   4.147  1.00142.12     0.149 C 
HETATM   23  C8  MIQ B 502     -24.822   4.853   3.081  1.00144.10     0.187 C 
HETATM   24  O9  MIQ B 502     -24.038   5.463   2.100  1.00148.65    -0.388 OA
HETATM   25  C10 MIQ B 502     -22.665   5.213   2.034  1.00147.44     0.187 C 
HETATM   26  C11 MIQ B 502     -22.149   3.853   2.494  1.00144.08     0.149 C 
ENDBRANCH   5  21
TORSDOF 2
ENDMDL
MODEL 9
REMARK VINA RESULT:      -6.5      4.539      6.028
REMARK  2 active torsions:
REMARK  status: ('A' for Active; 'I' for Inactive)
REMARK    1  A    between atoms: C5_5  and  N6_21 
REMARK    2  A    between atoms: C18_14  and  N17_19 
ROOT
HETATM    1  O1  MIQ B 502     -14.742   3.590 -18.495  1.00142.91    -0.171 OA
HETATM    2  C2  MIQ B 502     -13.838   2.525 -18.495  1.00141.17     0.195 A 
HETATM    3  C3  MIQ B 502     -12.547   2.412 -19.366  1.00141.71     0.035 A 
HETATM    4  C4  MIQ B 502     -11.914   3.299 -20.371  1.00142.86     0.046 A 
HETATM    5  C5  MIQ B 502     -10.708   2.913 -21.009  1.00139.53     0.031 A 
HETATM    6  C12 MIQ B 502     -10.089   1.639 -20.675  1.00139.38     0.030 A 
HETATM    7  C13 MIQ B 502     -10.695   0.788 -19.711  1.00141.18     0.019 A 
HETATM    8  C14 MIQ B 502     -11.960   1.199 -19.042  1.00138.77     0.033 A 
HETATM    9  C15 MIQ B 502     -12.892   0.557 -17.964  1.00142.10     0.195 A 
HETATM   10  N17 MIQ B 502     -13.878   1.417 -17.775  1.00139.42    -0.288 N 
HETATM   11  O16 MIQ B 502     -12.715  -0.676 -17.334  1.00148.93    -0.171 OA
ENDROOT
BRANCH  10  12
HETATM   12  C18 MIQ B 502     -14.954   1.143 -16.840  1.00139.82     0.187 C 
HETATM   13  C19 MIQ B 502     -16.278   1.256 -17.605  1.00140.06     0.247 C 
HETATM   14  O25 MIQ B 502     -16.412   0.664 -18.617  1.00143.95    -0.271 OA
HETATM   15  N20 MIQ B 502     -17.375   2.067 -17.118  1.00140.02    -0.296 N 
HETATM   16  H13 MIQ B 502     -18.232   2.138 -17.630  1.00142.77     0.171 HD
HETATM   17  C21 MIQ B 502     -17.185   2.789 -15.886  1.00142.22     0.224 C 
HETATM   18  C22 MIQ B 502     -15.784   3.297 -15.604  1.00139.52     0.106 C 
HETATM   19  O24 MIQ B 502     -18.077   2.970 -15.132  1.00146.13    -0.273 OA
HETATM   20  C23 MIQ B 502     -14.870   2.085 -15.641  1.00139.15     0.045 C 
ENDBRANCH  10  12
BRANCH   5  21
HETATM   21  N6  MIQ B 502     -10.108   3.785 -22.002  1.00140.95    -0.377 N 
HETATM   22  C7  MIQ B 502     -10.464   3.598 -23.398  1.00142.12     0.149 C 
HETATM   23  C8  MIQ B 502      -9.361   4.072 -24.336  1.00144.10     0.187 C 
HETATM   24  O9  MIQ B 502      -8.877   5.340 -24.008  1.00148.65    -0.388 OA
HETATM   25  C10 MIQ B 502      -9.242   5.947 -22.804  1.00147.44     0.187 C 
HETATM   26  C11 MIQ B 502      -9.539   5.060 -21.600  1.00144.08     0.149 C 
ENDBRANCH   5  21
TORSDOF 2
ENDMDL
