MODEL 1
REMARK VINA RESULT:      -7.1      0.000      0.000
REMARK  2 active torsions:
REMARK  status: ('A' for Active; 'I' for Inactive)
REMARK    1  A    between atoms: C5_5  and  N6_21 
REMARK    2  A    between atoms: C18_14  and  N17_19 
ROOT
HETATM    1  O1  MIQ B 502       1.846  22.637  13.804  1.00142.91    -0.171 OA
HETATM    2  C2  MIQ B 502       2.526  22.579  12.585  1.00141.17     0.195 A 
HETATM    3  C3  MIQ B 502       1.964  22.012  11.243  1.00141.71     0.035 A 
HETATM    4  C4  MIQ B 502       0.665  21.414  10.853  1.00142.86     0.046 A 
HETATM    5  C5  MIQ B 502       0.446  20.982   9.520  1.00139.53     0.031 A 
HETATM    6  C12 MIQ B 502       1.504  21.128   8.530  1.00139.38     0.030 A 
HETATM    7  C13 MIQ B 502       2.749  21.702   8.903  1.00141.18     0.019 A 
HETATM    8  C14 MIQ B 502       2.972  22.156  10.303  1.00138.77     0.033 A 
HETATM    9  C15 MIQ B 502       4.166  22.816  11.067  1.00142.10     0.195 A 
HETATM   10  N17 MIQ B 502       3.754  22.985  12.313  1.00139.42    -0.288 N 
HETATM   11  O16 MIQ B 502       5.413  23.154  10.538  1.00148.93    -0.171 OA
ENDROOT
BRANCH  10  12
HETATM   12  C18 MIQ B 502       4.617  23.566  13.324  1.00139.82     0.187 C 
HETATM   13  C19 MIQ B 502       5.150  24.896  12.777  1.00140.06     0.247 C 
HETATM   14  O25 MIQ B 502       4.389  25.685  12.341  1.00143.95    -0.271 OA
HETATM   15  N20 MIQ B 502       6.563  25.214  12.784  1.00140.02    -0.296 N 
HETATM   16  H13 MIQ B 502       6.898  26.084  12.418  1.00142.77     0.171 HD
HETATM   17  C21 MIQ B 502       7.473  24.231  13.312  1.00142.22     0.224 C 
HETATM   18  C22 MIQ B 502       7.103  22.776  13.095  1.00139.52     0.106 C 
HETATM   19  O24 MIQ B 502       8.455  24.544  13.889  1.00146.13    -0.273 OA
HETATM   20  C23 MIQ B 502       5.726  22.586  13.704  1.00139.15     0.045 C 
ENDBRANCH  10  12
BRANCH   5  21
HETATM   21  N6  MIQ B 502      -0.826  20.385   9.156  1.00140.95    -0.377 N 
HETATM   22  C7  MIQ B 502      -2.046  21.118   9.448  1.00142.12     0.149 C 
HETATM   23  C8  MIQ B 502      -3.239  20.187   9.628  1.00144.10     0.187 C 
HETATM   24  O9  MIQ B 502      -3.343  19.234   8.613  1.00148.65    -0.388 OA
HETATM   25  C10 MIQ B 502      -2.302  19.059   7.697  1.00147.44     0.187 C 
HETATM   26  C11 MIQ B 502      -0.874  19.334   8.155  1.00144.08     0.149 C 
ENDBRANCH   5  21
TORSDOF 2
ENDMDL
MODEL 2
REMARK VINA RESULT:      -6.9      1.724      2.251
REMARK  2 active torsions:
REMARK  status: ('A' for Active; 'I' for Inactive)
REMARK    1  A    between atoms: C5_5  and  N6_21 
REMARK    2  A    between atoms: C18_14  and  N17_19 
ROOT
HETATM    1  O1  MIQ B 502       1.388  22.399  14.308  1.00142.91    -0.171 OA
HETATM    2  C2  MIQ B 502       1.635  22.340  12.934  1.00141.17     0.195 A 
HETATM    3  C3  MIQ B 502       0.590  22.010  11.822  1.00141.71     0.035 A 
HETATM    4  C4  MIQ B 502      -0.856  21.687  11.846  1.00142.86     0.046 A 
HETATM    5  C5  MIQ B 502      -1.554  21.429  10.639  1.00139.53     0.031 A 
HETATM    6  C12 MIQ B 502      -0.844  21.481   9.369  1.00139.38     0.030 A 
HETATM    7  C13 MIQ B 502       0.543  21.792   9.345  1.00141.18     0.019 A 
HETATM    8  C14 MIQ B 502       1.269  22.065  10.616  1.00138.77     0.033 A 
HETATM    9  C15 MIQ B 502       2.744  22.432  10.981  1.00142.10     0.195 A 
HETATM   10  N17 MIQ B 502       2.775  22.551  12.298  1.00139.42    -0.288 N 
HETATM   11  O16 MIQ B 502       3.809  22.596  10.094  1.00148.93    -0.171 OA
ENDROOT
BRANCH  10  12
HETATM   12  C18 MIQ B 502       4.003  22.874  13.001  1.00139.82     0.187 C 
HETATM   13  C19 MIQ B 502       4.579  24.149  12.374  1.00140.06     0.247 C 
HETATM   14  O25 MIQ B 502       3.883  25.093  12.246  1.00143.95    -0.271 OA
HETATM   15  N20 MIQ B 502       5.958  24.231  11.938  1.00140.02    -0.296 N 
HETATM   16  H13 MIQ B 502       6.320  25.067  11.524  1.00142.77     0.171 HD
HETATM   17  C21 MIQ B 502       6.785  23.062  12.094  1.00142.22     0.224 C 
HETATM   18  C22 MIQ B 502       6.100  21.717  11.941  1.00139.52     0.106 C 
HETATM   19  O24 MIQ B 502       7.938  23.149  12.335  1.00146.13    -0.273 OA
HETATM   20  C23 MIQ B 502       4.969  21.691  12.954  1.00139.15     0.045 C 
ENDBRANCH  10  12
BRANCH   5  21
HETATM   21  N6  MIQ B 502      -2.967  21.099  10.679  1.00140.95    -0.377 N 
HETATM   22  C7  MIQ B 502      -3.432  20.157  11.682  1.00142.12     0.149 C 
HETATM   23  C8  MIQ B 502      -4.696  19.431  11.238  1.00144.10     0.187 C 
HETATM   24  O9  MIQ B 502      -5.670  20.295  10.733  1.00148.65    -0.388 OA
HETATM   25  C10 MIQ B 502      -5.362  21.633  10.473  1.00147.44     0.187 C 
HETATM   26  C11 MIQ B 502      -3.937  21.988  10.064  1.00144.08     0.149 C 
ENDBRANCH   5  21
TORSDOF 2
ENDMDL
MODEL 3
REMARK VINA RESULT:      -6.8     10.443     12.405
REMARK  2 active torsions:
REMARK  status: ('A' for Active; 'I' for Inactive)
REMARK    1  A    between atoms: C5_5  and  N6_21 
REMARK    2  A    between atoms: C18_14  and  N17_19 
ROOT
HETATM    1  O1  MIQ B 502       8.954  15.984   6.628  1.00142.91    -0.171 OA
HETATM    2  C2  MIQ B 502      10.292  16.383   6.651  1.00141.17     0.195 A 
HETATM    3  C3  MIQ B 502      10.863  17.727   6.096  1.00141.71     0.035 A 
HETATM    4  C4  MIQ B 502      10.245  18.901   5.435  1.00142.86     0.046 A 
HETATM    5  C5  MIQ B 502      11.045  20.001   5.034  1.00139.53     0.031 A 
HETATM    6  C12 MIQ B 502      12.481  19.976   5.275  1.00139.38     0.030 A 
HETATM    7  C13 MIQ B 502      13.073  18.851   5.909  1.00141.18     0.019 A 
HETATM    8  C14 MIQ B 502      12.228  17.700   6.330  1.00138.77     0.033 A 
HETATM    9  C15 MIQ B 502      12.506  16.333   7.035  1.00142.10     0.195 A 
HETATM   10  N17 MIQ B 502      11.333  15.730   7.138  1.00139.42    -0.288 N 
HETATM   11  O16 MIQ B 502      13.744  15.850   7.464  1.00148.93    -0.171 OA
ENDROOT
BRANCH  10  12
HETATM   12  C18 MIQ B 502      11.208  14.414   7.736  1.00139.82     0.187 C 
HETATM   13  C19 MIQ B 502      10.479  13.512   6.733  1.00140.06     0.247 C 
HETATM   14  O25 MIQ B 502      10.869  13.455   5.621  1.00143.95    -0.271 OA
HETATM   15  N20 MIQ B 502       9.327  12.721   7.114  1.00140.02    -0.296 N 
HETATM   16  H13 MIQ B 502       8.856  12.141   6.447  1.00142.77     0.171 HD
HETATM   17  C21 MIQ B 502       8.864  12.815   8.474  1.00142.22     0.224 C 
HETATM   18  C22 MIQ B 502       9.022  14.161   9.156  1.00139.52     0.106 C 
HETATM   19  O24 MIQ B 502       8.389  11.887   9.031  1.00146.13    -0.273 OA
HETATM   20  C23 MIQ B 502      10.498  14.508   9.086  1.00139.15     0.045 C 
ENDBRANCH  10  12
BRANCH   5  21
HETATM   21  N6  MIQ B 502      10.429  21.138   4.374  1.00140.95    -0.377 N 
HETATM   22  C7  MIQ B 502      11.187  21.845   3.357  1.00142.12     0.149 C 
HETATM   23  C8  MIQ B 502      10.749  23.298   3.229  1.00144.10     0.187 C 
HETATM   24  O9  MIQ B 502       9.362  23.442   3.148  1.00148.65    -0.388 OA
HETATM   25  C10 MIQ B 502       8.522  22.356   3.402  1.00147.44     0.187 C 
HETATM   26  C11 MIQ B 502       8.985  21.291   4.391  1.00144.08     0.149 C 
ENDBRANCH   5  21
TORSDOF 2
ENDMDL
MODEL 4
REMARK VINA RESULT:      -6.7     11.009     14.705
REMARK  2 active torsions:
REMARK  status: ('A' for Active; 'I' for Inactive)
REMARK    1  A    between atoms: C5_5  and  N6_21 
REMARK    2  A    between atoms: C18_14  and  N17_19 
ROOT
HETATM    1  O1  MIQ B 502      -9.472  18.813  11.977  1.00142.91    -0.171 OA
HETATM    2  C2  MIQ B 502      -9.112  17.610  11.365  1.00141.17     0.195 A 
HETATM    3  C3  MIQ B 502      -8.018  16.613  11.864  1.00141.71     0.035 A 
HETATM    4  C4  MIQ B 502      -7.099  16.607  13.027  1.00142.86     0.046 A 
HETATM    5  C5  MIQ B 502      -6.194  15.532  13.219  1.00139.53     0.031 A 
HETATM    6  C12 MIQ B 502      -6.168  14.430  12.269  1.00139.38     0.030 A 
HETATM    7  C13 MIQ B 502      -7.050  14.435  11.154  1.00141.18     0.019 A 
HETATM    8  C14 MIQ B 502      -7.999  15.564  10.959  1.00138.77     0.033 A 
HETATM    9  C15 MIQ B 502      -9.089  15.912   9.892  1.00142.10     0.195 A 
HETATM   10  N17 MIQ B 502      -9.609  17.070  10.265  1.00139.42    -0.288 N 
HETATM   11  O16 MIQ B 502      -9.436  15.153   8.774  1.00148.93    -0.171 OA
ENDROOT
BRANCH  10  12
HETATM   12  C18 MIQ B 502     -10.653  17.716   9.492  1.00139.82     0.187 C 
HETATM   13  C19 MIQ B 502     -11.839  16.748   9.407  1.00140.06     0.247 C 
HETATM   14  O25 MIQ B 502     -12.260  16.265  10.398  1.00143.95    -0.271 OA
HETATM   15  N20 MIQ B 502     -12.463  16.413   8.144  1.00140.02    -0.296 N 
HETATM   16  H13 MIQ B 502     -13.233  15.774   8.101  1.00142.77     0.171 HD
HETATM   17  C21 MIQ B 502     -11.925  17.007   6.947  1.00142.22     0.224 C 
HETATM   18  C22 MIQ B 502     -10.429  17.256   6.924  1.00139.52     0.106 C 
HETATM   19  O24 MIQ B 502     -12.618  17.291   6.033  1.00146.13    -0.273 OA
HETATM   20  C23 MIQ B 502     -10.119  18.133   8.122  1.00139.15     0.045 C 
ENDBRANCH  10  12
BRANCH   5  21
HETATM   21  N6  MIQ B 502      -5.290  15.547  14.355  1.00140.95    -0.377 N 
HETATM   22  C7  MIQ B 502      -5.855  15.585  15.693  1.00142.12     0.149 C 
HETATM   23  C8  MIQ B 502      -4.903  16.227  16.694  1.00144.10     0.187 C 
HETATM   24  O9  MIQ B 502      -3.604  15.722  16.609  1.00148.65    -0.388 OA
HETATM   25  C10 MIQ B 502      -3.234  14.895  15.545  1.00147.44     0.187 C 
HETATM   26  C11 MIQ B 502      -3.920  15.091  14.197  1.00144.08     0.149 C 
ENDBRANCH   5  21
TORSDOF 2
ENDMDL
MODEL 5
REMARK VINA RESULT:      -6.7      2.506      8.512
REMARK  2 active torsions:
REMARK  status: ('A' for Active; 'I' for Inactive)
REMARK    1  A    between atoms: C5_5  and  N6_21 
REMARK    2  A    between atoms: C18_14  and  N17_19 
ROOT
HETATM    1  O1  MIQ B 502      -2.285  21.946  12.394  1.00142.91    -0.171 OA
HETATM    2  C2  MIQ B 502      -1.734  21.447  11.212  1.00141.17     0.195 A 
HETATM    3  C3  MIQ B 502      -0.253  21.611  10.743  1.00141.71     0.035 A 
HETATM    4  C4  MIQ B 502       0.934  22.276  11.331  1.00142.86     0.046 A 
HETATM    5  C5  MIQ B 502       2.178  22.254  10.651  1.00139.53     0.031 A 
HETATM    6  C12 MIQ B 502       2.288  21.574   9.368  1.00139.38     0.030 A 
HETATM    7  C13 MIQ B 502       1.151  20.936   8.805  1.00141.18     0.019 A 
HETATM    8  C14 MIQ B 502      -0.152  20.960   9.524  1.00138.77     0.033 A 
HETATM    9  C15 MIQ B 502      -1.578  20.387   9.236  1.00142.10     0.195 A 
HETATM   10  N17 MIQ B 502      -2.330  20.743  10.265  1.00139.42    -0.288 N 
HETATM   11  O16 MIQ B 502      -1.973  19.654   8.116  1.00148.93    -0.171 OA
ENDROOT
BRANCH  10  12
HETATM   12  C18 MIQ B 502      -3.736  20.392  10.332  1.00139.82     0.187 C 
HETATM   13  C19 MIQ B 502      -4.525  21.676  10.617  1.00140.06     0.247 C 
HETATM   14  O25 MIQ B 502      -4.340  22.627   9.944  1.00143.95    -0.271 OA
HETATM   15  N20 MIQ B 502      -5.497  21.754  11.688  1.00140.02    -0.296 N 
HETATM   16  H13 MIQ B 502      -6.001  22.600  11.868  1.00142.77     0.171 HD
HETATM   17  C21 MIQ B 502      -5.698  20.583  12.502  1.00142.22     0.224 C 
HETATM   18  C22 MIQ B 502      -4.485  19.706  12.746  1.00139.52     0.106 C 
HETATM   19  O24 MIQ B 502      -6.758  20.318  12.953  1.00146.13    -0.273 OA
HETATM   20  C23 MIQ B 502      -3.963  19.303  11.379  1.00139.15     0.045 C 
ENDBRANCH  10  12
BRANCH   5  21
HETATM   21  N6  MIQ B 502       3.329  22.922  11.231  1.00140.95    -0.377 N 
HETATM   22  C7  MIQ B 502       4.596  22.864  10.523  1.00142.12     0.149 C 
HETATM   23  C8  MIQ B 502       5.783  23.003  11.467  1.00144.10     0.187 C 
HETATM   24  O9  MIQ B 502       5.646  24.068  12.360  1.00148.65    -0.388 OA
HETATM   25  C10 MIQ B 502       4.427  24.742  12.475  1.00147.44     0.187 C 
HETATM   26  C11 MIQ B 502       3.138  23.967  12.221  1.00144.08     0.149 C 
ENDBRANCH   5  21
TORSDOF 2
ENDMDL
MODEL 6
REMARK VINA RESULT:      -6.6     10.167     12.644
REMARK  2 active torsions:
REMARK  status: ('A' for Active; 'I' for Inactive)
REMARK    1  A    between atoms: C5_5  and  N6_21 
REMARK    2  A    between atoms: C18_14  and  N17_19 
ROOT
HETATM    1  O1  MIQ B 502       9.160  15.051  10.571  1.00142.91    -0.171 OA
HETATM    2  C2  MIQ B 502       9.416  14.642   9.260  1.00141.17     0.195 A 
HETATM    3  C3  MIQ B 502      10.213  15.445   8.183  1.00141.71     0.035 A 
HETATM    4  C4  MIQ B 502      10.892  16.762   8.190  1.00142.86     0.046 A 
HETATM    5  C5  MIQ B 502      11.550  17.235   7.026  1.00139.53     0.031 A 
HETATM    6  C12 MIQ B 502      11.558  16.421   5.819  1.00139.38     0.030 A 
HETATM    7  C13 MIQ B 502      10.908  15.158   5.813  1.00141.18     0.019 A 
HETATM    8  C14 MIQ B 502      10.220  14.666   7.038  1.00138.77     0.033 A 
HETATM    9  C15 MIQ B 502       9.425  13.371   7.406  1.00142.10     0.195 A 
HETATM   10  N17 MIQ B 502       9.053  13.518   8.668  1.00139.42    -0.288 N 
HETATM   11  O16 MIQ B 502       9.161  12.286   6.569  1.00148.93    -0.171 OA
ENDROOT
BRANCH  10  12
HETATM   12  C18 MIQ B 502       8.272  12.503   9.350  1.00139.82     0.187 C 
HETATM   13  C19 MIQ B 502       7.029  13.184   9.934  1.00140.06     0.247 C 
HETATM   14  O25 MIQ B 502       6.360  13.859   9.235  1.00143.95    -0.271 OA
HETATM   15  N20 MIQ B 502       6.647  13.018  11.321  1.00140.02    -0.296 N 
HETATM   16  H13 MIQ B 502       5.837  13.474  11.692  1.00142.77     0.171 HD
HETATM   17  C21 MIQ B 502       7.486  12.198  12.158  1.00142.22     0.224 C 
HETATM   18  C22 MIQ B 502       8.972  12.214  11.856  1.00139.52     0.106 C 
HETATM   19  O24 MIQ B 502       7.034  11.542  13.031  1.00146.13    -0.273 OA
HETATM   20  C23 MIQ B 502       9.122  11.797  10.405  1.00139.15     0.045 C 
ENDBRANCH  10  12
BRANCH   5  21
HETATM   21  N6  MIQ B 502      12.199  18.534   7.042  1.00140.95    -0.377 N 
HETATM   22  C7  MIQ B 502      12.916  18.967   5.855  1.00142.12     0.149 C 
HETATM   23  C8  MIQ B 502      14.028  19.953   6.190  1.00144.10     0.187 C 
HETATM   24  O9  MIQ B 502      13.608  20.977   7.041  1.00148.65    -0.388 OA
HETATM   25  C10 MIQ B 502      12.360  20.911   7.666  1.00147.44     0.187 C 
HETATM   26  C11 MIQ B 502      11.786  19.540   8.005  1.00144.08     0.149 C 
ENDBRANCH   5  21
TORSDOF 2
ENDMDL
MODEL 7
REMARK VINA RESULT:      -6.6      1.735      2.410
REMARK  2 active torsions:
REMARK  status: ('A' for Active; 'I' for Inactive)
REMARK    1  A    between atoms: C5_5  and  N6_21 
REMARK    2  A    between atoms: C18_14  and  N17_19 
ROOT
HETATM    1  O1  MIQ B 502       1.406  23.757  13.377  1.00142.91    -0.171 OA
HETATM    2  C2  MIQ B 502       2.234  23.361  12.324  1.00141.17     0.195 A 
HETATM    3  C3  MIQ B 502       1.816  22.478  11.105  1.00141.71     0.035 A 
HETATM    4  C4  MIQ B 502       0.542  21.838  10.699  1.00142.86     0.046 A 
HETATM    5  C5  MIQ B 502       0.471  21.078   9.504  1.00139.53     0.031 A 
HETATM    6  C12 MIQ B 502       1.656  20.927   8.672  1.00139.38     0.030 A 
HETATM    7  C13 MIQ B 502       2.877  21.542   9.060  1.00141.18     0.019 A 
HETATM    8  C14 MIQ B 502       2.945  22.340  10.314  1.00138.77     0.033 A 
HETATM    9  C15 MIQ B 502       4.070  23.143  11.046  1.00142.10     0.195 A 
HETATM   10  N17 MIQ B 502       3.511  23.645  12.134  1.00139.42    -0.288 N 
HETATM   11  O16 MIQ B 502       5.395  23.293  10.631  1.00148.93    -0.171 OA
ENDROOT
BRANCH  10  12
HETATM   12  C18 MIQ B 502       4.272  24.445  13.076  1.00139.82     0.187 C 
HETATM   13  C19 MIQ B 502       4.075  23.839  14.471  1.00140.06     0.247 C 
HETATM   14  O25 MIQ B 502       4.256  22.684  14.628  1.00143.95    -0.271 OA
HETATM   15  N20 MIQ B 502       3.678  24.647  15.606  1.00140.02    -0.296 N 
HETATM   16  H13 MIQ B 502       3.546  24.238  16.510  1.00142.77     0.171 HD
HETATM   17  C21 MIQ B 502       3.452  26.053  15.387  1.00142.22     0.224 C 
HETATM   18  C22 MIQ B 502       2.887  26.450  14.037  1.00139.52     0.106 C 
HETATM   19  O24 MIQ B 502       3.701  26.855  16.218  1.00146.13    -0.273 OA
HETATM   20  C23 MIQ B 502       3.848  25.911  12.992  1.00139.15     0.045 C 
ENDBRANCH  10  12
BRANCH   5  21
HETATM   21  N6  MIQ B 502      -0.779  20.444   9.127  1.00140.95    -0.377 N 
HETATM   22  C7  MIQ B 502      -2.022  21.152   9.382  1.00142.12     0.149 C 
HETATM   23  C8  MIQ B 502      -3.196  20.197   9.557  1.00144.10     0.187 C 
HETATM   24  O9  MIQ B 502      -3.258  19.224   8.558  1.00148.65    -0.388 OA
HETATM   25  C10 MIQ B 502      -2.196  19.057   7.665  1.00147.44     0.187 C 
HETATM   26  C11 MIQ B 502      -0.783  19.375   8.144  1.00144.08     0.149 C 
ENDBRANCH   5  21
TORSDOF 2
ENDMDL
MODEL 8
REMARK VINA RESULT:      -6.6      1.143      1.600
REMARK  2 active torsions:
REMARK  status: ('A' for Active; 'I' for Inactive)
REMARK    1  A    between atoms: C5_5  and  N6_21 
REMARK    2  A    between atoms: C18_14  and  N17_19 
ROOT
HETATM    1  O1  MIQ B 502       2.815  23.106  14.327  1.00142.91    -0.171 OA
HETATM    2  C2  MIQ B 502       3.510  22.985  13.121  1.00141.17     0.195 A 
HETATM    3  C3  MIQ B 502       2.918  22.501  11.760  1.00141.71     0.035 A 
HETATM    4  C4  MIQ B 502       1.568  22.060  11.335  1.00142.86     0.046 A 
HETATM    5  C5  MIQ B 502       1.331  21.671   9.992  1.00139.53     0.031 A 
HETATM    6  C12 MIQ B 502       2.420  21.706   9.026  1.00139.38     0.030 A 
HETATM    7  C13 MIQ B 502       3.714  22.130   9.433  1.00141.18     0.019 A 
HETATM    8  C14 MIQ B 502       3.956  22.539  10.843  1.00138.77     0.033 A 
HETATM    9  C15 MIQ B 502       5.200  23.051  11.641  1.00142.10     0.195 A 
HETATM   10  N17 MIQ B 502       4.782  23.252  12.880  1.00139.42    -0.288 N 
HETATM   11  O16 MIQ B 502       6.488  23.251  11.142  1.00148.93    -0.171 OA
ENDROOT
BRANCH  10  12
HETATM   12  C18 MIQ B 502       5.684  23.719  13.917  1.00139.82     0.187 C 
HETATM   13  C19 MIQ B 502       6.389  24.975  13.392  1.00140.06     0.247 C 
HETATM   14  O25 MIQ B 502       5.743  25.853  12.942  1.00143.95    -0.271 OA
HETATM   15  N20 MIQ B 502       7.830  25.118  13.438  1.00140.02    -0.296 N 
HETATM   16  H13 MIQ B 502       8.279  25.940  13.086  1.00142.77     0.171 HD
HETATM   17  C21 MIQ B 502       8.598  24.028  13.982  1.00142.22     0.224 C 
HETATM   18  C22 MIQ B 502       8.059  22.630  13.747  1.00139.52     0.106 C 
HETATM   19  O24 MIQ B 502       9.597  24.216  14.586  1.00146.13    -0.273 OA
HETATM   20  C23 MIQ B 502       6.653  22.608  14.318  1.00139.15     0.045 C 
ENDBRANCH  10  12
BRANCH   5  21
HETATM   21  N6  MIQ B 502       0.008  21.226   9.594  1.00140.95    -0.377 N 
HETATM   22  C7  MIQ B 502      -0.123  19.938   8.934  1.00142.12     0.149 C 
HETATM   23  C8  MIQ B 502      -1.350  19.883   8.032  1.00144.10     0.187 C 
HETATM   24  O9  MIQ B 502      -2.506  20.354   8.658  1.00148.65    -0.388 OA
HETATM   25  C10 MIQ B 502      -2.428  21.008   9.890  1.00147.44     0.187 C 
HETATM   26  C11 MIQ B 502      -1.170  21.808  10.213  1.00144.08     0.149 C 
ENDBRANCH   5  21
TORSDOF 2
ENDMDL
MODEL 9
REMARK VINA RESULT:      -6.5      1.308      2.340
REMARK  2 active torsions:
REMARK  status: ('A' for Active; 'I' for Inactive)
REMARK    1  A    between atoms: C5_5  and  N6_21 
REMARK    2  A    between atoms: C18_14  and  N17_19 
ROOT
HETATM    1  O1  MIQ B 502       4.189  21.940  11.060  1.00142.91    -0.171 OA
HETATM    2  C2  MIQ B 502       3.212  22.337  11.976  1.00141.17     0.195 A 
HETATM    3  C3  MIQ B 502       1.677  22.071  11.861  1.00141.71     0.035 A 
HETATM    4  C4  MIQ B 502       0.836  21.382  10.854  1.00142.86     0.046 A 
HETATM    5  C5  MIQ B 502      -0.569  21.299  11.030  1.00139.53     0.031 A 
HETATM    6  C12 MIQ B 502      -1.186  21.893  12.207  1.00139.38     0.030 A 
HETATM    7  C13 MIQ B 502      -0.379  22.552  13.173  1.00141.18     0.019 A 
HETATM    8  C14 MIQ B 502       1.095  22.634  12.984  1.00138.77     0.033 A 
HETATM    9  C15 MIQ B 502       2.275  23.253  13.802  1.00142.10     0.195 A 
HETATM   10  N17 MIQ B 502       3.373  22.999  13.109  1.00139.42    -0.288 N 
HETATM   11  O16 MIQ B 502       2.182  23.937  15.015  1.00148.93    -0.171 OA
ENDROOT
BRANCH  10  12
HETATM   12  C18 MIQ B 502       4.676  23.445  13.564  1.00139.82     0.187 C 
HETATM   13  C19 MIQ B 502       5.281  24.324  12.463  1.00140.06     0.247 C 
HETATM   14  O25 MIQ B 502       4.643  25.211  12.018  1.00143.95    -0.271 OA
HETATM   15  N20 MIQ B 502       6.619  24.100  11.955  1.00140.02    -0.296 N 
HETATM   16  H13 MIQ B 502       7.000  24.677  11.231  1.00142.77     0.171 HD
HETATM   17  C21 MIQ B 502       7.375  23.005  12.506  1.00142.22     0.224 C 
HETATM   18  C22 MIQ B 502       6.589  21.776  12.922  1.00139.52     0.106 C 
HETATM   19  O24 MIQ B 502       8.548  23.065  12.632  1.00146.13    -0.273 OA
HETATM   20  C23 MIQ B 502       5.552  22.246  13.926  1.00139.15     0.045 C 
ENDBRANCH  10  12
BRANCH   5  21
HETATM   21  N6  MIQ B 502      -1.383  20.634  10.028  1.00140.95    -0.377 N 
HETATM   22  C7  MIQ B 502      -2.798  20.956   9.958  1.00142.12     0.149 C 
HETATM   23  C8  MIQ B 502      -3.614  19.807   9.380  1.00144.10     0.187 C 
HETATM   24  O9  MIQ B 502      -3.062  19.283   8.209  1.00148.65    -0.388 OA
HETATM   25  C10 MIQ B 502      -1.780  19.659   7.801  1.00147.44     0.187 C 
HETATM   26  C11 MIQ B 502      -0.754  20.028   8.868  1.00144.08     0.149 C 
ENDBRANCH   5  21
TORSDOF 2
ENDMDL
