MODEL 1
REMARK VINA RESULT:      -7.0      0.000      0.000
REMARK  2 active torsions:
REMARK  status: ('A' for Active; 'I' for Inactive)
REMARK    1  A    between atoms: C5_5  and  N6_21 
REMARK    2  A    between atoms: C18_14  and  N17_19 
ROOT
HETATM    1  O1  MIQ B 502      16.628 -13.143  -9.267  1.00142.91    -0.171 OA
HETATM    2  C2  MIQ B 502      15.738 -13.639 -10.222  1.00141.17     0.195 A 
HETATM    3  C3  MIQ B 502      14.293 -13.115 -10.496  1.00141.71     0.035 A 
HETATM    4  C4  MIQ B 502      13.472 -12.033  -9.903  1.00142.86     0.046 A 
HETATM    5  C5  MIQ B 502      12.158 -11.788 -10.376  1.00139.53     0.031 A 
HETATM    6  C12 MIQ B 502      11.613 -12.605 -11.451  1.00139.38     0.030 A 
HETATM    7  C13 MIQ B 502      12.401 -13.642 -12.021  1.00141.18     0.019 A 
HETATM    8  C14 MIQ B 502      13.780 -13.892 -11.522  1.00138.77     0.033 A 
HETATM    9  C15 MIQ B 502      14.914 -14.905 -11.887  1.00142.10     0.195 A 
HETATM   10  N17 MIQ B 502      15.925 -14.628 -11.080  1.00139.42    -0.288 N 
HETATM   11  O16 MIQ B 502      14.864 -15.899 -12.866  1.00148.93    -0.171 OA
ENDROOT
BRANCH  10  12
HETATM   12  C18 MIQ B 502      17.160 -15.388 -11.125  1.00139.82     0.187 C 
HETATM   13  C19 MIQ B 502      17.400 -15.973  -9.728  1.00140.06     0.247 C 
HETATM   14  O25 MIQ B 502      16.534 -16.573  -9.198  1.00143.95    -0.271 OA
HETATM   15  N20 MIQ B 502      18.666 -15.815  -9.041  1.00140.02    -0.296 N 
HETATM   16  H13 MIQ B 502      18.808 -16.197  -8.126  1.00142.77     0.171 HD
HETATM   17  C21 MIQ B 502      19.705 -15.071  -9.704  1.00142.22     0.224 C 
HETATM   18  C22 MIQ B 502      19.261 -13.920 -10.587  1.00139.52     0.106 C 
HETATM   19  O24 MIQ B 502      20.846 -15.348  -9.569  1.00146.13    -0.273 OA
HETATM   20  C23 MIQ B 502      18.309 -14.507 -11.613  1.00139.15     0.045 C 
ENDBRANCH  10  12
BRANCH   5  21
HETATM   21  N6  MIQ B 502      11.359 -10.735  -9.776  1.00140.95    -0.377 N 
HETATM   22  C7  MIQ B 502      11.612  -9.361 -10.172  1.00142.12     0.149 C 
HETATM   23  C8  MIQ B 502      11.223  -8.373  -9.079  1.00144.10     0.187 C 
HETATM   24  O9  MIQ B 502       9.954  -8.618  -8.552  1.00148.65    -0.388 OA
HETATM   25  C10 MIQ B 502       9.271  -9.795  -8.870  1.00147.44     0.187 C 
HETATM   26  C11 MIQ B 502      10.082 -11.053  -9.162  1.00144.08     0.149 C 
ENDBRANCH   5  21
TORSDOF 2
ENDMDL
MODEL 2
REMARK VINA RESULT:      -6.8     14.484     16.602
REMARK  2 active torsions:
REMARK  status: ('A' for Active; 'I' for Inactive)
REMARK    1  A    between atoms: C5_5  and  N6_21 
REMARK    2  A    between atoms: C18_14  and  N17_19 
ROOT
HETATM    1  O1  MIQ B 502      17.195   3.540 -17.036  1.00142.91    -0.171 OA
HETATM    2  C2  MIQ B 502      17.219   2.149 -16.910  1.00141.17     0.195 A 
HETATM    3  C3  MIQ B 502      16.018   1.240 -16.496  1.00141.71     0.035 A 
HETATM    4  C4  MIQ B 502      14.606   1.517 -16.139  1.00142.86     0.046 A 
HETATM    5  C5  MIQ B 502      13.731   0.454 -15.800  1.00139.53     0.031 A 
HETATM    6  C12 MIQ B 502      14.223  -0.916 -15.802  1.00139.38     0.030 A 
HETATM    7  C13 MIQ B 502      15.577  -1.182 -16.145  1.00141.18     0.019 A 
HETATM    8  C14 MIQ B 502      16.490  -0.062 -16.503  1.00138.77     0.033 A 
HETATM    9  C15 MIQ B 502      17.992   0.039 -16.925  1.00142.10     0.195 A 
HETATM   10  N17 MIQ B 502      18.232   1.326 -17.115  1.00139.42    -0.288 N 
HETATM   11  O16 MIQ B 502      18.893  -1.018 -17.068  1.00148.93    -0.171 OA
ENDROOT
BRANCH  10  12
HETATM   12  C18 MIQ B 502      19.547   1.801 -17.505  1.00139.82     0.187 C 
HETATM   13  C19 MIQ B 502      19.984   2.858 -16.483  1.00140.06     0.247 C 
HETATM   14  O25 MIQ B 502      19.932   2.603 -15.332  1.00143.95    -0.271 OA
HETATM   15  N20 MIQ B 502      20.466   4.162 -16.891  1.00140.02    -0.296 N 
HETATM   16  H13 MIQ B 502      20.742   4.845 -16.214  1.00142.77     0.171 HD
HETATM   17  C21 MIQ B 502      20.511   4.453 -18.301  1.00142.22     0.224 C 
HETATM   18  C22 MIQ B 502      19.431   3.826 -19.161  1.00139.52     0.106 C 
HETATM   19  O24 MIQ B 502      21.353   5.142 -18.763  1.00146.13    -0.273 OA
HETATM   20  C23 MIQ B 502      19.518   2.327 -18.939  1.00139.15     0.045 C 
ENDBRANCH  10  12
BRANCH   5  21
HETATM   21  N6  MIQ B 502      12.355   0.741 -15.438  1.00140.95    -0.377 N 
HETATM   22  C7  MIQ B 502      12.068   1.967 -14.714  1.00142.12     0.149 C 
HETATM   23  C8  MIQ B 502      10.807   1.846 -13.868  1.00144.10     0.187 C 
HETATM   24  O9  MIQ B 502       9.730   1.303 -14.572  1.00148.65    -0.388 OA
HETATM   25  C10 MIQ B 502       9.924   0.737 -15.835  1.00147.44     0.187 C 
HETATM   26  C11 MIQ B 502      11.268   0.085 -16.144  1.00144.08     0.149 C 
ENDBRANCH   5  21
TORSDOF 2
ENDMDL
MODEL 3
REMARK VINA RESULT:      -6.7     15.004     18.469
REMARK  2 active torsions:
REMARK  status: ('A' for Active; 'I' for Inactive)
REMARK    1  A    between atoms: C5_5  and  N6_21 
REMARK    2  A    between atoms: C18_14  and  N17_19 
ROOT
HETATM    1  O1  MIQ B 502      16.101   2.782 -14.237  1.00142.91    -0.171 OA
HETATM    2  C2  MIQ B 502      14.842   3.304 -13.934  1.00141.17     0.195 A 
HETATM    3  C3  MIQ B 502      14.523   4.789 -13.569  1.00141.71     0.035 A 
HETATM    4  C4  MIQ B 502      15.356   6.008 -13.439  1.00142.86     0.046 A 
HETATM    5  C5  MIQ B 502      14.764   7.247 -13.086  1.00139.53     0.031 A 
HETATM    6  C12 MIQ B 502      13.329   7.321 -12.850  1.00139.38     0.030 A 
HETATM    7  C13 MIQ B 502      12.530   6.153 -12.976  1.00141.18     0.019 A 
HETATM    8  C14 MIQ B 502      13.157   4.855 -13.350  1.00138.77     0.033 A 
HETATM    9  C15 MIQ B 502      12.625   3.403 -13.580  1.00142.10     0.195 A 
HETATM   10  N17 MIQ B 502      13.681   2.673 -13.898  1.00139.42    -0.288 N 
HETATM   11  O16 MIQ B 502      11.302   2.971 -13.470  1.00148.93    -0.171 OA
ENDROOT
BRANCH  10  12
HETATM   12  C18 MIQ B 502      13.566   1.252 -14.169  1.00139.82     0.187 C 
HETATM   13  C19 MIQ B 502      14.564   0.521 -13.263  1.00140.06     0.247 C 
HETATM   14  O25 MIQ B 502      14.567   0.750 -12.106  1.00143.95    -0.271 OA
HETATM   15  N20 MIQ B 502      15.503  -0.449 -13.788  1.00140.02    -0.296 N 
HETATM   16  H13 MIQ B 502      16.154  -0.915 -13.187  1.00142.77     0.171 HD
HETATM   17  C21 MIQ B 502      15.488  -0.704 -15.206  1.00142.22     0.224 C 
HETATM   18  C22 MIQ B 502      15.146   0.469 -16.105  1.00139.52     0.106 C 
HETATM   19  O24 MIQ B 502      15.726  -1.775 -15.644  1.00146.13    -0.273 OA
HETATM   20  C23 MIQ B 502      13.787   0.975 -15.655  1.00139.15     0.045 C 
ENDBRANCH  10  12
BRANCH   5  21
HETATM   21  N6  MIQ B 502      15.594   8.430 -12.947  1.00140.95    -0.377 N 
HETATM   22  C7  MIQ B 502      16.916   8.424 -13.549  1.00142.12     0.149 C 
HETATM   23  C8  MIQ B 502      17.873   9.365 -12.828  1.00144.10     0.187 C 
HETATM   24  O9  MIQ B 502      17.326  10.629 -12.602  1.00148.65    -0.388 OA
HETATM   25  C10 MIQ B 502      15.966  10.861 -12.825  1.00147.44     0.187 C 
HETATM   26  C11 MIQ B 502      14.987   9.709 -12.625  1.00144.08     0.149 C 
ENDBRANCH   5  21
TORSDOF 2
ENDMDL
MODEL 4
REMARK VINA RESULT:      -6.7     15.026     16.628
REMARK  2 active torsions:
REMARK  status: ('A' for Active; 'I' for Inactive)
REMARK    1  A    between atoms: C5_5  and  N6_21 
REMARK    2  A    between atoms: C18_14  and  N17_19 
ROOT
HETATM    1  O1  MIQ B 502      14.849   5.067 -11.246  1.00142.91    -0.171 OA
HETATM    2  C2  MIQ B 502      15.497   3.897 -11.647  1.00141.17     0.195 A 
HETATM    3  C3  MIQ B 502      14.906   2.786 -12.573  1.00141.71     0.035 A 
HETATM    4  C4  MIQ B 502      13.604   2.621 -13.263  1.00142.86     0.046 A 
HETATM    5  C5  MIQ B 502      13.355   1.474 -14.057  1.00139.53     0.031 A 
HETATM    6  C12 MIQ B 502      14.384   0.453 -14.196  1.00139.38     0.030 A 
HETATM    7  C13 MIQ B 502      15.632   0.612 -13.536  1.00141.18     0.019 A 
HETATM    8  C14 MIQ B 502      15.889   1.820 -12.705  1.00138.77     0.033 A 
HETATM    9  C15 MIQ B 502      17.099   2.333 -11.857  1.00142.10     0.195 A 
HETATM   10  N17 MIQ B 502      16.718   3.492 -11.343  1.00139.42    -0.288 N 
HETATM   11  O16 MIQ B 502      18.326   1.694 -11.679  1.00148.93    -0.171 OA
ENDROOT
BRANCH  10  12
HETATM   12  C18 MIQ B 502      17.593   4.259 -10.476  1.00139.82     0.187 C 
HETATM   13  C19 MIQ B 502      18.924   4.457 -11.211  1.00140.06     0.247 C 
HETATM   14  O25 MIQ B 502      18.917   4.878 -12.313  1.00143.95    -0.271 OA
HETATM   15  N20 MIQ B 502      20.194   4.146 -10.587  1.00140.02    -0.296 N 
HETATM   16  H13 MIQ B 502      21.056   4.273 -11.080  1.00142.77     0.171 HD
HETATM   17  C21 MIQ B 502      20.177   3.623  -9.245  1.00142.22     0.224 C 
HETATM   18  C22 MIQ B 502      19.001   2.740  -8.873  1.00139.52     0.106 C 
HETATM   19  O24 MIQ B 502      21.035   3.876  -8.473  1.00146.13    -0.273 OA
HETATM   20  C23 MIQ B 502      17.749   3.561  -9.126  1.00139.15     0.045 C 
ENDBRANCH  10  12
BRANCH   5  21
HETATM   21  N6  MIQ B 502      12.070   1.318 -14.714  1.00140.95    -0.377 N 
HETATM   22  C7  MIQ B 502      11.063   2.347 -14.524  1.00142.12     0.149 C 
HETATM   23  C8  MIQ B 502       9.651   1.799 -14.688  1.00144.10     0.187 C 
HETATM   24  O9  MIQ B 502       9.500   1.021 -15.838  1.00148.65    -0.388 OA
HETATM   25  C10 MIQ B 502      10.617   0.635 -16.582  1.00147.44     0.187 C 
HETATM   26  C11 MIQ B 502      11.943   0.429 -15.856  1.00144.08     0.149 C 
ENDBRANCH   5  21
TORSDOF 2
ENDMDL
MODEL 5
REMARK VINA RESULT:      -6.6     15.709     17.321
REMARK  2 active torsions:
REMARK  status: ('A' for Active; 'I' for Inactive)
REMARK    1  A    between atoms: C5_5  and  N6_21 
REMARK    2  A    between atoms: C18_14  and  N17_19 
ROOT
HETATM    1  O1  MIQ B 502      17.457   1.571 -12.752  1.00142.91    -0.171 OA
HETATM    2  C2  MIQ B 502      16.664   2.609 -12.257  1.00141.17     0.195 A 
HETATM    3  C3  MIQ B 502      15.152   2.844 -12.569  1.00141.71     0.035 A 
HETATM    4  C4  MIQ B 502      14.159   2.123 -13.399  1.00142.86     0.046 A 
HETATM    5  C5  MIQ B 502      12.823   2.590 -13.487  1.00139.53     0.031 A 
HETATM    6  C12 MIQ B 502      12.426   3.785 -12.756  1.00139.38     0.030 A 
HETATM    7  C13 MIQ B 502      13.378   4.476 -11.959  1.00141.18     0.019 A 
HETATM    8  C14 MIQ B 502      14.778   3.980 -11.869  1.00138.77     0.033 A 
HETATM    9  C15 MIQ B 502      16.066   4.452 -11.118  1.00142.10     0.195 A 
HETATM   10  N17 MIQ B 502      17.013   3.586 -11.438  1.00139.42    -0.288 N 
HETATM   11  O16 MIQ B 502      16.186   5.564 -10.283  1.00148.93    -0.171 OA
ENDROOT
BRANCH  10  12
HETATM   12  C18 MIQ B 502      18.365   3.721 -10.929  1.00139.82     0.187 C 
HETATM   13  C19 MIQ B 502      18.286   3.773  -9.398  1.00140.06     0.247 C 
HETATM   14  O25 MIQ B 502      17.681   2.939  -8.824  1.00143.95    -0.271 OA
HETATM   15  N20 MIQ B 502      18.940   4.816  -8.634  1.00140.02    -0.296 N 
HETATM   16  H13 MIQ B 502      18.875   4.842  -7.636  1.00142.77     0.171 HD
HETATM   17  C21 MIQ B 502      19.664   5.829  -9.358  1.00142.22     0.224 C 
HETATM   18  C22 MIQ B 502      19.113   6.221 -10.715  1.00139.52     0.106 C 
HETATM   19  O24 MIQ B 502      20.642   6.324  -8.916  1.00146.13    -0.273 OA
HETATM   20  C23 MIQ B 502      19.043   4.947 -11.538  1.00139.15     0.045 C 
ENDBRANCH  10  12
BRANCH   5  21
HETATM   21  N6  MIQ B 502      11.864   1.882 -14.316  1.00140.95    -0.377 N 
HETATM   22  C7  MIQ B 502      10.475   2.306 -14.288  1.00142.12     0.149 C 
HETATM   23  C8  MIQ B 502       9.526   1.167 -14.638  1.00144.10     0.187 C 
HETATM   24  O9  MIQ B 502       9.914   0.470 -15.784  1.00148.65    -0.388 OA
HETATM   25  C10 MIQ B 502      11.168   0.692 -16.357  1.00147.44     0.187 C 
HETATM   26  C11 MIQ B 502      12.324   1.097 -15.448  1.00144.08     0.149 C 
ENDBRANCH   5  21
TORSDOF 2
ENDMDL
MODEL 6
REMARK VINA RESULT:      -6.5     15.483     18.264
REMARK  2 active torsions:
REMARK  status: ('A' for Active; 'I' for Inactive)
REMARK    1  A    between atoms: C5_5  and  N6_21 
REMARK    2  A    between atoms: C18_14  and  N17_19 
ROOT
HETATM    1  O1  MIQ B 502      15.326   0.874 -11.861  1.00142.91    -0.171 OA
HETATM    2  C2  MIQ B 502      14.865   2.141 -12.224  1.00141.17     0.195 A 
HETATM    3  C3  MIQ B 502      15.502   3.507 -11.814  1.00141.71     0.035 A 
HETATM    4  C4  MIQ B 502      16.682   3.876 -10.996  1.00142.86     0.046 A 
HETATM    5  C5  MIQ B 502      17.019   5.239 -10.799  1.00139.53     0.031 A 
HETATM    6  C12 MIQ B 502      16.202   6.281 -11.405  1.00139.38     0.030 A 
HETATM    7  C13 MIQ B 502      15.071   5.927 -12.190  1.00141.18     0.019 A 
HETATM    8  C14 MIQ B 502      14.724   4.494 -12.395  1.00138.77     0.033 A 
HETATM    9  C15 MIQ B 502      13.597   3.737 -13.171  1.00142.10     0.195 A 
HETATM   10  N17 MIQ B 502      13.822   2.448 -12.976  1.00139.42    -0.288 N 
HETATM   11  O16 MIQ B 502      12.564   4.310 -13.914  1.00148.93    -0.171 OA
ENDROOT
BRANCH  10  12
HETATM   12  C18 MIQ B 502      12.953   1.433 -13.542  1.00139.82     0.187 C 
HETATM   13  C19 MIQ B 502      13.020   1.559 -15.069  1.00140.06     0.247 C 
HETATM   14  O25 MIQ B 502      14.074   1.583 -15.599  1.00143.95    -0.271 OA
HETATM   15  N20 MIQ B 502      11.824   1.645 -15.882  1.00140.02    -0.296 N 
HETATM   16  H13 MIQ B 502      11.882   1.733 -16.877  1.00142.77     0.171 HD
HETATM   17  C21 MIQ B 502      10.550   1.625 -15.211  1.00142.22     0.224 C 
HETATM   18  C22 MIQ B 502      10.491   2.274 -13.842  1.00139.52     0.106 C 
HETATM   19  O24 MIQ B 502       9.600   1.122 -15.703  1.00146.13    -0.273 OA
HETATM   20  C23 MIQ B 502      11.536   1.578 -12.989  1.00139.15     0.045 C 
ENDBRANCH  10  12
BRANCH   5  21
HETATM   21  N6  MIQ B 502      18.168   5.587  -9.983  1.00140.95    -0.377 N 
HETATM   22  C7  MIQ B 502      18.434   4.805  -8.788  1.00142.12     0.149 C 
HETATM   23  C8  MIQ B 502      19.192   5.609  -7.739  1.00144.10     0.187 C 
HETATM   24  O9  MIQ B 502      20.294   6.286  -8.266  1.00148.65    -0.388 OA
HETATM   25  C10 MIQ B 502      20.481   6.365  -9.649  1.00147.44     0.187 C 
HETATM   26  C11 MIQ B 502      19.252   6.368 -10.552  1.00144.08     0.149 C 
ENDBRANCH   5  21
TORSDOF 2
ENDMDL
MODEL 7
REMARK VINA RESULT:      -6.4     15.801     17.399
REMARK  2 active torsions:
REMARK  status: ('A' for Active; 'I' for Inactive)
REMARK    1  A    between atoms: C5_5  and  N6_21 
REMARK    2  A    between atoms: C18_14  and  N17_19 
ROOT
HETATM    1  O1  MIQ B 502      16.825   2.273 -11.713  1.00142.91    -0.171 OA
HETATM    2  C2  MIQ B 502      16.110   3.470 -11.788  1.00141.17     0.195 A 
HETATM    3  C3  MIQ B 502      14.712   3.669 -12.458  1.00141.71     0.035 A 
HETATM    4  C4  MIQ B 502      13.779   2.756 -13.158  1.00142.86     0.046 A 
HETATM    5  C5  MIQ B 502      12.549   3.242 -13.670  1.00139.53     0.031 A 
HETATM    6  C12 MIQ B 502      12.203   4.647 -13.507  1.00139.38     0.030 A 
HETATM    7  C13 MIQ B 502      13.098   5.523 -12.835  1.00141.18     0.019 A 
HETATM    8  C14 MIQ B 502      14.386   5.006 -12.297  1.00138.77     0.033 A 
HETATM    9  C15 MIQ B 502      15.587   5.640 -11.522  1.00142.10     0.195 A 
HETATM   10  N17 MIQ B 502      16.449   4.658 -11.318  1.00139.42    -0.288 N 
HETATM   11  O16 MIQ B 502      15.719   6.974 -11.131  1.00148.93    -0.171 OA
ENDROOT
BRANCH  10  12
HETATM   12  C18 MIQ B 502      17.707   4.885 -10.631  1.00139.82     0.187 C 
HETATM   13  C19 MIQ B 502      18.825   4.281 -11.490  1.00140.06     0.247 C 
HETATM   14  O25 MIQ B 502      18.889   4.564 -12.634  1.00143.95    -0.271 OA
HETATM   15  N20 MIQ B 502      19.809   3.374 -10.936  1.00140.02    -0.296 N 
HETATM   16  H13 MIQ B 502      20.530   2.981 -11.509  1.00142.77     0.171 HD
HETATM   17  C21 MIQ B 502      19.703   3.035  -9.540  1.00142.22     0.224 C 
HETATM   18  C22 MIQ B 502      18.303   2.957  -8.963  1.00139.52     0.106 C 
HETATM   19  O24 MIQ B 502      20.662   2.833  -8.879  1.00146.13    -0.273 OA
HETATM   20  C23 MIQ B 502      17.655   4.305  -9.219  1.00139.15     0.045 C 
ENDBRANCH  10  12
BRANCH   5  21
HETATM   21  N6  MIQ B 502      11.651   2.339 -14.367  1.00140.95    -0.377 N 
HETATM   22  C7  MIQ B 502      12.212   1.171 -15.024  1.00142.12     0.149 C 
HETATM   23  C8  MIQ B 502      11.349   0.706 -16.190  1.00144.10     0.187 C 
HETATM   24  O9  MIQ B 502       9.995   0.614 -15.862  1.00148.65    -0.388 OA
HETATM   25  C10 MIQ B 502       9.523   1.132 -14.654  1.00147.44     0.187 C 
HETATM   26  C11 MIQ B 502      10.233   2.340 -14.051  1.00144.08     0.149 C 
ENDBRANCH   5  21
TORSDOF 2
ENDMDL
MODEL 8
REMARK VINA RESULT:      -6.2     15.614     16.990
REMARK  2 active torsions:
REMARK  status: ('A' for Active; 'I' for Inactive)
REMARK    1  A    between atoms: C5_5  and  N6_21 
REMARK    2  A    between atoms: C18_14  and  N17_19 
ROOT
HETATM    1  O1  MIQ B 502      15.846   4.306 -11.759  1.00142.91    -0.171 OA
HETATM    2  C2  MIQ B 502      16.312   3.471 -12.777  1.00141.17     0.195 A 
HETATM    3  C3  MIQ B 502      15.432   2.675 -13.793  1.00141.71     0.035 A 
HETATM    4  C4  MIQ B 502      13.968   2.555 -13.997  1.00142.86     0.046 A 
HETATM    5  C5  MIQ B 502      13.455   1.734 -15.033  1.00139.53     0.031 A 
HETATM    6  C12 MIQ B 502      14.370   1.007 -15.900  1.00139.38     0.030 A 
HETATM    7  C13 MIQ B 502      15.773   1.123 -15.705  1.00141.18     0.019 A 
HETATM    8  C14 MIQ B 502      16.307   1.988 -14.618  1.00138.77     0.033 A 
HETATM    9  C15 MIQ B 502      17.739   2.360 -14.112  1.00142.10     0.195 A 
HETATM   10  N17 MIQ B 502      17.564   3.187 -13.095  1.00139.42    -0.288 N 
HETATM   11  O16 MIQ B 502      18.953   1.905 -14.631  1.00148.93    -0.171 OA
ENDROOT
BRANCH  10  12
HETATM   12  C18 MIQ B 502      18.689   3.732 -12.359  1.00139.82     0.187 C 
HETATM   13  C19 MIQ B 502      18.478   3.410 -10.875  1.00140.06     0.247 C 
HETATM   14  O25 MIQ B 502      18.239   2.301 -10.555  1.00143.95    -0.271 OA
HETATM   15  N20 MIQ B 502      18.570   4.431  -9.851  1.00140.02    -0.296 N 
HETATM   16  H13 MIQ B 502      18.423   4.209  -8.886  1.00142.77     0.171 HD
HETATM   17  C21 MIQ B 502      18.853   5.781 -10.268  1.00142.22     0.224 C 
HETATM   18  C22 MIQ B 502      18.294   6.210 -11.611  1.00139.52     0.106 C 
HETATM   19  O24 MIQ B 502      19.494   6.513  -9.597  1.00146.13    -0.273 OA
HETATM   20  C23 MIQ B 502      18.831   5.228 -12.636  1.00139.15     0.045 C 
ENDBRANCH  10  12
BRANCH   5  21
HETATM   21  N6  MIQ B 502      12.019   1.613 -15.212  1.00140.95    -0.377 N 
HETATM   22  C7  MIQ B 502      11.506   0.484 -15.969  1.00142.12     0.149 C 
HETATM   23  C8  MIQ B 502      10.163   0.796 -16.615  1.00144.10     0.187 C 
HETATM   24  O9  MIQ B 502       9.256   1.382 -15.729  1.00148.65    -0.388 OA
HETATM   25  C10 MIQ B 502       9.679   1.822 -14.472  1.00147.44     0.187 C 
HETATM   26  C11 MIQ B 502      11.115   2.312 -14.316  1.00144.08     0.149 C 
ENDBRANCH   5  21
TORSDOF 2
ENDMDL
MODEL 9
REMARK VINA RESULT:      -6.2     15.340     17.861
REMARK  2 active torsions:
REMARK  status: ('A' for Active; 'I' for Inactive)
REMARK    1  A    between atoms: C5_5  and  N6_21 
REMARK    2  A    between atoms: C18_14  and  N17_19 
ROOT
HETATM    1  O1  MIQ B 502      17.505   5.869 -10.478  1.00142.91    -0.171 OA
HETATM    2  C2  MIQ B 502      17.834   4.528 -10.687  1.00141.17     0.195 A 
HETATM    3  C3  MIQ B 502      16.944   3.461 -11.402  1.00141.71     0.035 A 
HETATM    4  C4  MIQ B 502      15.603   3.509 -12.031  1.00142.86     0.046 A 
HETATM    5  C5  MIQ B 502      15.044   2.345 -12.616  1.00139.53     0.031 A 
HETATM    6  C12 MIQ B 502      15.792   1.096 -12.598  1.00139.38     0.030 A 
HETATM    7  C13 MIQ B 502      17.079   1.050 -11.996  1.00141.18     0.019 A 
HETATM    8  C14 MIQ B 502      17.662   2.276 -11.385  1.00138.77     0.033 A 
HETATM    9  C15 MIQ B 502      19.005   2.610 -10.657  1.00142.10     0.195 A 
HETATM   10  N17 MIQ B 502      18.940   3.892 -10.340  1.00139.42    -0.288 N 
HETATM   11  O16 MIQ B 502      20.054   1.728 -10.395  1.00148.93    -0.171 OA
ENDROOT
BRANCH  10  12
HETATM   12  C18 MIQ B 502      20.019   4.552  -9.630  1.00139.82     0.187 C 
HETATM   13  C19 MIQ B 502      19.420   5.226  -8.389  1.00140.06     0.247 C 
HETATM   14  O25 MIQ B 502      18.738   4.594  -7.664  1.00143.95    -0.271 OA
HETATM   15  N20 MIQ B 502      19.673   6.618  -8.078  1.00140.02    -0.296 N 
HETATM   16  H13 MIQ B 502      19.270   7.047  -7.269  1.00142.77     0.171 HD
HETATM   17  C21 MIQ B 502      20.500   7.372  -8.985  1.00142.22     0.224 C 
HETATM   18  C22 MIQ B 502      20.409   7.007 -10.454  1.00139.52     0.106 C 
HETATM   19  O24 MIQ B 502      21.218   8.227  -8.599  1.00146.13    -0.273 OA
HETATM   20  C23 MIQ B 502      20.743   5.530 -10.554  1.00139.15     0.045 C 
ENDBRANCH  10  12
BRANCH   5  21
HETATM   21  N6  MIQ B 502      13.723   2.402 -13.215  1.00140.95    -0.377 N 
HETATM   22  C7  MIQ B 502      13.056   3.690 -13.303  1.00142.12     0.149 C 
HETATM   23  C8  MIQ B 502      11.540   3.544 -13.324  1.00144.10     0.187 C 
HETATM   24  O9  MIQ B 502      11.099   2.580 -14.233  1.00148.65    -0.388 OA
HETATM   25  C10 MIQ B 502      12.010   1.718 -14.847  1.00147.44     0.187 C 
HETATM   26  C11 MIQ B 502      13.275   1.331 -14.087  1.00144.08     0.149 C 
ENDBRANCH   5  21
TORSDOF 2
ENDMDL
