MODEL 1
REMARK VINA RESULT:      -7.1      0.000      0.000
REMARK  2 active torsions:
REMARK  status: ('A' for Active; 'I' for Inactive)
REMARK    1  A    between atoms: C5_5  and  N6_21 
REMARK    2  A    between atoms: C18_14  and  N17_19 
ROOT
HETATM    1  O1  MIQ B 502     -21.275   0.690 -18.968  1.00142.91    -0.171 OA
HETATM    2  C2  MIQ B 502     -21.645   0.757 -20.313  1.00141.17     0.195 A 
HETATM    3  C3  MIQ B 502     -20.903   0.079 -21.509  1.00141.71     0.035 A 
HETATM    4  C4  MIQ B 502     -19.693  -0.771 -21.607  1.00142.86     0.046 A 
HETATM    5  C5  MIQ B 502     -19.253  -1.250 -22.867  1.00139.53     0.031 A 
HETATM    6  C12 MIQ B 502     -19.996  -0.904 -24.070  1.00139.38     0.030 A 
HETATM    7  C13 MIQ B 502     -21.157  -0.090 -23.976  1.00141.18     0.019 A 
HETATM    8  C14 MIQ B 502     -21.615   0.408 -22.650  1.00138.77     0.033 A 
HETATM    9  C15 MIQ B 502     -22.806   1.294 -22.161  1.00142.10     0.195 A 
HETATM   10  N17 MIQ B 502     -22.677   1.387 -20.847  1.00139.42    -0.288 N 
HETATM   11  O16 MIQ B 502     -23.800   1.871 -22.954  1.00148.93    -0.171 OA
ENDROOT
BRANCH  10  12
HETATM   12  C18 MIQ B 502     -23.610   2.158 -20.047  1.00139.82     0.187 C 
HETATM   13  C19 MIQ B 502     -22.792   3.066 -19.121  1.00140.06     0.247 C 
HETATM   14  O25 MIQ B 502     -21.943   3.743 -19.581  1.00143.95    -0.271 OA
HETATM   15  N20 MIQ B 502     -23.037   3.121 -17.694  1.00140.02    -0.296 N 
HETATM   16  H13 MIQ B 502     -22.492   3.714 -17.099  1.00142.77     0.171 HD
HETATM   17  C21 MIQ B 502     -24.072   2.278 -17.154  1.00142.22     0.224 C 
HETATM   18  C22 MIQ B 502     -24.278   0.936 -17.830  1.00139.52     0.106 C 
HETATM   19  O24 MIQ B 502     -24.730   2.619 -16.234  1.00146.13    -0.273 OA
HETATM   20  C23 MIQ B 502     -24.558   1.227 -19.293  1.00139.15     0.045 C 
ENDBRANCH  10  12
BRANCH   5  21
HETATM   21  N6  MIQ B 502     -18.058  -2.070 -22.950  1.00140.95    -0.377 N 
HETATM   22  C7  MIQ B 502     -17.608  -2.764 -21.756  1.00142.12     0.149 C 
HETATM   23  C8  MIQ B 502     -16.107  -3.021 -21.779  1.00144.10     0.187 C 
HETATM   24  O9  MIQ B 502     -15.668  -3.565 -22.988  1.00148.65    -0.388 OA
HETATM   25  C10 MIQ B 502     -16.522  -3.620 -24.092  1.00147.44     0.187 C 
HETATM   26  C11 MIQ B 502     -17.591  -2.542 -24.241  1.00144.08     0.149 C 
ENDBRANCH   5  21
TORSDOF 2
ENDMDL
MODEL 2
REMARK VINA RESULT:      -6.7      1.402      2.504
REMARK  2 active torsions:
REMARK  status: ('A' for Active; 'I' for Inactive)
REMARK    1  A    between atoms: C5_5  and  N6_21 
REMARK    2  A    between atoms: C18_14  and  N17_19 
ROOT
HETATM    1  O1  MIQ B 502     -21.931   1.315 -23.660  1.00142.91    -0.171 OA
HETATM    2  C2  MIQ B 502     -21.639   0.963 -22.341  1.00141.17     0.195 A 
HETATM    3  C3  MIQ B 502     -20.516  -0.017 -21.875  1.00141.71     0.035 A 
HETATM    4  C4  MIQ B 502     -19.494  -0.812 -22.595  1.00142.86     0.046 A 
HETATM    5  C5  MIQ B 502     -18.586  -1.632 -21.878  1.00139.53     0.031 A 
HETATM    6  C12 MIQ B 502     -18.660  -1.691 -20.425  1.00139.38     0.030 A 
HETATM    7  C13 MIQ B 502     -19.639  -0.928 -19.734  1.00141.18     0.019 A 
HETATM    8  C14 MIQ B 502     -20.588  -0.068 -20.492  1.00138.77     0.033 A 
HETATM    9  C15 MIQ B 502     -21.761   0.887 -20.098  1.00142.10     0.195 A 
HETATM   10  N17 MIQ B 502     -22.231   1.376 -21.233  1.00139.42    -0.288 N 
HETATM   11  O16 MIQ B 502     -22.218   1.162 -18.807  1.00148.93    -0.171 OA
ENDROOT
BRANCH  10  12
HETATM   12  C18 MIQ B 502     -23.351   2.299 -21.255  1.00139.82     0.187 C 
HETATM   13  C19 MIQ B 502     -23.059   3.412 -20.241  1.00140.06     0.247 C 
HETATM   14  O25 MIQ B 502     -22.023   3.975 -20.287  1.00143.95    -0.271 OA
HETATM   15  N20 MIQ B 502     -24.023   3.798 -19.231  1.00140.02    -0.296 N 
HETATM   16  H13 MIQ B 502     -23.817   4.522 -18.571  1.00142.77     0.171 HD
HETATM   17  C21 MIQ B 502     -25.275   3.089 -19.188  1.00142.22     0.224 C 
HETATM   18  C22 MIQ B 502     -25.242   1.622 -19.574  1.00139.52     0.106 C 
HETATM   19  O24 MIQ B 502     -26.280   3.627 -18.874  1.00146.13    -0.273 OA
HETATM   20  C23 MIQ B 502     -24.657   1.558 -20.973  1.00139.15     0.045 C 
ENDBRANCH  10  12
BRANCH   5  21
HETATM   21  N6  MIQ B 502     -17.600  -2.416 -22.597  1.00140.95    -0.377 N 
HETATM   22  C7  MIQ B 502     -17.455  -2.208 -24.028  1.00142.12     0.149 C 
HETATM   23  C8  MIQ B 502     -16.922  -3.449 -24.733  1.00144.10     0.187 C 
HETATM   24  O9  MIQ B 502     -15.810  -4.000 -24.095  1.00148.65    -0.388 OA
HETATM   25  C10 MIQ B 502     -15.427  -3.554 -22.827  1.00147.44     0.187 C 
HETATM   26  C11 MIQ B 502     -16.506  -3.044 -21.877  1.00144.08     0.149 C 
ENDBRANCH   5  21
TORSDOF 2
ENDMDL
MODEL 3
REMARK VINA RESULT:      -6.5      1.850      2.273
REMARK  2 active torsions:
REMARK  status: ('A' for Active; 'I' for Inactive)
REMARK    1  A    between atoms: C5_5  and  N6_21 
REMARK    2  A    between atoms: C18_14  and  N17_19 
ROOT
HETATM    1  O1  MIQ B 502     -21.144   1.666 -18.378  1.00142.91    -0.171 OA
HETATM    2  C2  MIQ B 502     -21.799   1.521 -19.603  1.00141.17     0.195 A 
HETATM    3  C3  MIQ B 502     -21.306   0.670 -20.817  1.00141.71     0.035 A 
HETATM    4  C4  MIQ B 502     -20.112  -0.177 -21.050  1.00142.86     0.046 A 
HETATM    5  C5  MIQ B 502     -19.937  -0.844 -22.289  1.00139.53     0.031 A 
HETATM    6  C12 MIQ B 502     -20.937  -0.695 -23.337  1.00139.38     0.030 A 
HETATM    7  C13 MIQ B 502     -22.082   0.116 -23.114  1.00141.18     0.019 A 
HETATM    8  C14 MIQ B 502     -22.262   0.812 -21.810  1.00138.77     0.033 A 
HETATM    9  C15 MIQ B 502     -23.354   1.755 -21.209  1.00142.10     0.195 A 
HETATM   10  N17 MIQ B 502     -22.947   2.052 -19.986  1.00139.42    -0.288 N 
HETATM   11  O16 MIQ B 502     -24.519   2.194 -21.841  1.00148.93    -0.171 OA
ENDROOT
BRANCH  10  12
HETATM   12  C18 MIQ B 502     -23.716   2.932 -19.125  1.00139.82     0.187 C 
HETATM   13  C19 MIQ B 502     -25.147   2.386 -19.057  1.00140.06     0.247 C 
HETATM   14  O25 MIQ B 502     -25.319   1.250 -18.790  1.00143.95    -0.271 OA
HETATM   15  N20 MIQ B 502     -26.299   3.230 -19.305  1.00140.02    -0.296 N 
HETATM   16  H13 MIQ B 502     -27.228   2.860 -19.264  1.00142.77     0.171 HD
HETATM   17  C21 MIQ B 502     -26.064   4.611 -19.639  1.00142.22     0.224 C 
HETATM   18  C22 MIQ B 502     -24.812   4.915 -20.438  1.00139.52     0.106 C 
HETATM   19  O24 MIQ B 502     -26.809   5.464 -19.301  1.00146.13    -0.273 OA
HETATM   20  C23 MIQ B 502     -23.644   4.370 -19.635  1.00139.15     0.045 C 
ENDBRANCH  10  12
BRANCH   5  21
HETATM   21  N6  MIQ B 502     -18.756  -1.658 -22.509  1.00140.95    -0.377 N 
HETATM   22  C7  MIQ B 502     -18.373  -2.617 -21.486  1.00142.12     0.149 C 
HETATM   23  C8  MIQ B 502     -16.877  -2.905 -21.509  1.00144.10     0.187 C 
HETATM   24  O9  MIQ B 502     -16.395  -3.176 -22.791  1.00148.65    -0.388 OA
HETATM   25  C10 MIQ B 502     -17.201  -2.955 -23.911  1.00147.44     0.187 C 
HETATM   26  C11 MIQ B 502     -18.240  -1.841 -23.854  1.00144.08     0.149 C 
ENDBRANCH   5  21
TORSDOF 2
ENDMDL
MODEL 4
REMARK VINA RESULT:      -6.5      1.960      3.462
REMARK  2 active torsions:
REMARK  status: ('A' for Active; 'I' for Inactive)
REMARK    1  A    between atoms: C5_5  and  N6_21 
REMARK    2  A    between atoms: C18_14  and  N17_19 
ROOT
HETATM    1  O1  MIQ B 502     -22.140   2.309 -22.854  1.00142.91    -0.171 OA
HETATM    2  C2  MIQ B 502     -21.666   1.648 -21.718  1.00141.17     0.195 A 
HETATM    3  C3  MIQ B 502     -20.665   0.449 -21.700  1.00141.71     0.035 A 
HETATM    4  C4  MIQ B 502     -19.957  -0.304 -22.762  1.00142.86     0.046 A 
HETATM    5  C5  MIQ B 502     -19.087  -1.372 -22.426  1.00139.53     0.031 A 
HETATM    6  C12 MIQ B 502     -18.889  -1.728 -21.028  1.00139.38     0.030 A 
HETATM    7  C13 MIQ B 502     -19.566  -1.006 -20.009  1.00141.18     0.019 A 
HETATM    8  C14 MIQ B 502     -20.476   0.116 -20.369  1.00138.77     0.033 A 
HETATM    9  C15 MIQ B 502     -21.365   1.114 -19.556  1.00142.10     0.195 A 
HETATM   10  N17 MIQ B 502     -21.951   1.892 -20.451  1.00139.42    -0.288 N 
HETATM   11  O16 MIQ B 502     -21.508   1.166 -18.169  1.00148.93    -0.171 OA
ENDROOT
BRANCH  10  12
HETATM   12  C18 MIQ B 502     -22.873   2.940 -20.054  1.00139.82     0.187 C 
HETATM   13  C19 MIQ B 502     -24.178   2.735 -20.834  1.00140.06     0.247 C 
HETATM   14  O25 MIQ B 502     -24.691   1.672 -20.829  1.00143.95    -0.271 OA
HETATM   15  N20 MIQ B 502     -24.804   3.812 -21.573  1.00140.02    -0.296 N 
HETATM   16  H13 MIQ B 502     -25.652   3.663 -22.083  1.00142.77     0.171 HD
HETATM   17  C21 MIQ B 502     -24.153   5.097 -21.573  1.00142.22     0.224 C 
HETATM   18  C22 MIQ B 502     -22.638   5.093 -21.526  1.00139.52     0.106 C 
HETATM   19  O24 MIQ B 502     -24.773   6.103 -21.602  1.00146.13    -0.273 OA
HETATM   20  C23 MIQ B 502     -22.246   4.314 -20.283  1.00139.15     0.045 C 
ENDBRANCH  10  12
BRANCH   5  21
HETATM   21  N6  MIQ B 502     -18.412  -2.110 -23.477  1.00140.95    -0.377 N 
HETATM   22  C7  MIQ B 502     -18.590  -1.679 -24.853  1.00142.12     0.149 C 
HETATM   23  C8  MIQ B 502     -18.407  -2.827 -25.837  1.00144.10     0.187 C 
HETATM   24  O9  MIQ B 502     -17.254  -3.576 -25.590  1.00148.65    -0.388 OA
HETATM   25  C10 MIQ B 502     -16.524  -3.384 -24.414  1.00147.44     0.187 C 
HETATM   26  C11 MIQ B 502     -17.267  -2.945 -23.157  1.00144.08     0.149 C 
ENDBRANCH   5  21
TORSDOF 2
ENDMDL
MODEL 5
REMARK VINA RESULT:      -6.4      1.612      2.596
REMARK  2 active torsions:
REMARK  status: ('A' for Active; 'I' for Inactive)
REMARK    1  A    between atoms: C5_5  and  N6_21 
REMARK    2  A    between atoms: C18_14  and  N17_19 
ROOT
HETATM    1  O1  MIQ B 502     -21.527   2.705 -22.442  1.00142.91    -0.171 OA
HETATM    2  C2  MIQ B 502     -21.213   1.627 -21.612  1.00141.17     0.195 A 
HETATM    3  C3  MIQ B 502     -20.256   0.443 -21.961  1.00141.71     0.035 A 
HETATM    4  C4  MIQ B 502     -19.446   0.105 -23.155  1.00142.86     0.046 A 
HETATM    5  C5  MIQ B 502     -18.653  -1.070 -23.175  1.00139.53     0.031 A 
HETATM    6  C12 MIQ B 502     -18.635  -1.949 -22.014  1.00139.38     0.030 A 
HETATM    7  C13 MIQ B 502     -19.411  -1.625 -20.869  1.00141.18     0.019 A 
HETATM    8  C14 MIQ B 502     -20.239  -0.389 -20.853  1.00138.77     0.033 A 
HETATM    9  C15 MIQ B 502     -21.191   0.283 -19.810  1.00142.10     0.195 A 
HETATM   10  N17 MIQ B 502     -21.643   1.385 -20.386  1.00139.42    -0.288 N 
HETATM   11  O16 MIQ B 502     -21.501  -0.190 -18.534  1.00148.93    -0.171 OA
ENDROOT
BRANCH  10  12
HETATM   12  C18 MIQ B 502     -22.577   2.265 -19.708  1.00139.82     0.187 C 
HETATM   13  C19 MIQ B 502     -22.068   2.474 -18.276  1.00140.06     0.247 C 
HETATM   14  O25 MIQ B 502     -20.949   2.804 -18.105  1.00143.95    -0.271 OA
HETATM   15  N20 MIQ B 502     -22.927   2.282 -17.125  1.00140.02    -0.296 N 
HETATM   16  H13 MIQ B 502     -22.581   2.415 -16.195  1.00142.77     0.171 HD
HETATM   17  C21 MIQ B 502     -24.286   1.869 -17.359  1.00142.22     0.224 C 
HETATM   18  C22 MIQ B 502     -24.527   0.958 -18.548  1.00139.52     0.106 C 
HETATM   19  O24 MIQ B 502     -25.170   2.228 -16.662  1.00146.13    -0.273 OA
HETATM   20  C23 MIQ B 502     -23.990   1.687 -19.766  1.00139.15     0.045 C 
ENDBRANCH  10  12
BRANCH   5  21
HETATM   21  N6  MIQ B 502     -17.876  -1.396 -24.357  1.00140.95    -0.377 N 
HETATM   22  C7  MIQ B 502     -18.362  -2.442 -25.241  1.00142.12     0.149 C 
HETATM   23  C8  MIQ B 502     -17.229  -3.109 -26.010  1.00144.10     0.187 C 
HETATM   24  O9  MIQ B 502     -16.355  -2.191 -26.595  1.00148.65    -0.388 OA
HETATM   25  C10 MIQ B 502     -16.435  -0.833 -26.273  1.00147.44     0.187 C 
HETATM   26  C11 MIQ B 502     -16.915  -0.441 -24.880  1.00144.08     0.149 C 
ENDBRANCH   5  21
TORSDOF 2
ENDMDL
MODEL 6
REMARK VINA RESULT:      -6.3      2.503      9.463
REMARK  2 active torsions:
REMARK  status: ('A' for Active; 'I' for Inactive)
REMARK    1  A    between atoms: C5_5  and  N6_21 
REMARK    2  A    between atoms: C18_14  and  N17_19 
ROOT
HETATM    1  O1  MIQ B 502     -17.765  -1.041 -25.827  1.00142.91    -0.171 OA
HETATM    2  C2  MIQ B 502     -17.408  -1.699 -24.647  1.00141.17     0.195 A 
HETATM    3  C3  MIQ B 502     -18.114  -1.556 -23.262  1.00141.71     0.035 A 
HETATM    4  C4  MIQ B 502     -19.274  -0.764 -22.786  1.00142.86     0.046 A 
HETATM    5  C5  MIQ B 502     -19.692  -0.847 -21.434  1.00139.53     0.031 A 
HETATM    6  C12 MIQ B 502     -18.977  -1.714 -20.508  1.00139.38     0.030 A 
HETATM    7  C13 MIQ B 502     -17.866  -2.474 -20.964  1.00141.18     0.019 A 
HETATM    8  C14 MIQ B 502     -17.434  -2.385 -22.386  1.00138.77     0.033 A 
HETATM    9  C15 MIQ B 502     -16.298  -3.048 -23.233  1.00142.10     0.195 A 
HETATM   10  N17 MIQ B 502     -16.426  -2.564 -24.457  1.00139.42    -0.288 N 
HETATM   11  O16 MIQ B 502     -15.344  -3.961 -22.782  1.00148.93    -0.171 OA
ENDROOT
BRANCH  10  12
HETATM   12  C18 MIQ B 502     -15.520  -2.950 -25.523  1.00139.82     0.187 C 
HETATM   13  C19 MIQ B 502     -15.419  -4.480 -25.519  1.00140.06     0.247 C 
HETATM   14  O25 MIQ B 502     -16.408  -5.123 -25.527  1.00143.95    -0.271 OA
HETATM   15  N20 MIQ B 502     -14.141  -5.161 -25.511  1.00140.02    -0.296 N 
HETATM   16  H13 MIQ B 502     -14.088  -6.161 -25.501  1.00142.77     0.171 HD
HETATM   17  C21 MIQ B 502     -12.947  -4.355 -25.490  1.00142.22     0.224 C 
HETATM   18  C22 MIQ B 502     -13.025  -3.043 -24.734  1.00139.52     0.106 C 
HETATM   19  O24 MIQ B 502     -11.960  -4.699 -26.040  1.00146.13    -0.273 OA
HETATM   20  C23 MIQ B 502     -14.169  -2.258 -25.349  1.00139.15     0.045 C 
ENDBRANCH  10  12
BRANCH   5  21
HETATM   21  N6  MIQ B 502     -20.820  -0.055 -20.978  1.00140.95    -0.377 N 
HETATM   22  C7  MIQ B 502     -20.785   0.494 -19.634  1.00142.12     0.149 C 
HETATM   23  C8  MIQ B 502     -22.184   0.712 -19.072  1.00144.10     0.187 C 
HETATM   24  O9  MIQ B 502     -23.032   1.372 -19.965  1.00148.65    -0.388 OA
HETATM   25  C10 MIQ B 502     -22.646   1.568 -21.293  1.00147.44     0.187 C 
HETATM   26  C11 MIQ B 502     -21.726   0.541 -21.945  1.00144.08     0.149 C 
ENDBRANCH   5  21
TORSDOF 2
ENDMDL
MODEL 7
REMARK VINA RESULT:      -6.3      2.048      3.370
REMARK  2 active torsions:
REMARK  status: ('A' for Active; 'I' for Inactive)
REMARK    1  A    between atoms: C5_5  and  N6_21 
REMARK    2  A    between atoms: C18_14  and  N17_19 
ROOT
HETATM    1  O1  MIQ B 502     -23.256   1.993 -22.230  1.00142.91    -0.171 OA
HETATM    2  C2  MIQ B 502     -22.470   1.507 -21.183  1.00141.17     0.195 A 
HETATM    3  C3  MIQ B 502     -21.293   0.488 -21.310  1.00141.71     0.035 A 
HETATM    4  C4  MIQ B 502     -20.680  -0.223 -22.457  1.00142.86     0.046 A 
HETATM    5  C5  MIQ B 502     -19.591  -1.108 -22.253  1.00139.53     0.031 A 
HETATM    6  C12 MIQ B 502     -19.073  -1.318 -20.909  1.00139.38     0.030 A 
HETATM    7  C13 MIQ B 502     -19.660  -0.636 -19.809  1.00141.18     0.019 A 
HETATM    8  C14 MIQ B 502     -20.801   0.294 -20.030  1.00138.77     0.033 A 
HETATM    9  C15 MIQ B 502     -21.678   1.197 -19.102  1.00142.10     0.195 A 
HETATM   10  N17 MIQ B 502     -22.548   1.800 -19.896  1.00139.42    -0.288 N 
HETATM   11  O16 MIQ B 502     -21.563   1.334 -17.718  1.00148.93    -0.171 OA
ENDROOT
BRANCH  10  12
HETATM   12  C18 MIQ B 502     -23.544   2.715 -19.372  1.00139.82     0.187 C 
HETATM   13  C19 MIQ B 502     -24.916   2.255 -19.881  1.00140.06     0.247 C 
HETATM   14  O25 MIQ B 502     -25.235   1.128 -19.739  1.00143.95    -0.271 OA
HETATM   15  N20 MIQ B 502     -25.836   3.168 -20.528  1.00140.02    -0.296 N 
HETATM   16  H13 MIQ B 502     -26.725   2.854 -20.862  1.00142.77     0.171 HD
HETATM   17  C21 MIQ B 502     -25.419   4.536 -20.699  1.00142.22     0.224 C 
HETATM   18  C22 MIQ B 502     -23.941   4.773 -20.941  1.00139.52     0.106 C 
HETATM   19  O24 MIQ B 502     -26.193   5.428 -20.648  1.00146.13    -0.273 OA
HETATM   20  C23 MIQ B 502     -23.207   4.152 -19.767  1.00139.15     0.045 C 
ENDBRANCH  10  12
BRANCH   5  21
HETATM   21  N6  MIQ B 502     -19.010  -1.809 -23.383  1.00140.95    -0.377 N 
HETATM   22  C7  MIQ B 502     -19.360  -1.374 -24.725  1.00142.12     0.149 C 
HETATM   23  C8  MIQ B 502     -19.243  -2.505 -25.738  1.00144.10     0.187 C 
HETATM   24  O9  MIQ B 502     -18.041  -3.207 -25.633  1.00148.65    -0.388 OA
HETATM   25  C10 MIQ B 502     -17.191  -2.996 -24.544  1.00147.44     0.187 C 
HETATM   26  C11 MIQ B 502     -17.804  -2.599 -23.206  1.00144.08     0.149 C 
ENDBRANCH   5  21
TORSDOF 2
ENDMDL
MODEL 8
REMARK VINA RESULT:      -6.2      2.135      3.786
REMARK  2 active torsions:
REMARK  status: ('A' for Active; 'I' for Inactive)
REMARK    1  A    between atoms: C5_5  and  N6_21 
REMARK    2  A    between atoms: C18_14  and  N17_19 
ROOT
HETATM    1  O1  MIQ B 502     -21.219   1.694 -23.642  1.00142.91    -0.171 OA
HETATM    2  C2  MIQ B 502     -21.032   1.132 -22.377  1.00141.17     0.195 A 
HETATM    3  C3  MIQ B 502     -20.033  -0.013 -22.016  1.00141.71     0.035 A 
HETATM    4  C4  MIQ B 502     -19.055  -0.799 -22.805  1.00142.86     0.046 A 
HETATM    5  C5  MIQ B 502     -18.268  -1.799 -22.180  1.00139.53     0.031 A 
HETATM    6  C12 MIQ B 502     -18.423  -2.055 -20.755  1.00139.38     0.030 A 
HETATM    7  C13 MIQ B 502     -19.360  -1.301 -19.998  1.00141.18     0.019 A 
HETATM    8  C14 MIQ B 502     -20.182  -0.251 -20.659  1.00138.77     0.033 A 
HETATM    9  C15 MIQ B 502     -21.278   0.754 -20.175  1.00142.10     0.195 A 
HETATM   10  N17 MIQ B 502     -21.639   1.443 -21.245  1.00139.42    -0.288 N 
HETATM   11  O16 MIQ B 502     -21.773   0.889 -18.877  1.00148.93    -0.171 OA
ENDROOT
BRANCH  10  12
HETATM   12  C18 MIQ B 502     -22.663   2.469 -21.175  1.00139.82     0.187 C 
HETATM   13  C19 MIQ B 502     -23.706   2.164 -22.257  1.00140.06     0.247 C 
HETATM   14  O25 MIQ B 502     -24.171   1.082 -22.320  1.00143.95    -0.271 OA
HETATM   15  N20 MIQ B 502     -24.142   3.171 -23.203  1.00140.02    -0.296 N 
HETATM   16  H13 MIQ B 502     -24.819   2.957 -23.908  1.00142.77     0.171 HD
HETATM   17  C21 MIQ B 502     -23.553   4.482 -23.112  1.00142.22     0.224 C 
HETATM   18  C22 MIQ B 502     -22.105   4.548 -22.666  1.00139.52     0.106 C 
HETATM   19  O24 MIQ B 502     -24.170   5.456 -23.368  1.00146.13    -0.273 OA
HETATM   20  C23 MIQ B 502     -22.037   3.856 -21.317  1.00139.15     0.045 C 
ENDBRANCH  10  12
BRANCH   5  21
HETATM   21  N6  MIQ B 502     -17.325  -2.571 -22.968  1.00140.95    -0.377 N 
HETATM   22  C7  MIQ B 502     -17.289  -2.366 -24.406  1.00142.12     0.149 C 
HETATM   23  C8  MIQ B 502     -16.789  -3.601 -25.144  1.00144.10     0.187 C 
HETATM   24  O9  MIQ B 502     -15.624  -4.132 -24.588  1.00148.65    -0.388 OA
HETATM   25  C10 MIQ B 502     -15.157  -3.675 -23.353  1.00147.44     0.187 C 
HETATM   26  C11 MIQ B 502     -16.171  -3.178 -22.328  1.00144.08     0.149 C 
ENDBRANCH   5  21
TORSDOF 2
ENDMDL
MODEL 9
REMARK VINA RESULT:      -6.2      2.672      9.583
REMARK  2 active torsions:
REMARK  status: ('A' for Active; 'I' for Inactive)
REMARK    1  A    between atoms: C5_5  and  N6_21 
REMARK    2  A    between atoms: C18_14  and  N17_19 
ROOT
HETATM    1  O1  MIQ B 502     -15.490  -3.116 -21.424  1.00142.91    -0.171 OA
HETATM    2  C2  MIQ B 502     -16.167  -3.121 -22.646  1.00141.17     0.195 A 
HETATM    3  C3  MIQ B 502     -17.535  -2.428 -22.944  1.00141.71     0.035 A 
HETATM    4  C4  MIQ B 502     -18.469  -1.621 -22.124  1.00142.86     0.046 A 
HETATM    5  C5  MIQ B 502     -19.665  -1.113 -22.691  1.00139.53     0.031 A 
HETATM    6  C12 MIQ B 502     -19.977  -1.387 -24.087  1.00139.38     0.030 A 
HETATM    7  C13 MIQ B 502     -19.081  -2.160 -24.874  1.00141.18     0.019 A 
HETATM    8  C14 MIQ B 502     -17.825  -2.689 -24.274  1.00138.77     0.033 A 
HETATM    9  C15 MIQ B 502     -16.631  -3.547 -24.803  1.00142.10     0.195 A 
HETATM   10  N17 MIQ B 502     -15.804  -3.692 -23.781  1.00139.42    -0.288 N 
HETATM   11  O16 MIQ B 502     -16.475  -4.057 -26.093  1.00148.93    -0.171 OA
ENDROOT
BRANCH  10  12
HETATM   12  C18 MIQ B 502     -14.576  -4.456 -23.902  1.00139.82     0.187 C 
HETATM   13  C19 MIQ B 502     -13.803  -3.910 -25.109  1.00140.06     0.247 C 
HETATM   14  O25 MIQ B 502     -13.609  -2.749 -25.192  1.00143.95    -0.271 OA
HETATM   15  N20 MIQ B 502     -13.297  -4.781 -26.150  1.00140.02    -0.296 N 
HETATM   16  H13 MIQ B 502     -12.799  -4.412 -26.936  1.00142.77     0.171 HD
HETATM   17  C21 MIQ B 502     -13.555  -6.193 -26.032  1.00142.22     0.224 C 
HETATM   18  C22 MIQ B 502     -14.867  -6.594 -25.386  1.00139.52     0.106 C 
HETATM   19  O24 MIQ B 502     -12.779  -6.998 -26.416  1.00146.13    -0.273 OA
HETATM   20  C23 MIQ B 502     -14.887  -5.948 -24.012  1.00139.15     0.045 C 
ENDBRANCH  10  12
BRANCH   5  21
HETATM   21  N6  MIQ B 502     -20.578  -0.336 -21.873  1.00140.95    -0.377 N 
HETATM   22  C7  MIQ B 502     -20.109   0.162 -20.591  1.00142.12     0.149 C 
HETATM   23  C8  MIQ B 502     -21.253   0.362 -19.605  1.00144.10     0.187 C 
HETATM   24  O9  MIQ B 502     -22.331   1.057 -20.158  1.00148.65    -0.388 OA
HETATM   25  C10 MIQ B 502     -22.385   1.303 -21.532  1.00147.44     0.187 C 
HETATM   26  C11 MIQ B 502     -21.735   0.299 -22.479  1.00144.08     0.149 C 
ENDBRANCH   5  21
TORSDOF 2
ENDMDL
