MODEL 1
REMARK VINA RESULT:      -6.8      0.000      0.000
REMARK  2 active torsions:
REMARK  status: ('A' for Active; 'I' for Inactive)
REMARK    1  A    between atoms: C5_5  and  N6_21 
REMARK    2  A    between atoms: C18_14  and  N17_19 
ROOT
HETATM    1  O1  MIQ B 502     -16.529   4.795   1.319  1.00142.91    -0.171 OA
HETATM    2  C2  MIQ B 502     -17.487   5.637   0.751  1.00141.17     0.195 A 
HETATM    3  C3  MIQ B 502     -17.317   6.483  -0.551  1.00141.71     0.035 A 
HETATM    4  C4  MIQ B 502     -16.205   6.655  -1.516  1.00142.86     0.046 A 
HETATM    5  C5  MIQ B 502     -16.353   7.514  -2.634  1.00139.53     0.031 A 
HETATM    6  C12 MIQ B 502     -17.604   8.231  -2.834  1.00139.38     0.030 A 
HETATM    7  C13 MIQ B 502     -18.670   8.066  -1.909  1.00141.18     0.019 A 
HETATM    8  C14 MIQ B 502     -18.510   7.161  -0.739  1.00138.77     0.033 A 
HETATM    9  C15 MIQ B 502     -19.428   6.733   0.453  1.00142.10     0.195 A 
HETATM   10  N17 MIQ B 502     -18.713   5.889   1.179  1.00139.42    -0.288 N 
HETATM   11  O16 MIQ B 502     -20.734   7.160   0.698  1.00148.93    -0.171 OA
ENDROOT
BRANCH  10  12
HETATM   12  C18 MIQ B 502     -19.245   5.292   2.390  1.00139.82     0.187 C 
HETATM   13  C19 MIQ B 502     -18.261   5.585   3.528  1.00140.06     0.247 C 
HETATM   14  O25 MIQ B 502     -17.900   6.694   3.706  1.00143.95    -0.271 OA
HETATM   15  N20 MIQ B 502     -17.764   4.538   4.397  1.00140.02    -0.296 N 
HETATM   16  H13 MIQ B 502     -17.117   4.742   5.133  1.00142.77     0.171 HD
HETATM   17  C21 MIQ B 502     -18.211   3.191   4.154  1.00142.22     0.224 C 
HETATM   18  C22 MIQ B 502     -18.472   2.810   2.709  1.00139.52     0.106 C 
HETATM   19  O24 MIQ B 502     -18.371   2.424   5.038  1.00146.13    -0.273 OA
HETATM   20  C23 MIQ B 502     -19.496   3.799   2.181  1.00139.15     0.045 C 
ENDBRANCH  10  12
BRANCH   5  21
HETATM   21  N6  MIQ B 502     -15.251   7.684  -3.563  1.00140.95    -0.377 N 
HETATM   22  C7  MIQ B 502     -14.997   6.638  -4.538  1.00142.12     0.149 C 
HETATM   23  C8  MIQ B 502     -13.537   6.607  -4.972  1.00144.10     0.187 C 
HETATM   24  O9  MIQ B 502     -13.043   7.869  -5.308  1.00148.65    -0.388 OA
HETATM   25  C10 MIQ B 502     -13.787   9.018  -5.028  1.00147.44     0.187 C 
HETATM   26  C11 MIQ B 502     -14.713   9.010  -3.816  1.00144.08     0.149 C 
ENDBRANCH   5  21
TORSDOF 2
ENDMDL
MODEL 2
REMARK VINA RESULT:      -6.4      5.728      8.157
REMARK  2 active torsions:
REMARK  status: ('A' for Active; 'I' for Inactive)
REMARK    1  A    between atoms: C5_5  and  N6_21 
REMARK    2  A    between atoms: C18_14  and  N17_19 
ROOT
HETATM    1  O1  MIQ B 502     -17.863  13.679  -1.629  1.00142.91    -0.171 OA
HETATM    2  C2  MIQ B 502     -18.959  12.841  -1.417  1.00141.17     0.195 A 
HETATM    3  C3  MIQ B 502     -18.958  11.281  -1.501  1.00141.71     0.035 A 
HETATM    4  C4  MIQ B 502     -17.908  10.277  -1.798  1.00142.86     0.046 A 
HETATM    5  C5  MIQ B 502     -18.219   8.894  -1.799  1.00139.53     0.031 A 
HETATM    6  C12 MIQ B 502     -19.576   8.458  -1.505  1.00139.38     0.030 A 
HETATM    7  C13 MIQ B 502     -20.583   9.420  -1.219  1.00141.18     0.019 A 
HETATM    8  C14 MIQ B 502     -20.250  10.871  -1.217  1.00138.77     0.033 A 
HETATM    9  C15 MIQ B 502     -21.058  12.183  -0.955  1.00142.10     0.195 A 
HETATM   10  N17 MIQ B 502     -20.198  13.177  -1.102  1.00139.42    -0.288 N 
HETATM   11  O16 MIQ B 502     -22.413  12.280  -0.633  1.00148.93    -0.171 OA
ENDROOT
BRANCH  10  12
HETATM   12  C18 MIQ B 502     -20.606  14.561  -0.946  1.00139.82     0.187 C 
HETATM   13  C19 MIQ B 502     -21.282  14.698   0.424  1.00140.06     0.247 C 
HETATM   14  O25 MIQ B 502     -20.728  14.292   1.383  1.00143.95    -0.271 OA
HETATM   15  N20 MIQ B 502     -22.582  15.319   0.575  1.00140.02    -0.296 N 
HETATM   16  H13 MIQ B 502     -23.016  15.396   1.474  1.00142.77     0.171 HD
HETATM   17  C21 MIQ B 502     -23.243  15.798  -0.611  1.00142.22     0.224 C 
HETATM   18  C22 MIQ B 502     -23.008  15.011  -1.887  1.00139.52     0.106 C 
HETATM   19  O24 MIQ B 502     -23.930  16.759  -0.591  1.00146.13    -0.273 OA
HETATM   20  C23 MIQ B 502     -21.506  14.984  -2.106  1.00139.15     0.045 C 
ENDBRANCH  10  12
BRANCH   5  21
HETATM   21  N6  MIQ B 502     -17.185   7.923  -2.106  1.00140.95    -0.377 N 
HETATM   22  C7  MIQ B 502     -16.111   8.313  -3.005  1.00142.12     0.149 C 
HETATM   23  C8  MIQ B 502     -15.512   7.114  -3.728  1.00144.10     0.187 C 
HETATM   24  O9  MIQ B 502     -15.216   6.053  -2.870  1.00148.65    -0.388 OA
HETATM   25  C10 MIQ B 502     -15.665   6.067  -1.547  1.00147.44     0.187 C 
HETATM   26  C11 MIQ B 502     -16.971   6.787  -1.227  1.00144.08     0.149 C 
ENDBRANCH   5  21
TORSDOF 2
ENDMDL
MODEL 3
REMARK VINA RESULT:      -6.4      5.113      7.519
REMARK  2 active torsions:
REMARK  status: ('A' for Active; 'I' for Inactive)
REMARK    1  A    between atoms: C5_5  and  N6_21 
REMARK    2  A    between atoms: C18_14  and  N17_19 
ROOT
HETATM    1  O1  MIQ B 502     -19.223  13.128  -1.283  1.00142.91    -0.171 OA
HETATM    2  C2  MIQ B 502     -19.864  11.890  -1.201  1.00141.17     0.195 A 
HETATM    3  C3  MIQ B 502     -19.219  10.496  -1.487  1.00141.71     0.035 A 
HETATM    4  C4  MIQ B 502     -17.859  10.067  -1.893  1.00142.86     0.046 A 
HETATM    5  C5  MIQ B 502     -17.568   8.692  -2.078  1.00139.53     0.031 A 
HETATM    6  C12 MIQ B 502     -18.611   7.697  -1.868  1.00139.38     0.030 A 
HETATM    7  C13 MIQ B 502     -19.914   8.109  -1.478  1.00141.18     0.019 A 
HETATM    8  C14 MIQ B 502     -20.213   9.554  -1.283  1.00138.77     0.033 A 
HETATM    9  C15 MIQ B 502     -21.483  10.367  -0.867  1.00142.10     0.195 A 
HETATM   10  N17 MIQ B 502     -21.118  11.638  -0.869  1.00139.42    -0.288 N 
HETATM   11  O16 MIQ B 502     -22.743   9.850  -0.561  1.00148.93    -0.171 OA
ENDROOT
BRANCH  10  12
HETATM   12  C18 MIQ B 502     -22.057  12.695  -0.542  1.00139.82     0.187 C 
HETATM   13  C19 MIQ B 502     -22.047  13.703  -1.698  1.00140.06     0.247 C 
HETATM   14  O25 MIQ B 502     -22.189  13.314  -2.803  1.00143.95    -0.271 OA
HETATM   15  N20 MIQ B 502     -21.874  15.124  -1.471  1.00140.02    -0.296 N 
HETATM   16  H13 MIQ B 502     -21.863  15.771  -2.235  1.00142.77     0.171 HD
HETATM   17  C21 MIQ B 502     -21.693  15.573  -0.115  1.00142.22     0.224 C 
HETATM   18  C22 MIQ B 502     -20.948  14.638   0.818  1.00139.52     0.106 C 
HETATM   19  O24 MIQ B 502     -22.110  16.616   0.251  1.00146.13    -0.273 OA
HETATM   20  C23 MIQ B 502     -21.705  13.322   0.805  1.00139.15     0.045 C 
ENDBRANCH  10  12
BRANCH   5  21
HETATM   21  N6  MIQ B 502     -16.236   8.286  -2.490  1.00140.95    -0.377 N 
HETATM   22  C7  MIQ B 502     -15.464   9.187  -3.327  1.00142.12     0.149 C 
HETATM   23  C8  MIQ B 502     -14.449   8.440  -4.182  1.00144.10     0.187 C 
HETATM   24  O9  MIQ B 502     -13.700   7.514  -3.452  1.00148.65    -0.388 OA
HETATM   25  C10 MIQ B 502     -14.058   7.191  -2.141  1.00147.44     0.187 C 
HETATM   26  C11 MIQ B 502     -15.530   7.255  -1.749  1.00144.08     0.149 C 
ENDBRANCH   5  21
TORSDOF 2
ENDMDL
MODEL 4
REMARK VINA RESULT:      -6.2      3.031      4.684
REMARK  2 active torsions:
REMARK  status: ('A' for Active; 'I' for Inactive)
REMARK    1  A    between atoms: C5_5  and  N6_21 
REMARK    2  A    between atoms: C18_14  and  N17_19 
ROOT
HETATM    1  O1  MIQ B 502     -19.931   7.560   4.074  1.00142.91    -0.171 OA
HETATM    2  C2  MIQ B 502     -19.340   6.311   3.873  1.00141.17     0.195 A 
HETATM    3  C3  MIQ B 502     -18.340   5.937   2.732  1.00141.71     0.035 A 
HETATM    4  C4  MIQ B 502     -17.745   6.698   1.608  1.00142.86     0.046 A 
HETATM    5  C5  MIQ B 502     -16.843   6.068   0.714  1.00139.53     0.031 A 
HETATM    6  C12 MIQ B 502     -16.498   4.666   0.903  1.00139.38     0.030 A 
HETATM    7  C13 MIQ B 502     -17.067   3.937   1.982  1.00141.18     0.019 A 
HETATM    8  C14 MIQ B 502     -18.013   4.603   2.918  1.00138.77     0.033 A 
HETATM    9  C15 MIQ B 502     -18.813   4.147   4.181  1.00142.10     0.195 A 
HETATM   10  N17 MIQ B 502     -19.492   5.208   4.586  1.00139.42    -0.288 N 
HETATM   11  O16 MIQ B 502     -18.811   2.876   4.758  1.00148.93    -0.171 OA
ENDROOT
BRANCH  10  12
HETATM   12  C18 MIQ B 502     -20.370   5.151   5.740  1.00139.82     0.187 C 
HETATM   13  C19 MIQ B 502     -21.744   5.675   5.309  1.00140.06     0.247 C 
HETATM   14  O25 MIQ B 502     -22.255   5.227   4.345  1.00143.95    -0.271 OA
HETATM   15  N20 MIQ B 502     -22.439   6.704   6.057  1.00140.02    -0.296 N 
HETATM   16  H13 MIQ B 502     -23.333   7.042   5.761  1.00142.77     0.171 HD
HETATM   17  C21 MIQ B 502     -21.790   7.243   7.224  1.00142.22     0.224 C 
HETATM   18  C22 MIQ B 502     -20.277   7.335   7.182  1.00139.52     0.106 C 
HETATM   19  O24 MIQ B 502     -22.409   7.590   8.170  1.00146.13    -0.273 OA
HETATM   20  C23 MIQ B 502     -19.767   5.933   6.907  1.00139.15     0.045 C 
ENDBRANCH  10  12
BRANCH   5  21
HETATM   21  N6  MIQ B 502     -16.279   6.822  -0.391  1.00140.95    -0.377 N 
HETATM   22  C7  MIQ B 502     -15.402   6.136  -1.324  1.00142.12     0.149 C 
HETATM   23  C8  MIQ B 502     -14.418   7.091  -1.986  1.00144.10     0.187 C 
HETATM   24  O9  MIQ B 502     -15.029   8.245  -2.481  1.00148.65    -0.388 OA
HETATM   25  C10 MIQ B 502     -16.357   8.535  -2.159  1.00147.44     0.187 C 
HETATM   26  C11 MIQ B 502     -16.902   8.064  -0.815  1.00144.08     0.149 C 
ENDBRANCH   5  21
TORSDOF 2
ENDMDL
MODEL 5
REMARK VINA RESULT:      -6.2     18.503     20.132
REMARK  2 active torsions:
REMARK  status: ('A' for Active; 'I' for Inactive)
REMARK    1  A    between atoms: C5_5  and  N6_21 
REMARK    2  A    between atoms: C18_14  and  N17_19 
ROOT
HETATM    1  O1  MIQ B 502     -12.951  22.709   8.248  1.00142.91    -0.171 OA
HETATM    2  C2  MIQ B 502     -13.370  22.240   9.495  1.00141.17     0.195 A 
HETATM    3  C3  MIQ B 502     -12.500  21.445  10.521  1.00141.71     0.035 A 
HETATM    4  C4  MIQ B 502     -11.094  20.976  10.518  1.00142.86     0.046 A 
HETATM    5  C5  MIQ B 502     -10.575  20.260  11.626  1.00139.53     0.031 A 
HETATM    6  C12 MIQ B 502     -11.429  19.986  12.773  1.00139.38     0.030 A 
HETATM    7  C13 MIQ B 502     -12.776  20.436  12.777  1.00141.18     0.019 A 
HETATM    8  C14 MIQ B 502     -13.315  21.190  11.612  1.00138.77     0.033 A 
HETATM    9  C15 MIQ B 502     -14.698  21.830  11.261  1.00142.10     0.195 A 
HETATM   10  N17 MIQ B 502     -14.557  22.370  10.062  1.00139.42    -0.288 N 
HETATM   11  O16 MIQ B 502     -15.846  21.826  12.056  1.00148.93    -0.171 OA
ENDROOT
BRANCH  10  12
HETATM   12  C18 MIQ B 502     -15.658  23.047   9.402  1.00139.82     0.187 C 
HETATM   13  C19 MIQ B 502     -15.891  22.356   8.054  1.00140.06     0.247 C 
HETATM   14  O25 MIQ B 502     -16.013  21.183   8.021  1.00143.95    -0.271 OA
HETATM   15  N20 MIQ B 502     -15.972  23.104   6.816  1.00140.02    -0.296 N 
HETATM   16  H13 MIQ B 502     -16.119  22.640   5.941  1.00142.77     0.171 HD
HETATM   17  C21 MIQ B 502     -15.810  24.534   6.880  1.00142.22     0.224 C 
HETATM   18  C22 MIQ B 502     -14.859  25.065   7.936  1.00139.52     0.106 C 
HETATM   19  O24 MIQ B 502     -16.394  25.256   6.148  1.00146.13    -0.273 OA
HETATM   20  C23 MIQ B 502     -15.360  24.540   9.269  1.00139.15     0.045 C 
ENDBRANCH  10  12
BRANCH   5  21
HETATM   21  N6  MIQ B 502      -9.201  19.794  11.603  1.00140.95    -0.377 N 
HETATM   22  C7  MIQ B 502      -8.206  20.598  10.915  1.00142.12     0.149 C 
HETATM   23  C8  MIQ B 502      -7.040  19.755  10.414  1.00144.10     0.187 C 
HETATM   24  O9  MIQ B 502      -6.538  18.889  11.387  1.00148.65    -0.388 OA
HETATM   25  C10 MIQ B 502      -7.227  18.698  12.588  1.00147.44     0.187 C 
HETATM   26  C11 MIQ B 502      -8.747  18.825  12.585  1.00144.08     0.149 C 
ENDBRANCH   5  21
TORSDOF 2
ENDMDL
MODEL 6
REMARK VINA RESULT:      -6.1      2.492      3.782
REMARK  2 active torsions:
REMARK  status: ('A' for Active; 'I' for Inactive)
REMARK    1  A    between atoms: C5_5  and  N6_21 
REMARK    2  A    between atoms: C18_14  and  N17_19 
ROOT
HETATM    1  O1  MIQ B 502     -19.710   6.931   2.997  1.00142.91    -0.171 OA
HETATM    2  C2  MIQ B 502     -18.888   5.839   2.714  1.00141.17     0.195 A 
HETATM    3  C3  MIQ B 502     -17.825   5.755   1.572  1.00141.71     0.035 A 
HETATM    4  C4  MIQ B 502     -17.380   6.703   0.523  1.00142.86     0.046 A 
HETATM    5  C5  MIQ B 502     -16.366   6.330  -0.395  1.00139.53     0.031 A 
HETATM    6  C12 MIQ B 502     -15.759   5.010  -0.306  1.00139.38     0.030 A 
HETATM    7  C13 MIQ B 502     -16.185   4.102   0.700  1.00141.18     0.019 A 
HETATM    8  C14 MIQ B 502     -17.249   4.498   1.663  1.00138.77     0.033 A 
HETATM    9  C15 MIQ B 502     -17.956   3.799   2.869  1.00142.10     0.195 A 
HETATM   10  N17 MIQ B 502     -18.830   4.675   3.338  1.00139.42    -0.288 N 
HETATM   11  O16 MIQ B 502     -17.714   2.510   3.347  1.00148.93    -0.171 OA
ENDROOT
BRANCH  10  12
HETATM   12  C18 MIQ B 502     -19.689   4.359   4.464  1.00139.82     0.187 C 
HETATM   13  C19 MIQ B 502     -21.137   4.633   4.039  1.00140.06     0.247 C 
HETATM   14  O25 MIQ B 502     -21.540   4.167   3.033  1.00143.95    -0.271 OA
HETATM   15  N20 MIQ B 502     -22.028   5.445   4.842  1.00140.02    -0.296 N 
HETATM   16  H13 MIQ B 502     -22.969   5.622   4.550  1.00142.77     0.171 HD
HETATM   17  C21 MIQ B 502     -21.510   6.012   6.060  1.00142.22     0.224 C 
HETATM   18  C22 MIQ B 502     -20.045   6.404   6.060  1.00139.52     0.106 C 
HETATM   19  O24 MIQ B 502     -22.193   6.158   7.013  1.00146.13    -0.273 OA
HETATM   20  C23 MIQ B 502     -19.264   5.154   5.697  1.00139.15     0.045 C 
ENDBRANCH  10  12
BRANCH   5  21
HETATM   21  N6  MIQ B 502     -15.950   7.263  -1.427  1.00140.95    -0.377 N 
HETATM   22  C7  MIQ B 502     -15.131   6.769  -2.520  1.00142.12     0.149 C 
HETATM   23  C8  MIQ B 502     -14.265   7.868  -3.123  1.00144.10     0.187 C 
HETATM   24  O9  MIQ B 502     -14.979   9.037  -3.393  1.00148.65    -0.388 OA
HETATM   25  C10 MIQ B 502     -16.284   9.194  -2.919  1.00147.44     0.187 C 
HETATM   26  C11 MIQ B 502     -16.673   8.509  -1.613  1.00144.08     0.149 C 
ENDBRANCH   5  21
TORSDOF 2
ENDMDL
MODEL 7
REMARK VINA RESULT:      -6.1      2.157      3.137
REMARK  2 active torsions:
REMARK  status: ('A' for Active; 'I' for Inactive)
REMARK    1  A    between atoms: C5_5  and  N6_21 
REMARK    2  A    between atoms: C18_14  and  N17_19 
ROOT
HETATM    1  O1  MIQ B 502     -16.087   5.845   4.090  1.00142.91    -0.171 OA
HETATM    2  C2  MIQ B 502     -17.285   5.730   3.382  1.00141.17     0.195 A 
HETATM    3  C3  MIQ B 502     -17.523   6.148   1.896  1.00141.71     0.035 A 
HETATM    4  C4  MIQ B 502     -16.653   6.738   0.852  1.00142.86     0.046 A 
HETATM    5  C5  MIQ B 502     -17.168   7.011  -0.440  1.00139.53     0.031 A 
HETATM    6  C12 MIQ B 502     -18.560   6.709  -0.742  1.00139.38     0.030 A 
HETATM    7  C13 MIQ B 502     -19.394   6.142   0.258  1.00141.18     0.019 A 
HETATM    8  C14 MIQ B 502     -18.847   5.855   1.613  1.00138.77     0.033 A 
HETATM    9  C15 MIQ B 502     -19.434   5.251   2.930  1.00142.10     0.195 A 
HETATM   10  N17 MIQ B 502     -18.443   5.251   3.805  1.00139.42    -0.288 N 
HETATM   11  O16 MIQ B 502     -20.742   4.808   3.136  1.00148.93    -0.171 OA
ENDROOT
BRANCH  10  12
HETATM   12  C18 MIQ B 502     -18.629   4.768   5.161  1.00139.82     0.187 C 
HETATM   13  C19 MIQ B 502     -19.193   3.344   5.077  1.00140.06     0.247 C 
HETATM   14  O25 MIQ B 502     -18.649   2.548   4.397  1.00143.95    -0.271 OA
HETATM   15  N20 MIQ B 502     -20.374   2.946   5.815  1.00140.02    -0.296 N 
HETATM   16  H13 MIQ B 502     -20.736   2.015   5.746  1.00142.77     0.171 HD
HETATM   17  C21 MIQ B 502     -21.027   3.938   6.630  1.00142.22     0.224 C 
HETATM   18  C22 MIQ B 502     -20.989   5.367   6.124  1.00139.52     0.106 C 
HETATM   19  O24 MIQ B 502     -21.560   3.651   7.645  1.00146.13    -0.273 OA
HETATM   20  C23 MIQ B 502     -19.525   5.724   5.947  1.00139.15     0.045 C 
ENDBRANCH  10  12
BRANCH   5  21
HETATM   21  N6  MIQ B 502     -16.308   7.604  -1.449  1.00140.95    -0.377 N 
HETATM   22  C7  MIQ B 502     -15.300   6.769  -2.080  1.00142.12     0.149 C 
HETATM   23  C8  MIQ B 502     -14.116   7.586  -2.580  1.00144.10     0.187 C 
HETATM   24  O9  MIQ B 502     -14.503   8.711  -3.312  1.00148.65    -0.388 OA
HETATM   25  C10 MIQ B 502     -15.841   9.111  -3.340  1.00147.44     0.187 C 
HETATM   26  C11 MIQ B 502     -16.715   8.824  -2.123  1.00144.08     0.149 C 
ENDBRANCH   5  21
TORSDOF 2
ENDMDL
MODEL 8
REMARK VINA RESULT:      -6.0      2.244      8.348
REMARK  2 active torsions:
REMARK  status: ('A' for Active; 'I' for Inactive)
REMARK    1  A    between atoms: C5_5  and  N6_21 
REMARK    2  A    between atoms: C18_14  and  N17_19 
ROOT
HETATM    1  O1  MIQ B 502     -19.394   6.827  -1.592  1.00142.91    -0.171 OA
HETATM    2  C2  MIQ B 502     -18.188   6.728  -0.894  1.00141.17     0.195 A 
HETATM    3  C3  MIQ B 502     -18.028   6.438   0.633  1.00141.71     0.035 A 
HETATM    4  C4  MIQ B 502     -18.993   6.194   1.731  1.00142.86     0.046 A 
HETATM    5  C5  MIQ B 502     -18.532   5.952   3.050  1.00139.53     0.031 A 
HETATM    6  C12 MIQ B 502     -17.103   5.944   3.326  1.00139.38     0.030 A 
HETATM    7  C13 MIQ B 502     -16.177   6.176   2.273  1.00141.18     0.019 A 
HETATM    8  C14 MIQ B 502     -16.667   6.427   0.890  1.00138.77     0.033 A 
HETATM    9  C15 MIQ B 502     -15.978   6.711  -0.485  1.00142.10     0.195 A 
HETATM   10  N17 MIQ B 502     -16.958   6.850  -1.362  1.00139.42    -0.288 N 
HETATM   11  O16 MIQ B 502     -14.607   6.802  -0.730  1.00148.93    -0.171 OA
ENDROOT
BRANCH  10  12
HETATM   12  C18 MIQ B 502     -16.690   7.142  -2.758  1.00139.82     0.187 C 
HETATM   13  C19 MIQ B 502     -15.474   6.310  -3.184  1.00140.06     0.247 C 
HETATM   14  O25 MIQ B 502     -15.465   5.150  -2.967  1.00143.95    -0.271 OA
HETATM   15  N20 MIQ B 502     -14.336   6.907  -3.853  1.00140.02    -0.296 N 
HETATM   16  H13 MIQ B 502     -13.546   6.354  -4.120  1.00142.77     0.171 HD
HETATM   17  C21 MIQ B 502     -14.366   8.326  -4.097  1.00142.22     0.224 C 
HETATM   18  C22 MIQ B 502     -15.075   9.181  -3.064  1.00139.52     0.106 C 
HETATM   19  O24 MIQ B 502     -13.867   8.798  -5.059  1.00146.13    -0.273 OA
HETATM   20  C23 MIQ B 502     -16.491   8.643  -2.959  1.00139.15     0.045 C 
ENDBRANCH  10  12
BRANCH   5  21
HETATM   21  N6  MIQ B 502     -19.489   5.729   4.118  1.00140.95    -0.377 N 
HETATM   22  C7  MIQ B 502     -19.987   6.878   4.855  1.00142.12     0.149 C 
HETATM   23  C8  MIQ B 502     -20.422   6.503   6.267  1.00144.10     0.187 C 
HETATM   24  O9  MIQ B 502     -21.239   5.372   6.301  1.00148.65    -0.388 OA
HETATM   25  C10 MIQ B 502     -21.405   4.583   5.160  1.00147.44     0.187 C 
HETATM   26  C11 MIQ B 502     -20.256   4.497   4.160  1.00144.08     0.149 C 
ENDBRANCH   5  21
TORSDOF 2
ENDMDL
MODEL 9
REMARK VINA RESULT:      -5.9      2.019      3.027
REMARK  2 active torsions:
REMARK  status: ('A' for Active; 'I' for Inactive)
REMARK    1  A    between atoms: C5_5  and  N6_21 
REMARK    2  A    between atoms: C18_14  and  N17_19 
ROOT
HETATM    1  O1  MIQ B 502     -20.890   7.508  -0.100  1.00142.91    -0.171 OA
HETATM    2  C2  MIQ B 502     -19.884   6.805   0.565  1.00141.17     0.195 A 
HETATM    3  C3  MIQ B 502     -18.421   6.591   0.061  1.00141.71     0.035 A 
HETATM    4  C4  MIQ B 502     -17.689   7.017  -1.156  1.00142.86     0.046 A 
HETATM    5  C5  MIQ B 502     -16.329   6.661  -1.336  1.00139.53     0.031 A 
HETATM    6  C12 MIQ B 502     -15.648   5.872  -0.320  1.00139.38     0.030 A 
HETATM    7  C13 MIQ B 502     -16.348   5.464   0.847  1.00141.18     0.019 A 
HETATM    8  C14 MIQ B 502     -17.776   5.843   1.032  1.00138.77     0.033 A 
HETATM    9  C15 MIQ B 502     -18.844   5.592   2.146  1.00142.10     0.195 A 
HETATM   10  N17 MIQ B 502     -19.949   6.191   1.734  1.00139.42    -0.288 N 
HETATM   11  O16 MIQ B 502     -18.663   4.877   3.332  1.00148.93    -0.171 OA
ENDROOT
BRANCH  10  12
HETATM   12  C18 MIQ B 502     -21.169   6.153   2.519  1.00139.82     0.187 C 
HETATM   13  C19 MIQ B 502     -20.835   6.657   3.928  1.00140.06     0.247 C 
HETATM   14  O25 MIQ B 502     -20.263   7.681   4.052  1.00143.95    -0.271 OA
HETATM   15  N20 MIQ B 502     -21.207   5.913   5.114  1.00140.02    -0.296 N 
HETATM   16  H13 MIQ B 502     -20.977   6.250   6.028  1.00142.77     0.171 HD
HETATM   17  C21 MIQ B 502     -21.895   4.660   4.935  1.00142.22     0.224 C 
HETATM   18  C22 MIQ B 502     -21.525   3.848   3.710  1.00139.52     0.106 C 
HETATM   19  O24 MIQ B 502     -22.711   4.289   5.705  1.00146.13    -0.273 OA
HETATM   20  C23 MIQ B 502     -21.764   4.745   2.509  1.00139.15     0.045 C 
ENDBRANCH  10  12
BRANCH   5  21
HETATM   21  N6  MIQ B 502     -15.629   7.073  -2.539  1.00140.95    -0.377 N 
HETATM   22  C7  MIQ B 502     -14.799   8.263  -2.487  1.00142.12     0.149 C 
HETATM   23  C8  MIQ B 502     -14.669   8.927  -3.852  1.00144.10     0.187 C 
HETATM   24  O9  MIQ B 502     -14.352   8.023  -4.868  1.00148.65    -0.388 OA
HETATM   25  C10 MIQ B 502     -14.399   6.647  -4.630  1.00147.44     0.187 C 
HETATM   26  C11 MIQ B 502     -15.399   6.117  -3.608  1.00144.08     0.149 C 
ENDBRANCH   5  21
TORSDOF 2
ENDMDL
