MODEL 1
REMARK VINA RESULT:      -7.2      0.000      0.000
REMARK  2 active torsions:
REMARK  status: ('A' for Active; 'I' for Inactive)
REMARK    1  A    between atoms: C5_5  and  N6_21 
REMARK    2  A    between atoms: C18_14  and  N17_19 
ROOT
HETATM    1  O1  MIQ B 502     -11.347   5.355  12.255  1.00142.91    -0.171 OA
HETATM    2  C2  MIQ B 502     -11.072   6.724  12.225  1.00141.17     0.195 A 
HETATM    3  C3  MIQ B 502     -11.933   7.822  11.525  1.00141.71     0.035 A 
HETATM    4  C4  MIQ B 502     -13.194   7.786  10.746  1.00142.86     0.046 A 
HETATM    5  C5  MIQ B 502     -13.749   8.982  10.224  1.00139.53     0.031 A 
HETATM    6  C12 MIQ B 502     -13.075  10.252  10.456  1.00139.38     0.030 A 
HETATM    7  C13 MIQ B 502     -11.867  10.287  11.203  1.00141.18     0.019 A 
HETATM    8  C14 MIQ B 502     -11.291   9.029  11.751  1.00138.77     0.033 A 
HETATM    9  C15 MIQ B 502     -10.024   8.677  12.597  1.00142.10     0.195 A 
HETATM   10  N17 MIQ B 502     -10.054   7.367  12.773  1.00139.42    -0.288 N 
HETATM   11  O16 MIQ B 502      -9.058   9.570  13.066  1.00148.93    -0.171 OA
ENDROOT
BRANCH  10  12
HETATM   12  C18 MIQ B 502      -9.012   6.677  13.509  1.00139.82     0.187 C 
HETATM   13  C19 MIQ B 502      -8.467   5.559  12.613  1.00140.06     0.247 C 
HETATM   14  O25 MIQ B 502      -8.131   5.816  11.511  1.00143.95    -0.271 OA
HETATM   15  N20 MIQ B 502      -8.347   4.193  13.082  1.00140.02    -0.296 N 
HETATM   16  H13 MIQ B 502      -7.995   3.471  12.484  1.00142.77     0.171 HD
HETATM   17  C21 MIQ B 502      -8.772   3.902  14.427  1.00142.22     0.224 C 
HETATM   18  C22 MIQ B 502      -9.944   4.705  14.959  1.00139.52     0.106 C 
HETATM   19  O24 MIQ B 502      -8.230   3.082  15.082  1.00146.13    -0.273 OA
HETATM   20  C23 MIQ B 502      -9.553   6.167  14.844  1.00139.15     0.045 C 
ENDBRANCH  10  12
BRANCH   5  21
HETATM   21  N6  MIQ B 502     -14.976   8.930   9.451  1.00140.95    -0.377 N 
HETATM   22  C7  MIQ B 502     -15.303  10.054   8.590  1.00142.12     0.149 C 
HETATM   23  C8  MIQ B 502     -16.804  10.183   8.370  1.00144.10     0.187 C 
HETATM   24  O9  MIQ B 502     -17.409   8.973   8.026  1.00148.65    -0.388 OA
HETATM   25  C10 MIQ B 502     -16.699   7.774   8.124  1.00147.44     0.187 C 
HETATM   26  C11 MIQ B 502     -15.616   7.653   9.192  1.00144.08     0.149 C 
ENDBRANCH   5  21
TORSDOF 2
ENDMDL
MODEL 2
REMARK VINA RESULT:      -7.0      1.191      2.264
REMARK  2 active torsions:
REMARK  status: ('A' for Active; 'I' for Inactive)
REMARK    1  A    between atoms: C5_5  and  N6_21 
REMARK    2  A    between atoms: C18_14  and  N17_19 
ROOT
HETATM    1  O1  MIQ B 502     -10.352   9.207  11.805  1.00142.91    -0.171 OA
HETATM    2  C2  MIQ B 502     -10.977   7.965  11.939  1.00141.17     0.195 A 
HETATM    3  C3  MIQ B 502     -12.371   7.566  11.360  1.00141.71     0.035 A 
HETATM    4  C4  MIQ B 502     -13.386   8.290  10.558  1.00142.86     0.046 A 
HETATM    5  C5  MIQ B 502     -14.587   7.644  10.170  1.00139.53     0.031 A 
HETATM    6  C12 MIQ B 502     -14.823   6.262  10.561  1.00139.38     0.030 A 
HETATM    7  C13 MIQ B 502     -13.849   5.567  11.328  1.00141.18     0.019 A 
HETATM    8  C14 MIQ B 502     -12.589   6.250  11.731  1.00138.77     0.033 A 
HETATM    9  C15 MIQ B 502     -11.323   5.828  12.545  1.00142.10     0.195 A 
HETATM   10  N17 MIQ B 502     -10.532   6.888  12.564  1.00139.42    -0.288 N 
HETATM   11  O16 MIQ B 502     -11.083   4.585  13.134  1.00148.93    -0.171 OA
ENDROOT
BRANCH  10  12
HETATM   12  C18 MIQ B 502      -9.255   6.868  13.254  1.00139.82     0.187 C 
HETATM   13  C19 MIQ B 502      -8.450   5.681  12.713  1.00140.06     0.247 C 
HETATM   14  O25 MIQ B 502      -8.322   5.554  11.547  1.00143.95    -0.271 OA
HETATM   15  N20 MIQ B 502      -7.834   4.710  13.595  1.00140.02    -0.296 N 
HETATM   16  H13 MIQ B 502      -7.317   3.935  13.229  1.00142.77     0.171 HD
HETATM   17  C21 MIQ B 502      -8.013   4.879  15.014  1.00142.22     0.224 C 
HETATM   18  C22 MIQ B 502      -9.333   5.473  15.468  1.00139.52     0.106 C 
HETATM   19  O24 MIQ B 502      -7.169   4.575  15.784  1.00146.13    -0.273 OA
HETATM   20  C23 MIQ B 502      -9.469   6.811  14.766  1.00139.15     0.045 C 
ENDBRANCH  10  12
BRANCH   5  21
HETATM   21  N6  MIQ B 502     -15.579   8.370   9.398  1.00140.95    -0.377 N 
HETATM   22  C7  MIQ B 502     -15.162   9.558   8.674  1.00142.12     0.149 C 
HETATM   23  C8  MIQ B 502     -16.314  10.535   8.472  1.00144.10     0.187 C 
HETATM   24  O9  MIQ B 502     -17.471   9.919   7.993  1.00148.65    -0.388 OA
HETATM   25  C10 MIQ B 502     -17.566   8.525   7.951  1.00147.44     0.187 C 
HETATM   26  C11 MIQ B 502     -16.809   7.711   8.995  1.00144.08     0.149 C 
ENDBRANCH   5  21
TORSDOF 2
ENDMDL
MODEL 3
REMARK VINA RESULT:      -6.7     14.369     17.486
REMARK  2 active torsions:
REMARK  status: ('A' for Active; 'I' for Inactive)
REMARK    1  A    between atoms: C5_5  and  N6_21 
REMARK    2  A    between atoms: C18_14  and  N17_19 
ROOT
HETATM    1  O1  MIQ B 502      -4.824   0.025  20.418  1.00142.91    -0.171 OA
HETATM    2  C2  MIQ B 502      -3.803  -0.927  20.468  1.00141.17     0.195 A 
HETATM    3  C3  MIQ B 502      -2.560  -0.896  21.412  1.00141.71     0.035 A 
HETATM    4  C4  MIQ B 502      -2.098   0.046  22.459  1.00142.86     0.046 A 
HETATM    5  C5  MIQ B 502      -0.895  -0.203  23.167  1.00139.53     0.031 A 
HETATM    6  C12 MIQ B 502      -0.110  -1.391  22.863  1.00139.38     0.030 A 
HETATM    7  C13 MIQ B 502      -0.553  -2.295  21.861  1.00141.18     0.019 A 
HETATM    8  C14 MIQ B 502      -1.818  -2.030  21.122  1.00138.77     0.033 A 
HETATM    9  C15 MIQ B 502      -2.607  -2.769  19.992  1.00142.10     0.195 A 
HETATM   10  N17 MIQ B 502      -3.677  -2.030  19.750  1.00139.42    -0.288 N 
HETATM   11  O16 MIQ B 502      -2.248  -3.965  19.367  1.00148.93    -0.171 OA
ENDROOT
BRANCH  10  12
HETATM   12  C18 MIQ B 502      -4.643  -2.405  18.735  1.00139.82     0.187 C 
HETATM   13  C19 MIQ B 502      -5.090  -3.844  19.024  1.00140.06     0.247 C 
HETATM   14  O25 MIQ B 502      -5.459  -4.125  20.109  1.00143.95    -0.271 OA
HETATM   15  N20 MIQ B 502      -5.078  -4.868  18.000  1.00140.02    -0.296 N 
HETATM   16  H13 MIQ B 502      -5.366  -5.805  18.203  1.00142.77     0.171 HD
HETATM   17  C21 MIQ B 502      -4.613  -4.502  16.686  1.00142.22     0.224 C 
HETATM   18  C22 MIQ B 502      -3.517  -3.457  16.618  1.00139.52     0.106 C 
HETATM   19  O24 MIQ B 502      -5.070  -4.990  15.711  1.00146.13    -0.273 OA
HETATM   20  C23 MIQ B 502      -4.044  -2.231  17.340  1.00139.15     0.045 C 
ENDBRANCH  10  12
BRANCH   5  21
HETATM   21  N6  MIQ B 502      -0.446   0.736  24.179  1.00140.95    -0.377 N 
HETATM   22  C7  MIQ B 502       0.441   1.815  23.780  1.00142.12     0.149 C 
HETATM   23  C8  MIQ B 502       1.312   2.291  24.936  1.00144.10     0.187 C 
HETATM   24  O9  MIQ B 502       0.586   2.517  26.107  1.00148.65    -0.388 OA
HETATM   25  C10 MIQ B 502      -0.746   2.105  26.204  1.00147.44     0.187 C 
HETATM   26  C11 MIQ B 502      -1.188   0.874  25.420  1.00144.08     0.149 C 
ENDBRANCH   5  21
TORSDOF 2
ENDMDL
MODEL 4
REMARK VINA RESULT:      -6.5     13.958     18.709
REMARK  2 active torsions:
REMARK  status: ('A' for Active; 'I' for Inactive)
REMARK    1  A    between atoms: C5_5  and  N6_21 
REMARK    2  A    between atoms: C18_14  and  N17_19 
ROOT
HETATM    1  O1  MIQ B 502      -4.515  -3.982  19.862  1.00142.91    -0.171 OA
HETATM    2  C2  MIQ B 502      -3.657  -3.473  20.840  1.00141.17     0.195 A 
HETATM    3  C3  MIQ B 502      -3.492  -4.018  22.295  1.00141.71     0.035 A 
HETATM    4  C4  MIQ B 502      -4.117  -5.135  23.042  1.00142.86     0.046 A 
HETATM    5  C5  MIQ B 502      -3.751  -5.390  24.388  1.00139.53     0.031 A 
HETATM    6  C12 MIQ B 502      -2.755  -4.550  25.038  1.00139.38     0.030 A 
HETATM    7  C13 MIQ B 502      -2.155  -3.480  24.321  1.00141.18     0.019 A 
HETATM    8  C14 MIQ B 502      -2.541  -3.218  22.908  1.00138.77     0.033 A 
HETATM    9  C15 MIQ B 502      -2.114  -2.171  21.828  1.00142.10     0.195 A 
HETATM   10  N17 MIQ B 502      -2.821  -2.454  20.746  1.00139.42    -0.288 N 
HETATM   11  O16 MIQ B 502      -1.178  -1.147  21.980  1.00148.93    -0.171 OA
ENDROOT
BRANCH  10  12
HETATM   12  C18 MIQ B 502      -2.696  -1.668  19.533  1.00139.82     0.187 C 
HETATM   13  C19 MIQ B 502      -4.105  -1.238  19.106  1.00140.06     0.247 C 
HETATM   14  O25 MIQ B 502      -4.812  -0.719  19.895  1.00143.95    -0.271 OA
HETATM   15  N20 MIQ B 502      -4.591  -1.445  17.757  1.00140.02    -0.296 N 
HETATM   16  H13 MIQ B 502      -5.515  -1.165  17.493  1.00142.77     0.171 HD
HETATM   17  C21 MIQ B 502      -3.713  -2.089  16.815  1.00142.22     0.224 C 
HETATM   18  C22 MIQ B 502      -2.773  -3.142  17.370  1.00139.52     0.106 C 
HETATM   19  O24 MIQ B 502      -3.722  -1.805  15.668  1.00146.13    -0.273 OA
HETATM   20  C23 MIQ B 502      -1.959  -2.465  18.457  1.00139.15     0.045 C 
ENDBRANCH  10  12
BRANCH   5  21
HETATM   21  N6  MIQ B 502      -4.382  -6.478  25.113  1.00140.95    -0.377 N 
HETATM   22  C7  MIQ B 502      -4.142  -7.840  24.667  1.00142.12     0.149 C 
HETATM   23  C8  MIQ B 502      -5.289  -8.771  25.041  1.00144.10     0.187 C 
HETATM   24  O9  MIQ B 502      -5.683  -8.639  26.374  1.00148.65    -0.388 OA
HETATM   25  C10 MIQ B 502      -5.198  -7.587  27.155  1.00147.44     0.187 C 
HETATM   26  C11 MIQ B 502      -4.854  -6.268  26.470  1.00144.08     0.149 C 
ENDBRANCH   5  21
TORSDOF 2
ENDMDL
MODEL 5
REMARK VINA RESULT:      -6.5      1.932      7.899
REMARK  2 active torsions:
REMARK  status: ('A' for Active; 'I' for Inactive)
REMARK    1  A    between atoms: C5_5  and  N6_21 
REMARK    2  A    between atoms: C18_14  and  N17_19 
ROOT
HETATM    1  O1  MIQ B 502     -14.023   7.885  11.013  1.00142.91    -0.171 OA
HETATM    2  C2  MIQ B 502     -12.943   8.757  11.161  1.00141.17     0.195 A 
HETATM    3  C3  MIQ B 502     -11.567   8.418  11.817  1.00141.71     0.035 A 
HETATM    4  C4  MIQ B 502     -11.006   7.192  12.432  1.00142.86     0.046 A 
HETATM    5  C5  MIQ B 502      -9.688   7.191  12.955  1.00139.53     0.031 A 
HETATM    6  C12 MIQ B 502      -8.882   8.401  12.887  1.00139.38     0.030 A 
HETATM    7  C13 MIQ B 502      -9.419   9.577  12.296  1.00141.18     0.019 A 
HETATM    8  C14 MIQ B 502     -10.803   9.572  11.746  1.00138.77     0.033 A 
HETATM    9  C15 MIQ B 502     -11.709  10.633  11.041  1.00142.10     0.195 A 
HETATM   10  N17 MIQ B 502     -12.853  10.021  10.783  1.00139.42    -0.288 N 
HETATM   11  O16 MIQ B 502     -11.375  11.956  10.750  1.00148.93    -0.171 OA
ENDROOT
BRANCH  10  12
HETATM   12  C18 MIQ B 502     -13.953  10.714  10.137  1.00139.82     0.187 C 
HETATM   13  C19 MIQ B 502     -15.210  10.489  10.987  1.00140.06     0.247 C 
HETATM   14  O25 MIQ B 502     -15.170  10.709  12.145  1.00143.95    -0.271 OA
HETATM   15  N20 MIQ B 502     -16.450  10.018  10.406  1.00140.02    -0.296 N 
HETATM   16  H13 MIQ B 502     -17.262   9.869  10.972  1.00142.77     0.171 HD
HETATM   17  C21 MIQ B 502     -16.472   9.745   8.992  1.00142.22     0.224 C 
HETATM   18  C22 MIQ B 502     -15.189   9.217   8.380  1.00139.52     0.106 C 
HETATM   19  O24 MIQ B 502     -17.442   9.931   8.342  1.00146.13    -0.273 OA
HETATM   20  C23 MIQ B 502     -14.109  10.236   8.695  1.00139.15     0.045 C 
ENDBRANCH  10  12
BRANCH   5  21
HETATM   21  N6  MIQ B 502      -9.157   5.987  13.568  1.00140.95    -0.377 N 
HETATM   22  C7  MIQ B 502      -9.115   5.906  15.018  1.00142.12     0.149 C 
HETATM   23  C8  MIQ B 502      -8.014   4.973  15.504  1.00144.10     0.187 C 
HETATM   24  O9  MIQ B 502      -8.008   3.746  14.838  1.00148.65    -0.388 OA
HETATM   25  C10 MIQ B 502      -8.799   3.554  13.702  1.00147.44     0.187 C 
HETATM   26  C11 MIQ B 502      -9.092   4.752  12.806  1.00144.08     0.149 C 
ENDBRANCH   5  21
TORSDOF 2
ENDMDL
MODEL 6
REMARK VINA RESULT:      -6.5      2.499      8.260
REMARK  2 active torsions:
REMARK  status: ('A' for Active; 'I' for Inactive)
REMARK    1  A    between atoms: C5_5  and  N6_21 
REMARK    2  A    between atoms: C18_14  and  N17_19 
ROOT
HETATM    1  O1  MIQ B 502     -13.380   9.583  11.843  1.00142.91    -0.171 OA
HETATM    2  C2  MIQ B 502     -13.866   8.306  11.553  1.00141.17     0.195 A 
HETATM    3  C3  MIQ B 502     -13.196   6.952  11.950  1.00141.71     0.035 A 
HETATM    4  C4  MIQ B 502     -11.959   6.605  12.688  1.00142.86     0.046 A 
HETATM    5  C5  MIQ B 502     -11.605   5.248  12.898  1.00139.53     0.031 A 
HETATM    6  C12 MIQ B 502     -12.464   4.191  12.384  1.00139.38     0.030 A 
HETATM    7  C13 MIQ B 502     -13.651   4.523  11.677  1.00141.18     0.019 A 
HETATM    8  C14 MIQ B 502     -14.018   5.949  11.462  1.00138.77     0.033 A 
HETATM    9  C15 MIQ B 502     -15.205   6.685  10.760  1.00142.10     0.195 A 
HETATM   10  N17 MIQ B 502     -14.970   7.979  10.903  1.00139.42    -0.288 N 
HETATM   11  O16 MIQ B 502     -16.290   6.091  10.112  1.00148.93    -0.171 OA
ENDROOT
BRANCH  10  12
HETATM   12  C18 MIQ B 502     -15.868   8.977  10.354  1.00139.82     0.187 C 
HETATM   13  C19 MIQ B 502     -15.041   9.908   9.459  1.00140.06     0.247 C 
HETATM   14  O25 MIQ B 502     -14.343   9.441   8.630  1.00143.95    -0.271 OA
HETATM   15  N20 MIQ B 502     -15.096  11.349   9.597  1.00140.02    -0.296 N 
HETATM   16  H13 MIQ B 502     -14.547  11.946   9.011  1.00142.77     0.171 HD
HETATM   17  C21 MIQ B 502     -15.947  11.896  10.623  1.00142.22     0.224 C 
HETATM   18  C22 MIQ B 502     -16.089  11.083  11.895  1.00139.52     0.106 C 
HETATM   19  O24 MIQ B 502     -16.510  12.925  10.475  1.00146.13    -0.273 OA
HETATM   20  C23 MIQ B 502     -16.595   9.714  11.478  1.00139.15     0.045 C 
ENDBRANCH  10  12
BRANCH   5  21
HETATM   21  N6  MIQ B 502     -10.383   4.923  13.610  1.00140.95    -0.377 N 
HETATM   22  C7  MIQ B 502     -10.290   5.262  15.019  1.00142.12     0.149 C 
HETATM   23  C8  MIQ B 502      -8.847   5.476  15.458  1.00144.10     0.187 C 
HETATM   24  O9  MIQ B 502      -7.992   4.458  15.031  1.00148.65    -0.388 OA
HETATM   25  C10 MIQ B 502      -8.431   3.506  14.108  1.00147.44     0.187 C 
HETATM   26  C11 MIQ B 502      -9.481   3.916  13.080  1.00144.08     0.149 C 
ENDBRANCH   5  21
TORSDOF 2
ENDMDL
MODEL 7
REMARK VINA RESULT:      -6.5      1.707      2.450
REMARK  2 active torsions:
REMARK  status: ('A' for Active; 'I' for Inactive)
REMARK    1  A    between atoms: C5_5  and  N6_21 
REMARK    2  A    between atoms: C18_14  and  N17_19 
ROOT
HETATM    1  O1  MIQ B 502     -12.459   8.625  14.461  1.00142.91    -0.171 OA
HETATM    2  C2  MIQ B 502     -12.211   7.704  13.441  1.00141.17     0.195 A 
HETATM    3  C3  MIQ B 502     -13.086   7.483  12.166  1.00141.71     0.035 A 
HETATM    4  C4  MIQ B 502     -14.332   8.108  11.664  1.00142.86     0.046 A 
HETATM    5  C5  MIQ B 502     -14.904   7.684  10.437  1.00139.53     0.031 A 
HETATM    6  C12 MIQ B 502     -14.261   6.629   9.667  1.00139.38     0.030 A 
HETATM    7  C13 MIQ B 502     -13.065   6.030  10.148  1.00141.18     0.019 A 
HETATM    8  C14 MIQ B 502     -12.469   6.481  11.435  1.00138.77     0.033 A 
HETATM    9  C15 MIQ B 502     -11.203   6.078  12.260  1.00142.10     0.195 A 
HETATM   10  N17 MIQ B 502     -11.208   6.849  13.335  1.00139.42    -0.288 N 
HETATM   11  O16 MIQ B 502     -10.264   5.101  11.927  1.00148.93    -0.171 OA
ENDROOT
BRANCH  10  12
HETATM   12  C18 MIQ B 502     -10.176   6.741  14.350  1.00139.82     0.187 C 
HETATM   13  C19 MIQ B 502      -8.817   6.807  13.643  1.00140.06     0.247 C 
HETATM   14  O25 MIQ B 502      -8.602   7.688  12.888  1.00143.95    -0.271 OA
HETATM   15  N20 MIQ B 502      -7.784   5.819  13.880  1.00140.02    -0.296 N 
HETATM   16  H13 MIQ B 502      -6.903   5.869  13.407  1.00142.77     0.171 HD
HETATM   17  C21 MIQ B 502      -8.074   4.747  14.797  1.00142.22     0.224 C 
HETATM   18  C22 MIQ B 502      -9.509   4.258  14.842  1.00139.52     0.106 C 
HETATM   19  O24 MIQ B 502      -7.235   4.279  15.485  1.00146.13    -0.273 OA
HETATM   20  C23 MIQ B 502     -10.367   5.466  15.169  1.00139.15     0.045 C 
ENDBRANCH  10  12
BRANCH   5  21
HETATM   21  N6  MIQ B 502     -16.133   8.295   9.965  1.00140.95    -0.377 N 
HETATM   22  C7  MIQ B 502     -16.856   9.181  10.860  1.00142.12     0.149 C 
HETATM   23  C8  MIQ B 502     -18.345   9.223  10.539  1.00144.10     0.187 C 
HETATM   24  O9  MIQ B 502     -18.602   9.408   9.179  1.00148.65    -0.388 OA
HETATM   25  C10 MIQ B 502     -17.567   9.319   8.245  1.00147.44     0.187 C 
HETATM   26  C11 MIQ B 502     -16.396   8.388   8.540  1.00144.08     0.149 C 
ENDBRANCH   5  21
TORSDOF 2
ENDMDL
MODEL 8
REMARK VINA RESULT:      -6.4     14.568     17.774
REMARK  2 active torsions:
REMARK  status: ('A' for Active; 'I' for Inactive)
REMARK    1  A    between atoms: C5_5  and  N6_21 
REMARK    2  A    between atoms: C18_14  and  N17_19 
ROOT
HETATM    1  O1  MIQ B 502      -4.592  -4.314  20.565  1.00142.91    -0.171 OA
HETATM    2  C2  MIQ B 502      -4.088  -3.021  20.724  1.00141.17     0.195 A 
HETATM    3  C3  MIQ B 502      -3.739  -2.328  22.079  1.00141.71     0.035 A 
HETATM    4  C4  MIQ B 502      -3.813  -2.761  23.495  1.00142.86     0.046 A 
HETATM    5  C5  MIQ B 502      -3.413  -1.885  24.535  1.00139.53     0.031 A 
HETATM    6  C12 MIQ B 502      -2.926  -0.552  24.210  1.00139.38     0.030 A 
HETATM    7  C13 MIQ B 502      -2.853  -0.136  22.853  1.00141.18     0.019 A 
HETATM    8  C14 MIQ B 502      -3.273  -1.062  21.765  1.00138.77     0.033 A 
HETATM    9  C15 MIQ B 502      -3.332  -0.969  20.205  1.00142.10     0.195 A 
HETATM   10  N17 MIQ B 502      -3.801  -2.133  19.787  1.00139.42    -0.288 N 
HETATM   11  O16 MIQ B 502      -2.966   0.125  19.418  1.00148.93    -0.171 OA
ENDROOT
BRANCH  10  12
HETATM   12  C18 MIQ B 502      -4.008  -2.404  18.377  1.00139.82     0.187 C 
HETATM   13  C19 MIQ B 502      -5.339  -3.151  18.234  1.00140.06     0.247 C 
HETATM   14  O25 MIQ B 502      -6.306  -2.706  18.743  1.00143.95    -0.271 OA
HETATM   15  N20 MIQ B 502      -5.446  -4.387  17.486  1.00140.02    -0.296 N 
HETATM   16  H13 MIQ B 502      -6.320  -4.868  17.406  1.00142.77     0.171 HD
HETATM   17  C21 MIQ B 502      -4.250  -4.915  16.883  1.00142.22     0.224 C 
HETATM   18  C22 MIQ B 502      -2.950  -4.680  17.628  1.00139.52     0.106 C 
HETATM   19  O24 MIQ B 502      -4.281  -5.498  15.855  1.00146.13    -0.273 OA
HETATM   20  C23 MIQ B 502      -2.820  -3.178  17.805  1.00139.15     0.045 C 
ENDBRANCH  10  12
BRANCH   5  21
HETATM   21  N6  MIQ B 502      -3.505  -2.318  25.917  1.00140.95    -0.377 N 
HETATM   22  C7  MIQ B 502      -3.161  -3.692  26.239  1.00142.12     0.149 C 
HETATM   23  C8  MIQ B 502      -3.881  -4.180  27.490  1.00144.10     0.187 C 
HETATM   24  O9  MIQ B 502      -3.795  -3.279  28.553  1.00148.65    -0.388 OA
HETATM   25  C10 MIQ B 502      -3.296  -1.990  28.350  1.00147.44     0.187 C 
HETATM   26  C11 MIQ B 502      -3.499  -1.335  26.987  1.00144.08     0.149 C 
ENDBRANCH   5  21
TORSDOF 2
ENDMDL
MODEL 9
REMARK VINA RESULT:      -6.3     12.219     14.222
REMARK  2 active torsions:
REMARK  status: ('A' for Active; 'I' for Inactive)
REMARK    1  A    between atoms: C5_5  and  N6_21 
REMARK    2  A    between atoms: C18_14  and  N17_19 
ROOT
HETATM    1  O1  MIQ B 502     -13.367   1.871  22.309  1.00142.91    -0.171 OA
HETATM    2  C2  MIQ B 502     -14.109   2.045  23.480  1.00141.17     0.195 A 
HETATM    3  C3  MIQ B 502     -15.583   2.553  23.571  1.00141.71     0.035 A 
HETATM    4  C4  MIQ B 502     -16.581   2.971  22.558  1.00142.86     0.046 A 
HETATM    5  C5  MIQ B 502     -17.874   3.393  22.958  1.00139.53     0.031 A 
HETATM    6  C12 MIQ B 502     -18.223   3.414  24.372  1.00139.38     0.030 A 
HETATM    7  C13 MIQ B 502     -17.266   3.011  25.343  1.00141.18     0.019 A 
HETATM    8  C14 MIQ B 502     -15.911   2.567  24.917  1.00138.77     0.033 A 
HETATM    9  C15 MIQ B 502     -14.633   2.065  25.665  1.00142.10     0.195 A 
HETATM   10  N17 MIQ B 502     -13.734   1.818  24.727  1.00139.42    -0.288 N 
HETATM   11  O16 MIQ B 502     -14.478   1.913  27.044  1.00148.93    -0.171 OA
ENDROOT
BRANCH  10  12
HETATM   12  C18 MIQ B 502     -12.403   1.344  25.060  1.00139.82     0.187 C 
HETATM   13  C19 MIQ B 502     -12.557   0.116  25.965  1.00140.06     0.247 C 
HETATM   14  O25 MIQ B 502     -13.266  -0.764  25.626  1.00143.95    -0.271 OA
HETATM   15  N20 MIQ B 502     -11.850   0.002  27.224  1.00140.02    -0.296 N 
HETATM   16  H13 MIQ B 502     -11.964  -0.802  27.809  1.00142.77     0.171 HD
HETATM   17  C21 MIQ B 502     -10.999   1.094  27.621  1.00142.22     0.224 C 
HETATM   18  C22 MIQ B 502     -11.440   2.486  27.210  1.00139.52     0.106 C 
HETATM   19  O24 MIQ B 502     -10.003   0.912  28.231  1.00146.13    -0.273 OA
HETATM   20  C23 MIQ B 502     -11.585   2.465  25.700  1.00139.15     0.045 C 
ENDBRANCH  10  12
BRANCH   5  21
HETATM   21  N6  MIQ B 502     -18.837   3.814  21.957  1.00140.95    -0.377 N 
HETATM   22  C7  MIQ B 502     -20.244   3.538  22.187  1.00142.12     0.149 C 
HETATM   23  C8  MIQ B 502     -21.022   3.423  20.882  1.00144.10     0.187 C 
HETATM   24  O9  MIQ B 502     -20.756   4.469  19.997  1.00148.65    -0.388 OA
HETATM   25  C10 MIQ B 502     -19.707   5.358  20.246  1.00147.44     0.187 C 
HETATM   26  C11 MIQ B 502     -18.483   4.849  21.001  1.00144.08     0.149 C 
ENDBRANCH   5  21
TORSDOF 2
ENDMDL
