MODEL 1
REMARK VINA RESULT:      -7.5      0.000      0.000
REMARK  2 active torsions:
REMARK  status: ('A' for Active; 'I' for Inactive)
REMARK    1  A    between atoms: C5_5  and  N6_21 
REMARK    2  A    between atoms: C18_14  and  N17_19 
ROOT
HETATM    1  O1  MIQ B 502      12.977  -5.844  19.483  1.00142.91    -0.171 OA
HETATM    2  C2  MIQ B 502      13.244  -7.213  19.402  1.00141.17     0.195 A 
HETATM    3  C3  MIQ B 502      14.426  -7.963  20.094  1.00141.71     0.035 A 
HETATM    4  C4  MIQ B 502      15.536  -7.525  20.973  1.00142.86     0.046 A 
HETATM    5  C5  MIQ B 502      16.480  -8.466  21.458  1.00139.53     0.031 A 
HETATM    6  C12 MIQ B 502      16.356  -9.869  21.091  1.00139.38     0.030 A 
HETATM    7  C13 MIQ B 502      15.292 -10.290  20.249  1.00141.18     0.019 A 
HETATM    8  C14 MIQ B 502      14.303  -9.298  19.744  1.00138.77     0.033 A 
HETATM    9  C15 MIQ B 502      13.036  -9.377  18.831  1.00142.10     0.195 A 
HETATM   10  N17 MIQ B 502      12.570  -8.141  18.746  1.00139.42    -0.288 N 
HETATM   11  O16 MIQ B 502      12.509 -10.520  18.228  1.00148.93    -0.171 OA
ENDROOT
BRANCH  10  12
HETATM   12  C18 MIQ B 502      11.394  -7.828  17.956  1.00139.82     0.187 C 
HETATM   13  C19 MIQ B 502      11.811  -6.821  16.877  1.00140.06     0.247 C 
HETATM   14  O25 MIQ B 502      12.747  -7.057  16.199  1.00143.95    -0.271 OA
HETATM   15  N20 MIQ B 502      11.083  -5.587  16.661  1.00140.02    -0.296 N 
HETATM   16  H13 MIQ B 502      11.369  -4.935  15.958  1.00142.77     0.171 HD
HETATM   17  C21 MIQ B 502       9.950  -5.316  17.508  1.00142.22     0.224 C 
HETATM   18  C22 MIQ B 502      10.031  -5.819  18.937  1.00139.52     0.106 C 
HETATM   19  O24 MIQ B 502       9.002  -4.736  17.105  1.00146.13    -0.273 OA
HETATM   20  C23 MIQ B 502      10.270  -7.315  18.854  1.00139.15     0.045 C 
ENDBRANCH  10  12
BRANCH   5  21
HETATM   21  N6  MIQ B 502      17.571  -8.021  22.306  1.00140.95    -0.377 N 
HETATM   22  C7  MIQ B 502      17.812  -6.594  22.436  1.00142.12     0.149 C 
HETATM   23  C8  MIQ B 502      19.266  -6.291  22.773  1.00144.10     0.187 C 
HETATM   24  O9  MIQ B 502      19.757  -7.077  23.818  1.00148.65    -0.388 OA
HETATM   25  C10 MIQ B 502      19.017  -8.162  24.295  1.00147.44     0.187 C 
HETATM   26  C11 MIQ B 502      18.106  -8.907  23.325  1.00144.08     0.149 C 
ENDBRANCH   5  21
TORSDOF 2
ENDMDL
MODEL 2
REMARK VINA RESULT:      -7.0      1.852      3.108
REMARK  2 active torsions:
REMARK  status: ('A' for Active; 'I' for Inactive)
REMARK    1  A    between atoms: C5_5  and  N6_21 
REMARK    2  A    between atoms: C18_14  and  N17_19 
ROOT
HETATM    1  O1  MIQ B 502      12.521 -10.610  18.160  1.00142.91    -0.171 OA
HETATM    2  C2  MIQ B 502      13.023  -9.467  18.786  1.00141.17     0.195 A 
HETATM    3  C3  MIQ B 502      14.266  -9.404  19.730  1.00141.71     0.035 A 
HETATM    4  C4  MIQ B 502      15.224 -10.421  20.224  1.00142.86     0.046 A 
HETATM    5  C5  MIQ B 502      16.279 -10.050  21.094  1.00139.53     0.031 A 
HETATM    6  C12 MIQ B 502      16.421  -8.660  21.505  1.00139.38     0.030 A 
HETATM    7  C13 MIQ B 502      15.503  -7.684  21.032  1.00141.18     0.019 A 
HETATM    8  C14 MIQ B 502      14.399  -8.080  20.116  1.00138.77     0.033 A 
HETATM    9  C15 MIQ B 502      13.234  -7.317  19.406  1.00142.10     0.195 A 
HETATM   10  N17 MIQ B 502      12.572  -8.227  18.710  1.00139.42    -0.288 N 
HETATM   11  O16 MIQ B 502      12.952  -5.953  19.494  1.00148.93    -0.171 OA
ENDROOT
BRANCH  10  12
HETATM   12  C18 MIQ B 502      11.402  -7.878  17.926  1.00139.82     0.187 C 
HETATM   13  C19 MIQ B 502      11.836  -6.859  16.866  1.00140.06     0.247 C 
HETATM   14  O25 MIQ B 502      12.767  -7.099  16.183  1.00143.95    -0.271 OA
HETATM   15  N20 MIQ B 502      11.130  -5.608  16.674  1.00140.02    -0.296 N 
HETATM   16  H13 MIQ B 502      11.427  -4.948  15.983  1.00142.77     0.171 HD
HETATM   17  C21 MIQ B 502      10.002  -5.333  17.527  1.00142.22     0.224 C 
HETATM   18  C22 MIQ B 502      10.075  -5.863  18.946  1.00139.52     0.106 C 
HETATM   19  O24 MIQ B 502       9.065  -4.728  17.136  1.00146.13    -0.273 OA
HETATM   20  C23 MIQ B 502      10.287  -7.362  18.835  1.00139.15     0.045 C 
ENDBRANCH  10  12
BRANCH   5  21
HETATM   21  N6  MIQ B 502      17.201 -11.059  21.582  1.00140.95    -0.377 N 
HETATM   22  C7  MIQ B 502      17.293 -12.320  20.865  1.00142.12     0.149 C 
HETATM   23  C8  MIQ B 502      17.744 -13.458  21.772  1.00144.10     0.187 C 
HETATM   24  O9  MIQ B 502      18.860 -13.127  22.544  1.00148.65    -0.388 OA
HETATM   25  C10 MIQ B 502      19.314 -11.807  22.603  1.00147.44     0.187 C 
HETATM   26  C11 MIQ B 502      18.299 -10.679  22.454  1.00144.08     0.149 C 
ENDBRANCH   5  21
TORSDOF 2
ENDMDL
MODEL 3
REMARK VINA RESULT:      -6.4     20.950     22.413
REMARK  2 active torsions:
REMARK  status: ('A' for Active; 'I' for Inactive)
REMARK    1  A    between atoms: C5_5  and  N6_21 
REMARK    2  A    between atoms: C18_14  and  N17_19 
ROOT
HETATM    1  O1  MIQ B 502      -4.829 -11.362  30.203  1.00142.91    -0.171 OA
HETATM    2  C2  MIQ B 502      -4.304 -11.635  31.468  1.00141.17     0.195 A 
HETATM    3  C3  MIQ B 502      -3.433 -12.872  31.858  1.00141.71     0.035 A 
HETATM    4  C4  MIQ B 502      -2.925 -14.040  31.100  1.00142.86     0.046 A 
HETATM    5  C5  MIQ B 502      -2.136 -15.025  31.746  1.00139.53     0.031 A 
HETATM    6  C12 MIQ B 502      -1.823 -14.886  33.161  1.00139.38     0.030 A 
HETATM    7  C13 MIQ B 502      -2.309 -13.766  33.887  1.00141.18     0.019 A 
HETATM    8  C14 MIQ B 502      -3.135 -12.734  33.203  1.00138.77     0.033 A 
HETATM    9  C15 MIQ B 502      -3.824 -11.404  33.651  1.00142.10     0.195 A 
HETATM   10  N17 MIQ B 502      -4.423 -10.922  32.575  1.00139.42    -0.288 N 
HETATM   11  O16 MIQ B 502      -3.809 -10.844  34.930  1.00148.93    -0.171 OA
ENDROOT
BRANCH  10  12
HETATM   12  C18 MIQ B 502      -5.185  -9.688  32.620  1.00139.82     0.187 C 
HETATM   13  C19 MIQ B 502      -6.529  -9.943  31.925  1.00140.06     0.247 C 
HETATM   14  O25 MIQ B 502      -7.177 -10.874  32.249  1.00143.95    -0.271 OA
HETATM   15  N20 MIQ B 502      -7.028  -9.068  30.885  1.00140.02    -0.296 N 
HETATM   16  H13 MIQ B 502      -7.904  -9.249  30.434  1.00142.77     0.171 HD
HETATM   17  C21 MIQ B 502      -6.213  -7.944  30.500  1.00142.22     0.224 C 
HETATM   18  C22 MIQ B 502      -4.711  -8.139  30.563  1.00139.52     0.106 C 
HETATM   19  O24 MIQ B 502      -6.695  -6.921  30.157  1.00146.13    -0.273 OA
HETATM   20  C23 MIQ B 502      -4.389  -8.547  31.989  1.00139.15     0.045 C 
ENDBRANCH  10  12
BRANCH   5  21
HETATM   21  N6  MIQ B 502      -1.657 -16.171  30.995  1.00140.95    -0.377 N 
HETATM   22  C7  MIQ B 502      -1.935 -16.234  29.570  1.00142.12     0.149 C 
HETATM   23  C8  MIQ B 502      -1.978 -17.669  29.062  1.00144.10     0.187 C 
HETATM   24  O9  MIQ B 502      -0.890 -18.431  29.491  1.00148.65    -0.388 OA
HETATM   25  C10 MIQ B 502      -0.023 -17.937  30.469  1.00147.44     0.187 C 
HETATM   26  C11 MIQ B 502      -0.578 -16.986  31.524  1.00144.08     0.149 C 
ENDBRANCH   5  21
TORSDOF 2
ENDMDL
MODEL 4
REMARK VINA RESULT:      -6.2     25.822     28.826
REMARK  2 active torsions:
REMARK  status: ('A' for Active; 'I' for Inactive)
REMARK    1  A    between atoms: C5_5  and  N6_21 
REMARK    2  A    between atoms: C18_14  and  N17_19 
ROOT
HETATM    1  O1  MIQ B 502      -8.886   7.856  29.761  1.00142.91    -0.171 OA
HETATM    2  C2  MIQ B 502      -7.993   7.051  29.052  1.00141.17     0.195 A 
HETATM    3  C3  MIQ B 502      -8.030   6.763  27.517  1.00141.71     0.035 A 
HETATM    4  C4  MIQ B 502      -8.924   7.201  26.419  1.00142.86     0.046 A 
HETATM    5  C5  MIQ B 502      -8.697   6.761  25.091  1.00139.53     0.031 A 
HETATM    6  C12 MIQ B 502      -7.578   5.874  24.805  1.00139.38     0.030 A 
HETATM    7  C13 MIQ B 502      -6.720   5.454  25.857  1.00141.18     0.019 A 
HETATM    8  C14 MIQ B 502      -6.962   5.921  27.249  1.00138.77     0.033 A 
HETATM    9  C15 MIQ B 502      -6.258   5.687  28.625  1.00142.10     0.195 A 
HETATM   10  N17 MIQ B 502      -6.950   6.382  29.513  1.00139.42    -0.288 N 
HETATM   11  O16 MIQ B 502      -5.130   4.900  28.863  1.00148.93    -0.171 OA
ENDROOT
BRANCH  10  12
HETATM   12  C18 MIQ B 502      -6.590   6.387  30.918  1.00139.82     0.187 C 
HETATM   13  C19 MIQ B 502      -7.846   6.038  31.725  1.00140.06     0.247 C 
HETATM   14  O25 MIQ B 502      -8.470   5.080  31.434  1.00143.95    -0.271 OA
HETATM   15  N20 MIQ B 502      -8.288   6.850  32.840  1.00140.02    -0.296 N 
HETATM   16  H13 MIQ B 502      -9.114   6.615  33.355  1.00142.77     0.171 HD
HETATM   17  C21 MIQ B 502      -7.517   8.020  33.170  1.00142.22     0.224 C 
HETATM   18  C22 MIQ B 502      -6.859   8.750  32.015  1.00139.52     0.106 C 
HETATM   19  O24 MIQ B 502      -7.399   8.389  34.287  1.00146.13    -0.273 OA
HETATM   20  C23 MIQ B 502      -5.981   7.734  31.306  1.00139.15     0.045 C 
ENDBRANCH  10  12
BRANCH   5  21
HETATM   21  N6  MIQ B 502      -9.589   7.186  24.028  1.00140.95    -0.377 N 
HETATM   22  C7  MIQ B 502     -10.584   8.203  24.321  1.00142.12     0.149 C 
HETATM   23  C8  MIQ B 502     -11.798   8.092  23.408  1.00144.10     0.187 C 
HETATM   24  O9  MIQ B 502     -11.454   7.965  22.061  1.00148.65    -0.388 OA
HETATM   25  C10 MIQ B 502     -10.128   7.733  21.687  1.00147.44     0.187 C 
HETATM   26  C11 MIQ B 502      -9.227   6.955  22.640  1.00144.08     0.149 C 
ENDBRANCH   5  21
TORSDOF 2
ENDMDL
MODEL 5
REMARK VINA RESULT:      -6.1     21.712     22.582
REMARK  2 active torsions:
REMARK  status: ('A' for Active; 'I' for Inactive)
REMARK    1  A    between atoms: C5_5  and  N6_21 
REMARK    2  A    between atoms: C18_14  and  N17_19 
ROOT
HETATM    1  O1  MIQ B 502      -3.738 -10.767  34.960  1.00142.91    -0.171 OA
HETATM    2  C2  MIQ B 502      -3.804 -11.360  33.697  1.00141.17     0.195 A 
HETATM    3  C3  MIQ B 502      -3.101 -12.685  33.262  1.00141.71     0.035 A 
HETATM    4  C4  MIQ B 502      -2.227 -13.653  33.966  1.00142.86     0.046 A 
HETATM    5  C5  MIQ B 502      -1.730 -14.795  33.287  1.00139.53     0.031 A 
HETATM    6  C12 MIQ B 502      -2.082 -15.017  31.892  1.00139.38     0.030 A 
HETATM    7  C13 MIQ B 502      -2.921 -14.089  31.218  1.00141.18     0.019 A 
HETATM    8  C14 MIQ B 502      -3.442 -12.894  31.936  1.00138.77     0.033 A 
HETATM    9  C15 MIQ B 502      -4.362 -11.692  31.545  1.00142.10     0.195 A 
HETATM   10  N17 MIQ B 502      -4.463 -10.941  32.630  1.00139.42    -0.288 N 
HETATM   11  O16 MIQ B 502      -4.953 -11.461  30.302  1.00148.93    -0.171 OA
ENDROOT
BRANCH  10  12
HETATM   12  C18 MIQ B 502      -5.239  -9.715  32.633  1.00139.82     0.187 C 
HETATM   13  C19 MIQ B 502      -6.584 -10.011  31.959  1.00140.06     0.247 C 
HETATM   14  O25 MIQ B 502      -7.220 -10.935  32.323  1.00143.95    -0.271 OA
HETATM   15  N20 MIQ B 502      -7.100  -9.182  30.889  1.00140.02    -0.296 N 
HETATM   16  H13 MIQ B 502      -7.977  -9.390  30.452  1.00142.77     0.171 HD
HETATM   17  C21 MIQ B 502      -6.301  -8.066  30.455  1.00142.22     0.224 C 
HETATM   18  C22 MIQ B 502      -4.796  -8.241  30.515  1.00139.52     0.106 C 
HETATM   19  O24 MIQ B 502      -6.796  -7.062  30.076  1.00146.13    -0.273 OA
HETATM   20  C23 MIQ B 502      -4.459  -8.591  31.953  1.00139.15     0.045 C 
ENDBRANCH  10  12
BRANCH   5  21
HETATM   21  N6  MIQ B 502      -0.863 -15.727  33.984  1.00140.95    -0.377 N 
HETATM   22  C7  MIQ B 502      -1.114 -15.991  35.391  1.00142.12     0.149 C 
HETATM   23  C8  MIQ B 502       0.151 -16.418  36.124  1.00144.10     0.187 C 
HETATM   24  O9  MIQ B 502       0.862 -17.412  35.448  1.00148.65    -0.388 OA
HETATM   25  C10 MIQ B 502       0.521 -17.759  34.139  1.00147.44     0.187 C 
HETATM   26  C11 MIQ B 502      -0.075 -16.688  33.231  1.00144.08     0.149 C 
ENDBRANCH   5  21
TORSDOF 2
ENDMDL
MODEL 6
REMARK VINA RESULT:      -6.0     22.288     23.717
REMARK  2 active torsions:
REMARK  status: ('A' for Active; 'I' for Inactive)
REMARK    1  A    between atoms: C5_5  and  N6_21 
REMARK    2  A    between atoms: C18_14  and  N17_19 
ROOT
HETATM    1  O1  MIQ B 502      -5.090  -9.843  33.952  1.00142.91    -0.171 OA
HETATM    2  C2  MIQ B 502      -4.296 -10.960  33.681  1.00141.17     0.195 A 
HETATM    3  C3  MIQ B 502      -3.567 -11.850  34.737  1.00141.71     0.035 A 
HETATM    4  C4  MIQ B 502      -3.483 -11.816  36.216  1.00142.86     0.046 A 
HETATM    5  C5  MIQ B 502      -2.723 -12.788  36.914  1.00139.53     0.031 A 
HETATM    6  C12 MIQ B 502      -2.021 -13.825  36.172  1.00139.38     0.030 A 
HETATM    7  C13 MIQ B 502      -2.102 -13.860  34.754  1.00141.18     0.019 A 
HETATM    8  C14 MIQ B 502      -2.904 -12.838  34.027  1.00138.77     0.033 A 
HETATM    9  C15 MIQ B 502      -3.224 -12.559  32.522  1.00142.10     0.195 A 
HETATM   10  N17 MIQ B 502      -4.005 -11.491  32.507  1.00139.42    -0.288 N 
HETATM   11  O16 MIQ B 502      -2.772 -13.290  31.422  1.00148.93    -0.171 OA
ENDROOT
BRANCH  10  12
HETATM   12  C18 MIQ B 502      -4.493 -10.928  31.262  1.00139.82     0.187 C 
HETATM   13  C19 MIQ B 502      -4.233  -9.417  31.299  1.00140.06     0.247 C 
HETATM   14  O25 MIQ B 502      -3.153  -9.024  31.566  1.00143.95    -0.271 OA
HETATM   15  N20 MIQ B 502      -5.277  -8.455  31.008  1.00140.02    -0.296 N 
HETATM   16  H13 MIQ B 502      -5.096  -7.471  31.042  1.00142.77     0.171 HD
HETATM   17  C21 MIQ B 502      -6.589  -8.959  30.695  1.00142.22     0.224 C 
HETATM   18  C22 MIQ B 502      -7.015 -10.235  31.395  1.00139.52     0.106 C 
HETATM   19  O24 MIQ B 502      -7.296  -8.405  29.926  1.00146.13    -0.273 OA
HETATM   20  C23 MIQ B 502      -5.966 -11.280  31.060  1.00139.15     0.045 C 
ENDBRANCH  10  12
BRANCH   5  21
HETATM   21  N6  MIQ B 502      -2.637 -12.733  38.362  1.00140.95    -0.377 N 
HETATM   22  C7  MIQ B 502      -3.861 -12.546  39.123  1.00142.12     0.149 C 
HETATM   23  C8  MIQ B 502      -3.598 -11.882  40.469  1.00144.10     0.187 C 
HETATM   24  O9  MIQ B 502      -2.543 -12.471  41.169  1.00148.65    -0.388 OA
HETATM   25  C10 MIQ B 502      -1.713 -13.405  40.544  1.00147.44     0.187 C 
HETATM   26  C11 MIQ B 502      -1.478 -13.283  39.042  1.00144.08     0.149 C 
ENDBRANCH   5  21
TORSDOF 2
ENDMDL
MODEL 7
REMARK VINA RESULT:      -6.0     20.536     22.266
REMARK  2 active torsions:
REMARK  status: ('A' for Active; 'I' for Inactive)
REMARK    1  A    between atoms: C5_5  and  N6_21 
REMARK    2  A    between atoms: C18_14  and  N17_19 
ROOT
HETATM    1  O1  MIQ B 502      -4.002 -11.571  30.558  1.00142.91    -0.171 OA
HETATM    2  C2  MIQ B 502      -4.010 -11.925  31.909  1.00141.17     0.195 A 
HETATM    3  C3  MIQ B 502      -3.053 -12.948  32.600  1.00141.71     0.035 A 
HETATM    4  C4  MIQ B 502      -1.937 -13.792  32.110  1.00142.86     0.046 A 
HETATM    5  C5  MIQ B 502      -1.236 -14.643  33.001  1.00139.53     0.031 A 
HETATM    6  C12 MIQ B 502      -1.616 -14.688  34.406  1.00139.38     0.030 A 
HETATM    7  C13 MIQ B 502      -2.685 -13.879  34.877  1.00141.18     0.019 A 
HETATM    8  C14 MIQ B 502      -3.415 -12.985  33.937  1.00138.77     0.033 A 
HETATM    9  C15 MIQ B 502      -4.604 -11.978  34.076  1.00142.10     0.195 A 
HETATM   10  N17 MIQ B 502      -4.803 -11.479  32.868  1.00139.42    -0.288 N 
HETATM   11  O16 MIQ B 502      -5.309 -11.674  35.242  1.00148.93    -0.171 OA
ENDROOT
BRANCH  10  12
HETATM   12  C18 MIQ B 502      -5.852 -10.509  32.613  1.00139.82     0.187 C 
HETATM   13  C19 MIQ B 502      -6.612 -10.962  31.360  1.00140.06     0.247 C 
HETATM   14  O25 MIQ B 502      -7.012 -12.070  31.298  1.00143.95    -0.271 OA
HETATM   15  N20 MIQ B 502      -6.860 -10.064  30.250  1.00140.02    -0.296 N 
HETATM   16  H13 MIQ B 502      -7.351 -10.374  29.435  1.00142.77     0.171 HD
HETATM   17  C21 MIQ B 502      -6.353  -8.719  30.345  1.00142.22     0.224 C 
HETATM   18  C22 MIQ B 502      -5.046  -8.535  31.093  1.00139.52     0.106 C 
HETATM   19  O24 MIQ B 502      -6.931  -7.806  29.868  1.00146.13    -0.273 OA
HETATM   20  C23 MIQ B 502      -5.260  -9.107  32.483  1.00139.15     0.045 C 
ENDBRANCH  10  12
BRANCH   5  21
HETATM   21  N6  MIQ B 502      -0.155 -15.474  32.504  1.00140.95    -0.377 N 
HETATM   22  C7  MIQ B 502      -0.255 -16.012  31.158  1.00142.12     0.149 C 
HETATM   23  C8  MIQ B 502       0.536 -17.305  31.002  1.00144.10     0.187 C 
HETATM   24  O9  MIQ B 502       1.831 -17.215  31.515  1.00148.65    -0.388 OA
HETATM   25  C10 MIQ B 502       2.214 -16.112  32.283  1.00147.44     0.187 C 
HETATM   26  C11 MIQ B 502       1.155 -15.409  33.127  1.00144.08     0.149 C 
ENDBRANCH   5  21
TORSDOF 2
ENDMDL
MODEL 8
REMARK VINA RESULT:      -6.0     27.776     29.536
REMARK  2 active torsions:
REMARK  status: ('A' for Active; 'I' for Inactive)
REMARK    1  A    between atoms: C5_5  and  N6_21 
REMARK    2  A    between atoms: C18_14  and  N17_19 
ROOT
HETATM    1  O1  MIQ B 502     -16.313  -3.614  24.737  1.00142.91    -0.171 OA
HETATM    2  C2  MIQ B 502     -15.113  -3.085  24.258  1.00141.17     0.195 A 
HETATM    3  C3  MIQ B 502     -14.386  -1.812  24.798  1.00141.71     0.035 A 
HETATM    4  C4  MIQ B 502     -14.690  -0.847  25.882  1.00142.86     0.046 A 
HETATM    5  C5  MIQ B 502     -13.814   0.237  26.143  1.00139.53     0.031 A 
HETATM    6  C12 MIQ B 502     -12.610   0.402  25.341  1.00139.38     0.030 A 
HETATM    7  C13 MIQ B 502     -12.318  -0.523  24.303  1.00141.18     0.019 A 
HETATM    8  C14 MIQ B 502     -13.239  -1.661  24.036  1.00138.77     0.033 A 
HETATM    9  C15 MIQ B 502     -13.254  -2.847  23.017  1.00142.10     0.195 A 
HETATM   10  N17 MIQ B 502     -14.352  -3.538  23.276  1.00139.42    -0.288 N 
HETATM   11  O16 MIQ B 502     -12.301  -3.116  22.033  1.00148.93    -0.171 OA
ENDROOT
BRANCH  10  12
HETATM   12  C18 MIQ B 502     -14.706  -4.715  22.506  1.00139.82     0.187 C 
HETATM   13  C19 MIQ B 502     -13.467  -5.615  22.430  1.00140.06     0.247 C 
HETATM   14  O25 MIQ B 502     -12.897  -5.894  23.424  1.00143.95    -0.271 OA
HETATM   15  N20 MIQ B 502     -12.978  -6.138  21.171  1.00140.02    -0.296 N 
HETATM   16  H13 MIQ B 502     -12.164  -6.719  21.134  1.00142.77     0.171 HD
HETATM   17  C21 MIQ B 502     -13.685  -5.774  19.970  1.00142.22     0.224 C 
HETATM   18  C22 MIQ B 502     -14.308  -4.391  19.938  1.00139.52     0.106 C 
HETATM   19  O24 MIQ B 502     -13.778  -6.520  19.058  1.00146.13    -0.273 OA
HETATM   20  C23 MIQ B 502     -15.241  -4.311  21.133  1.00139.15     0.045 C 
ENDBRANCH  10  12
BRANCH   5  21
HETATM   21  N6  MIQ B 502     -14.132   1.182  27.197  1.00140.95    -0.377 N 
HETATM   22  C7  MIQ B 502     -14.366   0.675  28.538  1.00142.12     0.149 C 
HETATM   23  C8  MIQ B 502     -15.276   1.593  29.343  1.00144.10     0.187 C 
HETATM   24  O9  MIQ B 502     -14.896   2.935  29.271  1.00148.65    -0.388 OA
HETATM   25  C10 MIQ B 502     -13.925   3.347  28.355  1.00147.44     0.187 C 
HETATM   26  C11 MIQ B 502     -13.794   2.586  27.039  1.00144.08     0.149 C 
ENDBRANCH   5  21
TORSDOF 2
ENDMDL
MODEL 9
REMARK VINA RESULT:      -5.9     16.945     19.007
REMARK  2 active torsions:
REMARK  status: ('A' for Active; 'I' for Inactive)
REMARK    1  A    between atoms: C5_5  and  N6_21 
REMARK    2  A    between atoms: C18_14  and  N17_19 
ROOT
HETATM    1  O1  MIQ B 502       4.216   8.368  21.585  1.00142.91    -0.171 OA
HETATM    2  C2  MIQ B 502       3.744   7.174  22.136  1.00141.17     0.195 A 
HETATM    3  C3  MIQ B 502       3.350   6.941  23.630  1.00141.71     0.035 A 
HETATM    4  C4  MIQ B 502       3.340   7.812  24.829  1.00142.86     0.046 A 
HETATM    5  C5  MIQ B 502       2.915   7.301  26.082  1.00139.53     0.031 A 
HETATM    6  C12 MIQ B 502       2.486   5.914  26.189  1.00139.38     0.030 A 
HETATM    7  C13 MIQ B 502       2.494   5.079  25.039  1.00141.18     0.019 A 
HETATM    8  C14 MIQ B 502       2.939   5.621  23.726  1.00138.77     0.033 A 
HETATM    9  C15 MIQ B 502       3.079   5.032  22.284  1.00142.10     0.195 A 
HETATM   10  N17 MIQ B 502       3.532   6.019  21.529  1.00139.42    -0.288 N 
HETATM   11  O16 MIQ B 502       2.786   3.728  21.882  1.00148.93    -0.171 OA
ENDROOT
BRANCH  10  12
HETATM   12  C18 MIQ B 502       3.800   5.830  20.116  1.00139.82     0.187 C 
HETATM   13  C19 MIQ B 502       5.247   6.265  19.851  1.00140.06     0.247 C 
HETATM   14  O25 MIQ B 502       6.112   5.830  20.526  1.00143.95    -0.271 OA
HETATM   15  N20 MIQ B 502       5.584   7.192  18.791  1.00140.02    -0.296 N 
HETATM   16  H13 MIQ B 502       6.531   7.474  18.633  1.00142.77     0.171 HD
HETATM   17  C21 MIQ B 502       4.510   7.718  17.988  1.00142.22     0.224 C 
HETATM   18  C22 MIQ B 502       3.181   7.934  18.685  1.00139.52     0.106 C 
HETATM   19  O24 MIQ B 502       4.658   7.963  16.842  1.00146.13    -0.273 OA
HETATM   20  C23 MIQ B 502       2.779   6.593  19.274  1.00139.15     0.045 C 
ENDBRANCH  10  12
BRANCH   5  21
HETATM   21  N6  MIQ B 502       2.925   8.161  27.251  1.00140.95    -0.377 N 
HETATM   22  C7  MIQ B 502       1.661   8.471  27.896  1.00142.12     0.149 C 
HETATM   23  C8  MIQ B 502       1.709   9.804  28.631  1.00144.10     0.187 C 
HETATM   24  O9  MIQ B 502       2.840   9.938  29.439  1.00148.65    -0.388 OA
HETATM   25  C10 MIQ B 502       3.886   9.016  29.352  1.00147.44     0.187 C 
HETATM   26  C11 MIQ B 502       4.150   8.338  28.012  1.00144.08     0.149 C 
ENDBRANCH   5  21
TORSDOF 2
ENDMDL
