MODEL 1
REMARK VINA RESULT:      -8.2      0.000      0.000
REMARK  2 active torsions:
REMARK  status: ('A' for Active; 'I' for Inactive)
REMARK    1  A    between atoms: C5_5  and  N6_21 
REMARK    2  A    between atoms: C18_14  and  N17_19 
ROOT
HETATM    1  O1  MIQ B 502       8.945 -14.319   7.214  1.00142.91    -0.171 OA
HETATM    2  C2  MIQ B 502       8.162 -14.833   8.249  1.00141.17     0.195 A 
HETATM    3  C3  MIQ B 502       8.219 -14.403   9.750  1.00141.71     0.035 A 
HETATM    4  C4  MIQ B 502       9.031 -13.413  10.496  1.00142.86     0.046 A 
HETATM    5  C5  MIQ B 502       8.849 -13.243  11.892  1.00139.53     0.031 A 
HETATM    6  C12 MIQ B 502       7.859 -14.046  12.595  1.00139.38     0.030 A 
HETATM    7  C13 MIQ B 502       7.079 -14.995  11.879  1.00141.18     0.019 A 
HETATM    8  C14 MIQ B 502       7.273 -15.167  10.414  1.00138.77     0.033 A 
HETATM    9  C15 MIQ B 502       6.624 -16.076   9.319  1.00142.10     0.195 A 
HETATM   10  N17 MIQ B 502       7.226 -15.764   8.183  1.00139.42    -0.288 N 
HETATM   11  O16 MIQ B 502       5.617 -17.024   9.509  1.00148.93    -0.171 OA
ENDROOT
BRANCH  10  12
HETATM   12  C18 MIQ B 502       6.885 -16.429   6.939  1.00139.82     0.187 C 
HETATM   13  C19 MIQ B 502       5.360 -16.390   6.789  1.00140.06     0.247 C 
HETATM   14  O25 MIQ B 502       4.796 -15.360   6.906  1.00143.95    -0.271 OA
HETATM   15  N20 MIQ B 502       4.589 -17.582   6.501  1.00140.02    -0.296 N 
HETATM   16  H13 MIQ B 502       3.593 -17.544   6.413  1.00142.77     0.171 HD
HETATM   17  C21 MIQ B 502       5.298 -18.829   6.373  1.00142.22     0.224 C 
HETATM   18  C22 MIQ B 502       6.528 -19.006   7.243  1.00139.52     0.106 C 
HETATM   19  O24 MIQ B 502       4.941 -19.669   5.622  1.00146.13    -0.273 OA
HETATM   20  C23 MIQ B 502       7.454 -17.847   6.921  1.00139.15     0.045 C 
ENDBRANCH  10  12
BRANCH   5  21
HETATM   21  N6  MIQ B 502       9.662 -12.280  12.612  1.00140.95    -0.377 N 
HETATM   22  C7  MIQ B 502      10.628 -11.491  11.868  1.00142.12     0.149 C 
HETATM   23  C8  MIQ B 502      11.793 -11.044  12.742  1.00144.10     0.187 C 
HETATM   24  O9  MIQ B 502      11.380 -10.492  13.956  1.00148.65    -0.388 OA
HETATM   25  C10 MIQ B 502      10.045 -10.587  14.360  1.00147.44     0.187 C 
HETATM   26  C11 MIQ B 502       9.233 -11.798  13.914  1.00144.08     0.149 C 
ENDBRANCH   5  21
TORSDOF 2
ENDMDL
MODEL 2
REMARK VINA RESULT:      -8.2      3.070      4.050
REMARK  2 active torsions:
REMARK  status: ('A' for Active; 'I' for Inactive)
REMARK    1  A    between atoms: C5_5  and  N6_21 
REMARK    2  A    between atoms: C18_14  and  N17_19 
ROOT
HETATM    1  O1  MIQ B 502       9.466 -11.772   8.594  1.00142.91    -0.171 OA
HETATM    2  C2  MIQ B 502       8.947 -12.720   9.479  1.00141.17     0.195 A 
HETATM    3  C3  MIQ B 502       8.768 -12.543  11.020  1.00141.71     0.035 A 
HETATM    4  C4  MIQ B 502       9.052 -11.432  11.958  1.00142.86     0.046 A 
HETATM    5  C5  MIQ B 502       8.772 -11.571  13.341  1.00139.53     0.031 A 
HETATM    6  C12 MIQ B 502       8.202 -12.814  13.841  1.00139.38     0.030 A 
HETATM    7  C13 MIQ B 502       7.928 -13.880  12.942  1.00141.18     0.019 A 
HETATM    8  C14 MIQ B 502       8.222 -13.726  11.490  1.00138.77     0.033 A 
HETATM    9  C15 MIQ B 502       8.061 -14.643  10.234  1.00142.10     0.195 A 
HETATM   10  N17 MIQ B 502       8.505 -13.936   9.207  1.00139.42    -0.288 N 
HETATM   11  O16 MIQ B 502       7.553 -15.943  10.207  1.00148.93    -0.171 OA
ENDROOT
BRANCH  10  12
HETATM   12  C18 MIQ B 502       8.522 -14.482   7.863  1.00139.82     0.187 C 
HETATM   13  C19 MIQ B 502       9.896 -14.180   7.253  1.00140.06     0.247 C 
HETATM   14  O25 MIQ B 502      10.869 -14.464   7.856  1.00143.95    -0.271 OA
HETATM   15  N20 MIQ B 502      10.033 -13.559   5.951  1.00140.02    -0.296 N 
HETATM   16  H13 MIQ B 502      10.936 -13.361   5.567  1.00142.77     0.171 HD
HETATM   17  C21 MIQ B 502       8.831 -13.211   5.239  1.00142.22     0.224 C 
HETATM   18  C22 MIQ B 502       7.643 -12.780   6.078  1.00139.52     0.106 C 
HETATM   19  O24 MIQ B 502       8.773 -13.265   4.060  1.00146.13    -0.273 OA
HETATM   20  C23 MIQ B 502       7.362 -13.915   7.045  1.00139.15     0.045 C 
ENDBRANCH  10  12
BRANCH   5  21
HETATM   21  N6  MIQ B 502       9.070 -10.480  14.250  1.00140.95    -0.377 N 
HETATM   22  C7  MIQ B 502       8.015  -9.997  15.124  1.00142.12     0.149 C 
HETATM   23  C8  MIQ B 502       8.221  -8.538  15.513  1.00144.10     0.187 C 
HETATM   24  O9  MIQ B 502       9.522  -8.270  15.943  1.00148.65    -0.388 OA
HETATM   25  C10 MIQ B 502      10.531  -9.223  15.784  1.00147.44     0.187 C 
HETATM   26  C11 MIQ B 502      10.448 -10.183  14.602  1.00144.08     0.149 C 
ENDBRANCH   5  21
TORSDOF 2
ENDMDL
MODEL 3
REMARK VINA RESULT:      -8.1      1.125      2.288
REMARK  2 active torsions:
REMARK  status: ('A' for Active; 'I' for Inactive)
REMARK    1  A    between atoms: C5_5  and  N6_21 
REMARK    2  A    between atoms: C18_14  and  N17_19 
ROOT
HETATM    1  O1  MIQ B 502       6.316 -16.260   9.187  1.00142.91    -0.171 OA
HETATM    2  C2  MIQ B 502       7.333 -15.526   8.571  1.00141.17     0.195 A 
HETATM    3  C3  MIQ B 502       8.231 -14.445   9.251  1.00141.71     0.035 A 
HETATM    4  C4  MIQ B 502       8.301 -13.896  10.626  1.00142.86     0.046 A 
HETATM    5  C5  MIQ B 502       9.250 -12.894  10.951  1.00139.53     0.031 A 
HETATM    6  C12 MIQ B 502      10.161 -12.402   9.926  1.00139.38     0.030 A 
HETATM    7  C13 MIQ B 502      10.095 -12.929   8.608  1.00141.18     0.019 A 
HETATM    8  C14 MIQ B 502       9.098 -13.983   8.274  1.00138.77     0.033 A 
HETATM    9  C15 MIQ B 502       8.736 -14.783   6.981  1.00142.10     0.195 A 
HETATM   10  N17 MIQ B 502       7.745 -15.593   7.317  1.00139.42    -0.288 N 
HETATM   11  O16 MIQ B 502       9.338 -14.661   5.727  1.00148.93    -0.171 OA
ENDROOT
BRANCH  10  12
HETATM   12  C18 MIQ B 502       7.136 -16.486   6.350  1.00139.82     0.187 C 
HETATM   13  C19 MIQ B 502       5.627 -16.214   6.348  1.00140.06     0.247 C 
HETATM   14  O25 MIQ B 502       5.241 -15.106   6.227  1.00143.95    -0.271 OA
HETATM   15  N20 MIQ B 502       4.658 -17.283   6.485  1.00140.02    -0.296 N 
HETATM   16  H13 MIQ B 502       3.675 -17.091   6.489  1.00142.77     0.171 HD
HETATM   17  C21 MIQ B 502       5.153 -18.626   6.641  1.00142.22     0.224 C 
HETATM   18  C22 MIQ B 502       6.457 -18.788   7.399  1.00139.52     0.106 C 
HETATM   19  O24 MIQ B 502       4.573 -19.554   6.196  1.00146.13    -0.273 OA
HETATM   20  C23 MIQ B 502       7.485 -17.938   6.674  1.00139.15     0.045 C 
ENDBRANCH  10  12
BRANCH   5  21
HETATM   21  N6  MIQ B 502       9.298 -12.355  12.297  1.00140.95    -0.377 N 
HETATM   22  C7  MIQ B 502      10.095 -11.165  12.542  1.00142.12     0.149 C 
HETATM   23  C8  MIQ B 502      10.578 -11.090  13.984  1.00144.10     0.187 C 
HETATM   24  O9  MIQ B 502       9.560 -11.327  14.911  1.00148.65    -0.388 OA
HETATM   25  C10 MIQ B 502       8.318 -11.808  14.490  1.00147.44     0.187 C 
HETATM   26  C11 MIQ B 502       8.261 -12.700  13.254  1.00144.08     0.149 C 
ENDBRANCH   5  21
TORSDOF 2
ENDMDL
MODEL 4
REMARK VINA RESULT:      -8.0      2.734      3.880
REMARK  2 active torsions:
REMARK  status: ('A' for Active; 'I' for Inactive)
REMARK    1  A    between atoms: C5_5  and  N6_21 
REMARK    2  A    between atoms: C18_14  and  N17_19 
ROOT
HETATM    1  O1  MIQ B 502       9.287 -15.015  10.688  1.00142.91    -0.171 OA
HETATM    2  C2  MIQ B 502       8.987 -13.854   9.972  1.00141.17     0.195 A 
HETATM    3  C3  MIQ B 502       8.957 -12.400  10.543  1.00141.71     0.035 A 
HETATM    4  C4  MIQ B 502       9.212 -11.827  11.885  1.00142.86     0.046 A 
HETATM    5  C5  MIQ B 502       9.105 -10.430  12.100  1.00139.53     0.031 A 
HETATM    6  C12 MIQ B 502       8.744  -9.554  10.995  1.00139.38     0.030 A 
HETATM    7  C13 MIQ B 502       8.500 -10.103   9.707  1.00141.18     0.019 A 
HETATM    8  C14 MIQ B 502       8.615 -11.571   9.487  1.00138.77     0.033 A 
HETATM    9  C15 MIQ B 502       8.433 -12.515   8.254  1.00142.10     0.195 A 
HETATM   10  N17 MIQ B 502       8.677 -13.739   8.692  1.00139.42    -0.288 N 
HETATM   11  O16 MIQ B 502       8.082 -12.137   6.957  1.00148.93    -0.171 OA
ENDROOT
BRANCH  10  12
HETATM   12  C18 MIQ B 502       8.585 -14.890   7.813  1.00139.82     0.187 C 
HETATM   13  C19 MIQ B 502       9.324 -14.547   6.514  1.00140.06     0.247 C 
HETATM   14  O25 MIQ B 502      10.423 -14.123   6.572  1.00143.95    -0.271 OA
HETATM   15  N20 MIQ B 502       8.711 -14.733   5.215  1.00140.02    -0.296 N 
HETATM   16  H13 MIQ B 502       9.202 -14.499   4.374  1.00142.77     0.171 HD
HETATM   17  C21 MIQ B 502       7.365 -15.242   5.171  1.00142.22     0.224 C 
HETATM   18  C22 MIQ B 502       6.445 -14.834   6.305  1.00139.52     0.106 C 
HETATM   19  O24 MIQ B 502       6.999 -15.947   4.296  1.00146.13    -0.273 OA
HETATM   20  C23 MIQ B 502       7.123 -15.273   7.590  1.00139.15     0.045 C 
ENDBRANCH  10  12
BRANCH   5  21
HETATM   21  N6  MIQ B 502       9.344  -9.884  13.424  1.00140.95    -0.377 N 
HETATM   22  C7  MIQ B 502       8.207  -9.417  14.198  1.00142.12     0.149 C 
HETATM   23  C8  MIQ B 502       8.603  -8.338  15.198  1.00144.10     0.187 C 
HETATM   24  O9  MIQ B 502       9.734  -8.677  15.943  1.00148.65    -0.388 OA
HETATM   25  C10 MIQ B 502      10.504  -9.790  15.595  1.00147.44     0.187 C 
HETATM   26  C11 MIQ B 502      10.576 -10.196  14.127  1.00144.08     0.149 C 
ENDBRANCH   5  21
TORSDOF 2
ENDMDL
MODEL 5
REMARK VINA RESULT:      -7.9      3.159      3.908
REMARK  2 active torsions:
REMARK  status: ('A' for Active; 'I' for Inactive)
REMARK    1  A    between atoms: C5_5  and  N6_21 
REMARK    2  A    between atoms: C18_14  and  N17_19 
ROOT
HETATM    1  O1  MIQ B 502      10.714 -14.403   8.547  1.00142.91    -0.171 OA
HETATM    2  C2  MIQ B 502       9.811 -13.340   8.472  1.00141.17     0.195 A 
HETATM    3  C3  MIQ B 502       9.664 -12.179   9.506  1.00141.71     0.035 A 
HETATM    4  C4  MIQ B 502      10.359 -11.850  10.773  1.00142.86     0.046 A 
HETATM    5  C5  MIQ B 502       9.995 -10.695  11.511  1.00139.53     0.031 A 
HETATM    6  C12 MIQ B 502       8.933  -9.829  11.020  1.00139.38     0.030 A 
HETATM    7  C13 MIQ B 502       8.268 -10.144   9.805  1.00141.18     0.019 A 
HETATM    8  C14 MIQ B 502       8.656 -11.356   9.033  1.00138.77     0.033 A 
HETATM    9  C15 MIQ B 502       8.174 -12.009   7.697  1.00142.10     0.195 A 
HETATM   10  N17 MIQ B 502       8.915 -13.093   7.532  1.00139.42    -0.288 N 
HETATM   11  O16 MIQ B 502       7.164 -11.541   6.854  1.00148.93    -0.171 OA
ENDROOT
BRANCH  10  12
HETATM   12  C18 MIQ B 502       8.732 -13.968   6.389  1.00139.82     0.187 C 
HETATM   13  C19 MIQ B 502       8.419 -13.090   5.172  1.00140.06     0.247 C 
HETATM   14  O25 MIQ B 502       9.126 -12.180   4.921  1.00143.95    -0.271 OA
HETATM   15  N20 MIQ B 502       7.279 -13.349   4.316  1.00140.02    -0.296 N 
HETATM   16  H13 MIQ B 502       7.082 -12.764   3.528  1.00142.77     0.171 HD
HETATM   17  C21 MIQ B 502       6.424 -14.459   4.649  1.00142.22     0.224 C 
HETATM   18  C22 MIQ B 502       6.253 -14.768   6.124  1.00139.52     0.106 C 
HETATM   19  O24 MIQ B 502       5.888 -15.099   3.812  1.00146.13    -0.273 OA
HETATM   20  C23 MIQ B 502       7.646 -15.002   6.680  1.00139.15     0.045 C 
ENDBRANCH  10  12
BRANCH   5  21
HETATM   21  N6  MIQ B 502      10.674 -10.392  12.758  1.00140.95    -0.377 N 
HETATM   22  C7  MIQ B 502       9.989 -10.674  14.008  1.00142.12     0.149 C 
HETATM   23  C8  MIQ B 502      10.471  -9.770  15.136  1.00144.10     0.187 C 
HETATM   24  O9  MIQ B 502      11.863  -9.701  15.220  1.00148.65    -0.388 OA
HETATM   25  C10 MIQ B 502      12.661 -10.236  14.206  1.00147.44     0.187 C 
HETATM   26  C11 MIQ B 502      12.119 -10.245  12.780  1.00144.08     0.149 C 
ENDBRANCH   5  21
TORSDOF 2
ENDMDL
MODEL 6
REMARK VINA RESULT:      -7.8      2.778      8.852
REMARK  2 active torsions:
REMARK  status: ('A' for Active; 'I' for Inactive)
REMARK    1  A    between atoms: C5_5  and  N6_21 
REMARK    2  A    between atoms: C18_14  and  N17_19 
ROOT
HETATM    1  O1  MIQ B 502      10.580 -14.623  11.640  1.00142.91    -0.171 OA
HETATM    2  C2  MIQ B 502      10.200 -13.362  11.175  1.00141.17     0.195 A 
HETATM    3  C3  MIQ B 502       9.429 -13.062   9.849  1.00141.71     0.035 A 
HETATM    4  C4  MIQ B 502       8.899 -13.920   8.763  1.00142.86     0.046 A 
HETATM    5  C5  MIQ B 502       8.225 -13.341   7.658  1.00139.53     0.031 A 
HETATM    6  C12 MIQ B 502       8.052 -11.897   7.592  1.00139.38     0.030 A 
HETATM    7  C13 MIQ B 502       8.560 -11.075   8.634  1.00141.18     0.019 A 
HETATM    8  C14 MIQ B 502       9.265 -11.688   9.793  1.00138.77     0.033 A 
HETATM    9  C15 MIQ B 502       9.936 -11.132  11.090  1.00142.10     0.195 A 
HETATM   10  N17 MIQ B 502      10.400 -12.185  11.742  1.00139.42    -0.288 N 
HETATM   11  O16 MIQ B 502      10.027  -9.793  11.476  1.00148.93    -0.171 OA
ENDROOT
BRANCH  10  12
HETATM   12  C18 MIQ B 502      11.107 -12.046  13.001  1.00139.82     0.187 C 
HETATM   13  C19 MIQ B 502      10.218 -11.234  13.951  1.00140.06     0.247 C 
HETATM   14  O25 MIQ B 502       9.096 -11.562  14.110  1.00143.95    -0.271 OA
HETATM   15  N20 MIQ B 502      10.718 -10.076  14.663  1.00140.02    -0.296 N 
HETATM   16  H13 MIQ B 502      10.125  -9.550  15.275  1.00142.77     0.171 HD
HETATM   17  C21 MIQ B 502      12.088  -9.689  14.444  1.00142.22     0.224 C 
HETATM   18  C22 MIQ B 502      12.650  -9.930  13.057  1.00139.52     0.106 C 
HETATM   19  O24 MIQ B 502      12.740  -9.212  15.306  1.00146.13    -0.273 OA
HETATM   20  C23 MIQ B 502      12.479 -11.412  12.773  1.00139.15     0.045 C 
ENDBRANCH  10  12
BRANCH   5  21
HETATM   21  N6  MIQ B 502       7.724 -14.192   6.593  1.00140.95    -0.377 N 
HETATM   22  C7  MIQ B 502       7.307 -13.572   5.347  1.00142.12     0.149 C 
HETATM   23  C8  MIQ B 502       6.259 -14.404   4.621  1.00144.10     0.187 C 
HETATM   24  O9  MIQ B 502       6.604 -15.754   4.530  1.00148.65    -0.388 OA
HETATM   25  C10 MIQ B 502       7.688 -16.258   5.253  1.00147.44     0.187 C 
HETATM   26  C11 MIQ B 502       8.039 -15.609   6.588  1.00144.08     0.149 C 
ENDBRANCH   5  21
TORSDOF 2
ENDMDL
MODEL 7
REMARK VINA RESULT:      -7.3      2.178      8.576
REMARK  2 active torsions:
REMARK  status: ('A' for Active; 'I' for Inactive)
REMARK    1  A    between atoms: C5_5  and  N6_21 
REMARK    2  A    between atoms: C18_14  and  N17_19 
ROOT
HETATM    1  O1  MIQ B 502       9.691 -10.395   9.267  1.00142.91    -0.171 OA
HETATM    2  C2  MIQ B 502       9.330 -11.401  10.165  1.00141.17     0.195 A 
HETATM    3  C3  MIQ B 502       8.734 -12.797   9.795  1.00141.71     0.035 A 
HETATM    4  C4  MIQ B 502       8.392 -13.451   8.510  1.00142.86     0.046 A 
HETATM    5  C5  MIQ B 502       7.852 -14.762   8.494  1.00139.53     0.031 A 
HETATM    6  C12 MIQ B 502       7.634 -15.468   9.748  1.00139.38     0.030 A 
HETATM    7  C13 MIQ B 502       7.963 -14.842  10.981  1.00141.18     0.019 A 
HETATM    8  C14 MIQ B 502       8.531 -13.467  10.991  1.00138.77     0.033 A 
HETATM    9  C15 MIQ B 502       9.005 -12.482  12.109  1.00142.10     0.195 A 
HETATM   10  N17 MIQ B 502       9.418 -11.391  11.484  1.00139.42    -0.288 N 
HETATM   11  O16 MIQ B 502       8.990 -12.711  13.486  1.00148.93    -0.171 OA
ENDROOT
BRANCH  10  12
HETATM   12  C18 MIQ B 502       9.919 -10.243  12.216  1.00139.82     0.187 C 
HETATM   13  C19 MIQ B 502      10.987 -10.743  13.196  1.00140.06     0.247 C 
HETATM   14  O25 MIQ B 502      11.862 -11.426  12.796  1.00143.95    -0.271 OA
HETATM   15  N20 MIQ B 502      10.956 -10.394  14.602  1.00140.02    -0.296 N 
HETATM   16  H13 MIQ B 502      11.656 -10.733  15.233  1.00142.77     0.171 HD
HETATM   17  C21 MIQ B 502       9.873  -9.568  15.069  1.00142.22     0.224 C 
HETATM   18  C22 MIQ B 502       8.533  -9.750  14.382  1.00139.52     0.106 C 
HETATM   19  O24 MIQ B 502      10.024  -8.784  15.940  1.00146.13    -0.273 OA
HETATM   20  C23 MIQ B 502       8.770  -9.507  12.903  1.00139.15     0.045 C 
ENDBRANCH  10  12
BRANCH   5  21
HETATM   21  N6  MIQ B 502       7.508 -15.384   7.229  1.00140.95    -0.377 N 
HETATM   22  C7  MIQ B 502       8.528 -15.474   6.199  1.00142.12     0.149 C 
HETATM   23  C8  MIQ B 502       7.923 -15.524   4.802  1.00144.10     0.187 C 
HETATM   24  O9  MIQ B 502       6.882 -16.447   4.693  1.00148.65    -0.388 OA
HETATM   25  C10 MIQ B 502       6.350 -17.052   5.835  1.00147.44     0.187 C 
HETATM   26  C11 MIQ B 502       6.362 -16.273   7.146  1.00144.08     0.149 C 
ENDBRANCH   5  21
TORSDOF 2
ENDMDL
MODEL 8
REMARK VINA RESULT:      -7.3      3.208      4.269
REMARK  2 active torsions:
REMARK  status: ('A' for Active; 'I' for Inactive)
REMARK    1  A    between atoms: C5_5  and  N6_21 
REMARK    2  A    between atoms: C18_14  and  N17_19 
ROOT
HETATM    1  O1  MIQ B 502      10.157 -13.916   8.689  1.00142.91    -0.171 OA
HETATM    2  C2  MIQ B 502       9.514 -12.715   8.998  1.00141.17     0.195 A 
HETATM    3  C3  MIQ B 502       9.875 -11.752  10.173  1.00141.71     0.035 A 
HETATM    4  C4  MIQ B 502      10.909 -11.782  11.235  1.00142.86     0.046 A 
HETATM    5  C5  MIQ B 502      10.991 -10.733  12.185  1.00139.53     0.031 A 
HETATM    6  C12 MIQ B 502      10.055  -9.620  12.116  1.00139.38     0.030 A 
HETATM    7  C13 MIQ B 502       9.065  -9.590  11.097  1.00141.18     0.019 A 
HETATM    8  C14 MIQ B 502       8.985 -10.693  10.101  1.00138.77     0.033 A 
HETATM    9  C15 MIQ B 502       8.066 -11.000   8.873  1.00142.10     0.195 A 
HETATM   10  N17 MIQ B 502       8.494 -12.150   8.376  1.00139.42    -0.288 N 
HETATM   11  O16 MIQ B 502       7.010 -10.219   8.403  1.00148.93    -0.171 OA
ENDROOT
BRANCH  10  12
HETATM   12  C18 MIQ B 502       7.857 -12.760   7.224  1.00139.82     0.187 C 
HETATM   13  C19 MIQ B 502       7.763 -14.268   7.486  1.00140.06     0.247 C 
HETATM   14  O25 MIQ B 502       7.295 -14.648   8.500  1.00143.95    -0.271 OA
HETATM   15  N20 MIQ B 502       8.227 -15.242   6.520  1.00140.02    -0.296 N 
HETATM   16  H13 MIQ B 502       8.166 -16.224   6.706  1.00142.77     0.171 HD
HETATM   17  C21 MIQ B 502       8.804 -14.753   5.294  1.00142.22     0.224 C 
HETATM   18  C22 MIQ B 502       9.579 -13.452   5.376  1.00139.52     0.106 C 
HETATM   19  O24 MIQ B 502       8.673 -15.336   4.274  1.00146.13    -0.273 OA
HETATM   20  C23 MIQ B 502       8.626 -12.419   5.949  1.00139.15     0.045 C 
ENDBRANCH  10  12
BRANCH   5  21
HETATM   21  N6  MIQ B 502      11.998 -10.783  13.229  1.00140.95    -0.377 N 
HETATM   22  C7  MIQ B 502      13.338 -10.309  12.925  1.00142.12     0.149 C 
HETATM   23  C8  MIQ B 502      14.390 -10.979  13.800  1.00144.10     0.187 C 
HETATM   24  O9  MIQ B 502      14.050 -10.979  15.154  1.00148.65    -0.388 OA
HETATM   25  C10 MIQ B 502      12.768 -10.605  15.562  1.00147.44     0.187 C 
HETATM   26  C11 MIQ B 502      11.596 -10.870  14.622  1.00144.08     0.149 C 
ENDBRANCH   5  21
TORSDOF 2
ENDMDL
MODEL 9
REMARK VINA RESULT:      -7.1      3.161      4.120
REMARK  2 active torsions:
REMARK  status: ('A' for Active; 'I' for Inactive)
REMARK    1  A    between atoms: C5_5  and  N6_21 
REMARK    2  A    between atoms: C18_14  and  N17_19 
ROOT
HETATM    1  O1  MIQ B 502       7.108 -10.308   8.540  1.00142.91    -0.171 OA
HETATM    2  C2  MIQ B 502       8.004 -11.356   8.763  1.00141.17     0.195 A 
HETATM    3  C3  MIQ B 502       8.858 -11.580  10.052  1.00141.71     0.035 A 
HETATM    4  C4  MIQ B 502       8.988 -10.841  11.330  1.00142.86     0.046 A 
HETATM    5  C5  MIQ B 502       9.869 -11.304  12.339  1.00139.53     0.031 A 
HETATM    6  C12 MIQ B 502      10.649 -12.513  12.119  1.00139.38     0.030 A 
HETATM    7  C13 MIQ B 502      10.524 -13.223  10.894  1.00141.18     0.019 A 
HETATM    8  C14 MIQ B 502       9.596 -12.733   9.839  1.00138.77     0.033 A 
HETATM    9  C15 MIQ B 502       9.197 -13.228   8.410  1.00142.10     0.195 A 
HETATM   10  N17 MIQ B 502       8.309 -12.358   7.957  1.00139.42    -0.288 N 
HETATM   11  O16 MIQ B 502       9.685 -14.357   7.750  1.00148.93    -0.171 OA
ENDROOT
BRANCH  10  12
HETATM   12  C18 MIQ B 502       7.723 -12.493   6.637  1.00139.82     0.187 C 
HETATM   13  C19 MIQ B 502       7.359 -13.969   6.434  1.00140.06     0.247 C 
HETATM   14  O25 MIQ B 502       6.722 -14.523   7.258  1.00143.95    -0.271 OA
HETATM   15  N20 MIQ B 502       7.772 -14.703   5.256  1.00140.02    -0.296 N 
HETATM   16  H13 MIQ B 502       7.534 -15.668   5.139  1.00142.77     0.171 HD
HETATM   17  C21 MIQ B 502       8.559 -14.008   4.270  1.00142.22     0.224 C 
HETATM   18  C22 MIQ B 502       9.516 -12.950   4.784  1.00139.52     0.106 C 
HETATM   19  O24 MIQ B 502       8.457 -14.248   3.117  1.00146.13    -0.273 OA
HETATM   20  C23 MIQ B 502       8.680 -11.958   5.573  1.00139.15     0.045 C 
ENDBRANCH  10  12
BRANCH   5  21
HETATM   21  N6  MIQ B 502       9.997 -10.561  13.580  1.00140.95    -0.377 N 
HETATM   22  C7  MIQ B 502       8.796 -10.273  14.345  1.00142.12     0.149 C 
HETATM   23  C8  MIQ B 502       8.950  -9.019  15.196  1.00144.10     0.187 C 
HETATM   24  O9  MIQ B 502      10.141  -9.001  15.925  1.00148.65    -0.388 OA
HETATM   25  C10 MIQ B 502      11.140  -9.944  15.673  1.00147.44     0.187 C 
HETATM   26  C11 MIQ B 502      11.280 -10.499  14.259  1.00144.08     0.149 C 
ENDBRANCH   5  21
TORSDOF 2
ENDMDL
