MODEL 1
REMARK VINA RESULT:      -7.5      0.000      0.000
REMARK  2 active torsions:
REMARK  status: ('A' for Active; 'I' for Inactive)
REMARK    1  A    between atoms: C5_5  and  N6_21 
REMARK    2  A    between atoms: C18_14  and  N17_19 
ROOT
HETATM    1  O1  MIQ B 502     -16.342  -1.356  -7.539  1.00142.91    -0.171 OA
HETATM    2  C2  MIQ B 502     -16.918  -1.164  -8.797  1.00141.17     0.195 A 
HETATM    3  C3  MIQ B 502     -16.460  -0.128  -9.873  1.00141.71     0.035 A 
HETATM    4  C4  MIQ B 502     -15.378   0.884  -9.917  1.00142.86     0.046 A 
HETATM    5  C5  MIQ B 502     -15.205   1.698 -11.065  1.00139.53     0.031 A 
HETATM    6  C12 MIQ B 502     -16.096   1.538 -12.206  1.00139.38     0.030 A 
HETATM    7  C13 MIQ B 502     -17.133   0.567 -12.163  1.00141.18     0.019 A 
HETATM    8  C14 MIQ B 502     -17.308  -0.286 -10.957  1.00138.77     0.033 A 
HETATM    9  C15 MIQ B 502     -18.297  -1.427 -10.552  1.00142.10     0.195 A 
HETATM   10  N17 MIQ B 502     -17.943  -1.802  -9.334  1.00139.42    -0.288 N 
HETATM   11  O16 MIQ B 502     -19.342  -1.940 -11.322  1.00148.93    -0.171 OA
ENDROOT
BRANCH  10  12
HETATM   12  C18 MIQ B 502     -18.661  -2.845  -8.624  1.00139.82     0.187 C 
HETATM   13  C19 MIQ B 502     -18.965  -2.326  -7.213  1.00140.06     0.247 C 
HETATM   14  O25 MIQ B 502     -19.480  -1.273  -7.086  1.00143.95    -0.271 OA
HETATM   15  N20 MIQ B 502     -18.643  -3.097  -6.030  1.00140.02    -0.296 N 
HETATM   16  H13 MIQ B 502     -18.841  -2.745  -5.114  1.00142.77     0.171 HD
HETATM   17  C21 MIQ B 502     -18.005  -4.376  -6.211  1.00142.22     0.224 C 
HETATM   18  C22 MIQ B 502     -17.056  -4.503  -7.386  1.00139.52     0.106 C 
HETATM   19  O24 MIQ B 502     -18.218  -5.281  -5.481  1.00146.13    -0.273 OA
HETATM   20  C23 MIQ B 502     -17.853  -4.142  -8.626  1.00139.15     0.045 C 
ENDBRANCH  10  12
BRANCH   5  21
HETATM   21  N6  MIQ B 502     -14.150   2.695 -11.089  1.00140.95    -0.377 N 
HETATM   22  C7  MIQ B 502     -14.440   3.999 -11.660  1.00142.12     0.149 C 
HETATM   23  C8  MIQ B 502     -13.188   4.674 -12.204  1.00144.10     0.187 C 
HETATM   24  O9  MIQ B 502     -12.119   4.639 -11.307  1.00148.65    -0.388 OA
HETATM   25  C10 MIQ B 502     -12.187   3.852 -10.155  1.00147.44     0.187 C 
HETATM   26  C11 MIQ B 502     -13.013   2.570 -10.195  1.00144.08     0.149 C 
ENDBRANCH   5  21
TORSDOF 2
ENDMDL
MODEL 2
REMARK VINA RESULT:      -7.0      1.911      2.529
REMARK  2 active torsions:
REMARK  status: ('A' for Active; 'I' for Inactive)
REMARK    1  A    between atoms: C5_5  and  N6_21 
REMARK    2  A    between atoms: C18_14  and  N17_19 
ROOT
HETATM    1  O1  MIQ B 502     -14.549   0.647  -7.874  1.00142.91    -0.171 OA
HETATM    2  C2  MIQ B 502     -15.492   0.246  -8.823  1.00141.17     0.195 A 
HETATM    3  C3  MIQ B 502     -15.819   0.977 -10.164  1.00141.71     0.035 A 
HETATM    4  C4  MIQ B 502     -15.295   2.204 -10.810  1.00142.86     0.046 A 
HETATM    5  C5  MIQ B 502     -15.803   2.626 -12.065  1.00139.53     0.031 A 
HETATM    6  C12 MIQ B 502     -16.845   1.849 -12.721  1.00139.38     0.030 A 
HETATM    7  C13 MIQ B 502     -17.346   0.672 -12.103  1.00141.18     0.019 A 
HETATM    8  C14 MIQ B 502     -16.808   0.232 -10.787  1.00138.77     0.033 A 
HETATM    9  C15 MIQ B 502     -17.095  -0.969  -9.827  1.00142.10     0.195 A 
HETATM   10  N17 MIQ B 502     -16.284  -0.812  -8.794  1.00139.42    -0.288 N 
HETATM   11  O16 MIQ B 502     -18.023  -1.993 -10.024  1.00148.93    -0.171 OA
ENDROOT
BRANCH  10  12
HETATM   12  C18 MIQ B 502     -16.285  -1.745  -7.682  1.00139.82     0.187 C 
HETATM   13  C19 MIQ B 502     -16.049  -3.150  -8.250  1.00140.06     0.247 C 
HETATM   14  O25 MIQ B 502     -15.137  -3.332  -8.976  1.00143.95    -0.271 OA
HETATM   15  N20 MIQ B 502     -16.911  -4.264  -7.915  1.00140.02    -0.296 N 
HETATM   16  H13 MIQ B 502     -16.750  -5.175  -8.298  1.00142.77     0.171 HD
HETATM   17  C21 MIQ B 502     -18.024  -4.015  -7.035  1.00142.22     0.224 C 
HETATM   18  C22 MIQ B 502     -18.680  -2.652  -7.136  1.00139.52     0.106 C 
HETATM   19  O24 MIQ B 502     -18.401  -4.833  -6.269  1.00146.13    -0.273 OA
HETATM   20  C23 MIQ B 502     -17.587  -1.628  -6.891  1.00139.15     0.045 C 
ENDBRANCH  10  12
BRANCH   5  21
HETATM   21  N6  MIQ B 502     -15.291   3.837 -12.679  1.00140.95    -0.377 N 
HETATM   22  C7  MIQ B 502     -15.953   5.097 -12.386  1.00142.12     0.149 C 
HETATM   23  C8  MIQ B 502     -15.775   6.108 -13.512  1.00144.10     0.187 C 
HETATM   24  O9  MIQ B 502     -14.452   6.215 -13.943  1.00148.65    -0.388 OA
HETATM   25  C10 MIQ B 502     -13.490   5.298 -13.510  1.00147.44     0.187 C 
HETATM   26  C11 MIQ B 502     -13.933   3.873 -13.191  1.00144.08     0.149 C 
ENDBRANCH   5  21
TORSDOF 2
ENDMDL
MODEL 3
REMARK VINA RESULT:      -7.0      2.094      8.110
REMARK  2 active torsions:
REMARK  status: ('A' for Active; 'I' for Inactive)
REMARK    1  A    between atoms: C5_5  and  N6_21 
REMARK    2  A    between atoms: C18_14  and  N17_19 
ROOT
HETATM    1  O1  MIQ B 502     -12.858   1.345  -9.888  1.00142.91    -0.171 OA
HETATM    2  C2  MIQ B 502     -14.042   1.180 -10.611  1.00141.17     0.195 A 
HETATM    3  C3  MIQ B 502     -15.215   0.214 -10.251  1.00141.71     0.035 A 
HETATM    4  C4  MIQ B 502     -15.442  -0.745  -9.143  1.00142.86     0.046 A 
HETATM    5  C5  MIQ B 502     -16.640  -1.501  -9.084  1.00139.53     0.031 A 
HETATM    6  C12 MIQ B 502     -17.652  -1.333 -10.117  1.00139.38     0.030 A 
HETATM    7  C13 MIQ B 502     -17.435  -0.414 -11.178  1.00141.18     0.019 A 
HETATM    8  C14 MIQ B 502     -16.177   0.379 -11.234  1.00138.77     0.033 A 
HETATM    9  C15 MIQ B 502     -15.598   1.455 -12.210  1.00142.10     0.195 A 
HETATM   10  N17 MIQ B 502     -14.417   1.794 -11.720  1.00139.42    -0.288 N 
HETATM   11  O16 MIQ B 502     -16.207   1.951 -13.363  1.00148.93    -0.171 OA
ENDROOT
BRANCH  10  12
HETATM   12  C18 MIQ B 502     -13.574   2.771 -12.384  1.00139.82     0.187 C 
HETATM   13  C19 MIQ B 502     -12.223   2.106 -12.672  1.00140.06     0.247 C 
HETATM   14  O25 MIQ B 502     -12.201   1.061 -13.220  1.00143.95    -0.271 OA
HETATM   15  N20 MIQ B 502     -10.970   2.726 -12.295  1.00140.02    -0.296 N 
HETATM   16  H13 MIQ B 502     -10.095   2.278 -12.483  1.00142.77     0.171 HD
HETATM   17  C21 MIQ B 502     -11.023   3.996 -11.618  1.00142.22     0.224 C 
HETATM   18  C22 MIQ B 502     -12.202   4.226 -10.693  1.00139.52     0.106 C 
HETATM   19  O24 MIQ B 502     -10.190   4.819 -11.781  1.00146.13    -0.273 OA
HETATM   20  C23 MIQ B 502     -13.452   4.034 -11.532  1.00139.15     0.045 C 
ENDBRANCH  10  12
BRANCH   5  21
HETATM   21  N6  MIQ B 502     -16.843  -2.446  -8.001  1.00140.95    -0.377 N 
HETATM   22  C7  MIQ B 502     -15.688  -3.142  -7.461  1.00142.12     0.149 C 
HETATM   23  C8  MIQ B 502     -16.067  -4.486  -6.853  1.00144.10     0.187 C 
HETATM   24  O9  MIQ B 502     -17.168  -4.405  -5.998  1.00148.65    -0.388 OA
HETATM   25  C10 MIQ B 502     -17.933  -3.237  -5.939  1.00147.44     0.187 C 
HETATM   26  C11 MIQ B 502     -18.047  -2.376  -7.192  1.00144.08     0.149 C 
ENDBRANCH   5  21
TORSDOF 2
ENDMDL
MODEL 4
REMARK VINA RESULT:      -7.0      1.513      2.619
REMARK  2 active torsions:
REMARK  status: ('A' for Active; 'I' for Inactive)
REMARK    1  A    between atoms: C5_5  and  N6_21 
REMARK    2  A    between atoms: C18_14  and  N17_19 
ROOT
HETATM    1  O1  MIQ B 502     -18.654  -1.708 -11.405  1.00142.91    -0.171 OA
HETATM    2  C2  MIQ B 502     -17.794  -1.170 -10.445  1.00141.17     0.195 A 
HETATM    3  C3  MIQ B 502     -16.892   0.093 -10.620  1.00141.71     0.035 A 
HETATM    4  C4  MIQ B 502     -16.671   1.041 -11.738  1.00142.86     0.046 A 
HETATM    5  C5  MIQ B 502     -15.765   2.122 -11.593  1.00139.53     0.031 A 
HETATM    6  C12 MIQ B 502     -15.048   2.301 -10.338  1.00139.38     0.030 A 
HETATM    7  C13 MIQ B 502     -15.261   1.393  -9.266  1.00141.18     0.019 A 
HETATM    8  C14 MIQ B 502     -16.215   0.261  -9.423  1.00138.77     0.033 A 
HETATM    9  C15 MIQ B 502     -16.701  -0.903  -8.500  1.00142.10     0.195 A 
HETATM   10  N17 MIQ B 502     -17.570  -1.598  -9.215  1.00139.42    -0.288 N 
HETATM   11  O16 MIQ B 502     -16.293  -1.156  -7.189  1.00148.93    -0.171 OA
ENDROOT
BRANCH  10  12
HETATM   12  C18 MIQ B 502     -18.223  -2.777  -8.677  1.00139.82     0.187 C 
HETATM   13  C19 MIQ B 502     -18.796  -2.409  -7.303  1.00140.06     0.247 C 
HETATM   14  O25 MIQ B 502     -19.471  -1.447  -7.200  1.00143.95    -0.271 OA
HETATM   15  N20 MIQ B 502     -18.537  -3.214  -6.127  1.00140.02    -0.296 N 
HETATM   16  H13 MIQ B 502     -18.912  -2.959  -5.234  1.00142.77     0.171 HD
HETATM   17  C21 MIQ B 502     -17.702  -4.378  -6.276  1.00142.22     0.224 C 
HETATM   18  C22 MIQ B 502     -16.587  -4.289  -7.300  1.00139.52     0.106 C 
HETATM   19  O24 MIQ B 502     -17.883  -5.354  -5.635  1.00146.13    -0.273 OA
HETATM   20  C23 MIQ B 502     -17.244  -3.949  -8.625  1.00139.15     0.045 C 
ENDBRANCH  10  12
BRANCH   5  21
HETATM   21  N6  MIQ B 502     -15.547   3.034 -12.701  1.00140.95    -0.377 N 
HETATM   22  C7  MIQ B 502     -16.665   3.342 -13.577  1.00142.12     0.149 C 
HETATM   23  C8  MIQ B 502     -16.201   3.734 -14.974  1.00144.10     0.187 C 
HETATM   24  O9  MIQ B 502     -15.175   4.681 -14.960  1.00148.65    -0.388 OA
HETATM   25  C10 MIQ B 502     -14.531   5.010 -13.765  1.00147.44     0.187 C 
HETATM   26  C11 MIQ B 502     -14.414   3.942 -12.682  1.00144.08     0.149 C 
ENDBRANCH   5  21
TORSDOF 2
ENDMDL
MODEL 5
REMARK VINA RESULT:      -7.0      2.348      8.124
REMARK  2 active torsions:
REMARK  status: ('A' for Active; 'I' for Inactive)
REMARK    1  A    between atoms: C5_5  and  N6_21 
REMARK    2  A    between atoms: C18_14  and  N17_19 
ROOT
HETATM    1  O1  MIQ B 502     -16.018   2.122 -10.113  1.00142.91    -0.171 OA
HETATM    2  C2  MIQ B 502     -15.108   1.115 -10.444  1.00141.17     0.195 A 
HETATM    3  C3  MIQ B 502     -15.072  -0.328  -9.848  1.00141.71     0.035 A 
HETATM    4  C4  MIQ B 502     -15.900  -1.037  -8.843  1.00142.86     0.046 A 
HETATM    5  C5  MIQ B 502     -15.616  -2.383  -8.500  1.00139.53     0.031 A 
HETATM    6  C12 MIQ B 502     -14.503  -3.071  -9.139  1.00139.38     0.030 A 
HETATM    7  C13 MIQ B 502     -13.710  -2.393 -10.103  1.00141.18     0.019 A 
HETATM    8  C14 MIQ B 502     -14.015  -0.980 -10.461  1.00138.77     0.033 A 
HETATM    9  C15 MIQ B 502     -13.392   0.063 -11.444  1.00142.10     0.195 A 
HETATM   10  N17 MIQ B 502     -14.114   1.164 -11.314  1.00139.42    -0.288 N 
HETATM   11  O16 MIQ B 502     -12.294  -0.131 -12.284  1.00148.93    -0.171 OA
ENDROOT
BRANCH  10  12
HETATM   12  C18 MIQ B 502     -13.811   2.363 -12.073  1.00139.82     0.187 C 
HETATM   13  C19 MIQ B 502     -13.704   3.529 -11.082  1.00140.06     0.247 C 
HETATM   14  O25 MIQ B 502     -13.008   3.419 -10.136  1.00143.95    -0.271 OA
HETATM   15  N20 MIQ B 502     -14.430   4.767 -11.278  1.00140.02    -0.296 N 
HETATM   16  H13 MIQ B 502     -14.357   5.518 -10.621  1.00142.77     0.171 HD
HETATM   17  C21 MIQ B 502     -15.281   4.873 -12.436  1.00142.22     0.224 C 
HETATM   18  C22 MIQ B 502     -15.966   3.601 -12.897  1.00139.52     0.106 C 
HETATM   19  O24 MIQ B 502     -15.432   5.901 -12.999  1.00146.13    -0.273 OA
HETATM   20  C23 MIQ B 502     -14.865   2.588 -13.155  1.00139.15     0.045 C 
ENDBRANCH  10  12
BRANCH   5  21
HETATM   21  N6  MIQ B 502     -16.426  -3.060  -7.504  1.00140.95    -0.377 N 
HETATM   22  C7  MIQ B 502     -15.893  -4.253  -6.870  1.00142.12     0.149 C 
HETATM   23  C8  MIQ B 502     -16.999  -5.182  -6.386  1.00144.10     0.187 C 
HETATM   24  O9  MIQ B 502     -17.992  -4.516  -5.666  1.00148.65    -0.388 OA
HETATM   25  C10 MIQ B 502     -18.027  -3.119  -5.633  1.00147.44     0.187 C 
HETATM   26  C11 MIQ B 502     -17.505  -2.349  -6.841  1.00144.08     0.149 C 
ENDBRANCH   5  21
TORSDOF 2
ENDMDL
MODEL 6
REMARK VINA RESULT:      -6.9      2.135      8.422
REMARK  2 active torsions:
REMARK  status: ('A' for Active; 'I' for Inactive)
REMARK    1  A    between atoms: C5_5  and  N6_21 
REMARK    2  A    between atoms: C18_14  and  N17_19 
ROOT
HETATM    1  O1  MIQ B 502     -17.256   0.807 -11.608  1.00142.91    -0.171 OA
HETATM    2  C2  MIQ B 502     -16.004   0.755 -10.990  1.00141.17     0.195 A 
HETATM    3  C3  MIQ B 502     -15.591  -0.196  -9.821  1.00141.71     0.035 A 
HETATM    4  C4  MIQ B 502     -16.309  -1.246  -9.061  1.00142.86     0.046 A 
HETATM    5  C5  MIQ B 502     -15.650  -1.960  -8.028  1.00139.53     0.031 A 
HETATM    6  C12 MIQ B 502     -14.260  -1.658  -7.714  1.00139.38     0.030 A 
HETATM    7  C13 MIQ B 502     -13.572  -0.651  -8.444  1.00141.18     0.019 A 
HETATM    8  C14 MIQ B 502     -14.268   0.093  -9.529  1.00138.77     0.033 A 
HETATM    9  C15 MIQ B 502     -13.857   1.228 -10.522  1.00142.10     0.195 A 
HETATM   10  N17 MIQ B 502     -14.928   1.474 -11.259  1.00139.42    -0.288 N 
HETATM   11  O16 MIQ B 502     -12.612   1.853 -10.607  1.00148.93    -0.171 OA
ENDROOT
BRANCH  10  12
HETATM   12  C18 MIQ B 502     -14.919   2.494 -12.291  1.00139.82     0.187 C 
HETATM   13  C19 MIQ B 502     -13.733   2.209 -13.220  1.00140.06     0.247 C 
HETATM   14  O25 MIQ B 502     -13.601   1.127 -13.671  1.00143.95    -0.271 OA
HETATM   15  N20 MIQ B 502     -12.771   3.235 -13.567  1.00140.02    -0.296 N 
HETATM   16  H13 MIQ B 502     -11.997   3.035 -14.170  1.00142.77     0.171 HD
HETATM   17  C21 MIQ B 502     -12.947   4.546 -12.996  1.00142.22     0.224 C 
HETATM   18  C22 MIQ B 502     -13.535   4.607 -11.600  1.00139.52     0.106 C 
HETATM   19  O24 MIQ B 502     -12.652   5.524 -13.591  1.00146.13    -0.273 OA
HETATM   20  C23 MIQ B 502     -14.869   3.886 -11.662  1.00139.15     0.045 C 
ENDBRANCH  10  12
BRANCH   5  21
HETATM   21  N6  MIQ B 502     -16.369  -2.976  -7.281  1.00140.95    -0.377 N 
HETATM   22  C7  MIQ B 502     -15.639  -4.142  -6.816  1.00142.12     0.149 C 
HETATM   23  C8  MIQ B 502     -16.548  -5.354  -6.652  1.00144.10     0.187 C 
HETATM   24  O9  MIQ B 502     -17.720  -5.063  -5.950  1.00148.65    -0.388 OA
HETATM   25  C10 MIQ B 502     -18.065  -3.739  -5.666  1.00147.44     0.187 C 
HETATM   26  C11 MIQ B 502     -17.629  -2.647  -6.638  1.00144.08     0.149 C 
ENDBRANCH   5  21
TORSDOF 2
ENDMDL
MODEL 7
REMARK VINA RESULT:      -6.9      2.121      8.438
REMARK  2 active torsions:
REMARK  status: ('A' for Active; 'I' for Inactive)
REMARK    1  A    between atoms: C5_5  and  N6_21 
REMARK    2  A    between atoms: C18_14  and  N17_19 
ROOT
HETATM    1  O1  MIQ B 502     -17.218   0.268 -13.342  1.00142.91    -0.171 OA
HETATM    2  C2  MIQ B 502     -16.637   0.887 -12.233  1.00141.17     0.195 A 
HETATM    3  C3  MIQ B 502     -16.636   0.344 -10.769  1.00141.71     0.035 A 
HETATM    4  C4  MIQ B 502     -17.187  -0.877 -10.134  1.00142.86     0.046 A 
HETATM    5  C5  MIQ B 502     -17.021  -1.100  -8.744  1.00139.53     0.031 A 
HETATM    6  C12 MIQ B 502     -16.303  -0.123  -7.937  1.00139.38     0.030 A 
HETATM    7  C13 MIQ B 502     -15.774   1.046  -8.545  1.00141.18     0.019 A 
HETATM    8  C14 MIQ B 502     -15.949   1.274 -10.005  1.00138.77     0.033 A 
HETATM    9  C15 MIQ B 502     -15.521   2.400 -11.002  1.00142.10     0.195 A 
HETATM   10  N17 MIQ B 502     -15.976   2.031 -12.188  1.00139.42    -0.288 N 
HETATM   11  O16 MIQ B 502     -14.806   3.560 -10.695  1.00148.93    -0.171 OA
ENDROOT
BRANCH  10  12
HETATM   12  C18 MIQ B 502     -15.775   2.854 -13.365  1.00139.82     0.187 C 
HETATM   13  C19 MIQ B 502     -14.277   3.161 -13.472  1.00140.06     0.247 C 
HETATM   14  O25 MIQ B 502     -13.502   2.273 -13.418  1.00143.95    -0.271 OA
HETATM   15  N20 MIQ B 502     -13.784   4.513 -13.643  1.00140.02    -0.296 N 
HETATM   16  H13 MIQ B 502     -12.803   4.700 -13.704  1.00142.77     0.171 HD
HETATM   17  C21 MIQ B 502     -14.749   5.581 -13.695  1.00142.22     0.224 C 
HETATM   18  C22 MIQ B 502     -15.998   5.413 -12.852  1.00139.52     0.106 C 
HETATM   19  O24 MIQ B 502     -14.575   6.537 -14.368  1.00146.13    -0.273 OA
HETATM   20  C23 MIQ B 502     -16.642   4.110 -13.291  1.00139.15     0.045 C 
ENDBRANCH  10  12
BRANCH   5  21
HETATM   21  N6  MIQ B 502     -17.579  -2.292  -8.133  1.00140.95    -0.377 N 
HETATM   22  C7  MIQ B 502     -17.999  -3.383  -8.996  1.00142.12     0.149 C 
HETATM   23  C8  MIQ B 502     -19.096  -4.224  -8.356  1.00144.10     0.187 C 
HETATM   24  O9  MIQ B 502     -18.805  -4.584  -7.038  1.00148.65    -0.388 OA
HETATM   25  C10 MIQ B 502     -17.725  -4.004  -6.368  1.00147.44     0.187 C 
HETATM   26  C11 MIQ B 502     -17.319  -2.580  -6.733  1.00144.08     0.149 C 
ENDBRANCH   5  21
TORSDOF 2
ENDMDL
MODEL 8
REMARK VINA RESULT:      -6.8      3.807      5.792
REMARK  2 active torsions:
REMARK  status: ('A' for Active; 'I' for Inactive)
REMARK    1  A    between atoms: C5_5  and  N6_21 
REMARK    2  A    between atoms: C18_14  and  N17_19 
ROOT
HETATM    1  O1  MIQ B 502     -12.678   1.070 -11.264  1.00142.91    -0.171 OA
HETATM    2  C2  MIQ B 502     -13.884   0.367 -11.218  1.00141.17     0.195 A 
HETATM    3  C3  MIQ B 502     -15.243   0.826 -11.837  1.00141.71     0.035 A 
HETATM    4  C4  MIQ B 502     -15.661   2.027 -12.599  1.00142.86     0.046 A 
HETATM    5  C5  MIQ B 502     -17.002   2.163 -13.041  1.00139.53     0.031 A 
HETATM    6  C12 MIQ B 502     -17.970   1.118 -12.745  1.00139.38     0.030 A 
HETATM    7  C13 MIQ B 502     -17.569  -0.034 -12.015  1.00141.18     0.019 A 
HETATM    8  C14 MIQ B 502     -16.160  -0.173 -11.556  1.00138.77     0.033 A 
HETATM    9  C15 MIQ B 502     -15.366  -1.259 -10.759  1.00142.10     0.195 A 
HETATM   10  N17 MIQ B 502     -14.127  -0.808 -10.662  1.00139.42    -0.288 N 
HETATM   11  O16 MIQ B 502     -15.870  -2.458 -10.252  1.00148.93    -0.171 OA
ENDROOT
BRANCH  10  12
HETATM   12  C18 MIQ B 502     -13.100  -1.557  -9.962  1.00139.82     0.187 C 
HETATM   13  C19 MIQ B 502     -12.480  -0.631  -8.909  1.00140.06     0.247 C 
HETATM   14  O25 MIQ B 502     -13.188  -0.052  -8.163  1.00143.95    -0.271 OA
HETATM   15  N20 MIQ B 502     -11.047  -0.451  -8.798  1.00140.02    -0.296 N 
HETATM   16  H13 MIQ B 502     -10.656   0.162  -8.110  1.00142.77     0.171 HD
HETATM   17  C21 MIQ B 502     -10.205  -1.160  -9.727  1.00142.22     0.224 C 
HETATM   18  C22 MIQ B 502     -10.759  -1.376 -11.122  1.00139.52     0.106 C 
HETATM   19  O24 MIQ B 502      -9.137  -1.557  -9.412  1.00146.13    -0.273 OA
HETATM   20  C23 MIQ B 502     -12.077  -2.110 -10.953  1.00139.15     0.045 C 
ENDBRANCH  10  12
BRANCH   5  21
HETATM   21  N6  MIQ B 502     -17.402   3.351 -13.773  1.00140.95    -0.377 N 
HETATM   22  C7  MIQ B 502     -16.367   4.198 -14.342  1.00142.12     0.149 C 
HETATM   23  C8  MIQ B 502     -16.829   5.642 -14.487  1.00144.10     0.187 C 
HETATM   24  O9  MIQ B 502     -18.087   5.753 -15.084  1.00148.65    -0.388 OA
HETATM   25  C10 MIQ B 502     -18.878   4.618 -15.284  1.00147.44     0.187 C 
HETATM   26  C11 MIQ B 502     -18.750   3.458 -14.302  1.00144.08     0.149 C 
ENDBRANCH   5  21
TORSDOF 2
ENDMDL
MODEL 9
REMARK VINA RESULT:      -6.8      2.514      4.098
REMARK  2 active torsions:
REMARK  status: ('A' for Active; 'I' for Inactive)
REMARK    1  A    between atoms: C5_5  and  N6_21 
REMARK    2  A    between atoms: C18_14  and  N17_19 
ROOT
HETATM    1  O1  MIQ B 502     -17.269   0.820 -11.774  1.00142.91    -0.171 OA
HETATM    2  C2  MIQ B 502     -16.107   1.093 -11.049  1.00141.17     0.195 A 
HETATM    3  C3  MIQ B 502     -15.096   2.251 -11.328  1.00141.71     0.035 A 
HETATM    4  C4  MIQ B 502     -15.040   3.332 -12.341  1.00142.86     0.046 A 
HETATM    5  C5  MIQ B 502     -13.968   4.260 -12.339  1.00139.53     0.031 A 
HETATM    6  C12 MIQ B 502     -12.919   4.151 -11.335  1.00139.38     0.030 A 
HETATM    7  C13 MIQ B 502     -12.974   3.115 -10.364  1.00141.18     0.019 A 
HETATM    8  C14 MIQ B 502     -14.102   2.145 -10.369  1.00138.77     0.033 A 
HETATM    9  C15 MIQ B 502     -14.498   0.914  -9.489  1.00142.10     0.195 A 
HETATM   10  N17 MIQ B 502     -15.628   0.451  -9.997  1.00139.42    -0.288 N 
HETATM   11  O16 MIQ B 502     -13.795   0.410  -8.394  1.00148.93    -0.171 OA
ENDROOT
BRANCH  10  12
HETATM   12  C18 MIQ B 502     -16.289  -0.713  -9.437  1.00139.82     0.187 C 
HETATM   13  C19 MIQ B 502     -16.427  -0.491  -7.926  1.00140.06     0.247 C 
HETATM   14  O25 MIQ B 502     -16.899   0.516  -7.532  1.00143.95    -0.271 OA
HETATM   15  N20 MIQ B 502     -15.997  -1.486  -6.965  1.00140.02    -0.296 N 
HETATM   16  H13 MIQ B 502     -16.086  -1.326  -5.981  1.00142.77     0.171 HD
HETATM   17  C21 MIQ B 502     -15.413  -2.702  -7.469  1.00142.22     0.224 C 
HETATM   18  C22 MIQ B 502     -14.599  -2.590  -8.744  1.00139.52     0.106 C 
HETATM   19  O24 MIQ B 502     -15.567  -3.736  -6.917  1.00146.13    -0.273 OA
HETATM   20  C23 MIQ B 502     -15.518  -1.984  -9.789  1.00139.15     0.045 C 
ENDBRANCH  10  12
BRANCH   5  21
HETATM   21  N6  MIQ B 502     -13.917   5.304 -13.346  1.00140.95    -0.377 N 
HETATM   22  C7  MIQ B 502     -12.713   5.438 -14.147  1.00142.12     0.149 C 
HETATM   23  C8  MIQ B 502     -12.522   6.862 -14.654  1.00144.10     0.187 C 
HETATM   24  O9  MIQ B 502     -13.680   7.396 -15.223  1.00148.65    -0.388 OA
HETATM   25  C10 MIQ B 502     -14.903   6.733 -15.094  1.00147.44     0.187 C 
HETATM   26  C11 MIQ B 502     -15.148   5.891 -13.846  1.00144.08     0.149 C 
ENDBRANCH   5  21
TORSDOF 2
ENDMDL
