MODEL 1
REMARK VINA RESULT:      -6.9      0.000      0.000
REMARK  2 active torsions:
REMARK  status: ('A' for Active; 'I' for Inactive)
REMARK    1  A    between atoms: C5_5  and  N6_21 
REMARK    2  A    between atoms: C18_14  and  N17_19 
ROOT
HETATM    1  O1  MIQ B 502       1.027 -17.477  12.673  1.00142.91    -0.171 OA
HETATM    2  C2  MIQ B 502       0.677 -16.175  12.310  1.00141.17     0.195 A 
HETATM    3  C3  MIQ B 502       0.958 -15.495  10.932  1.00141.71     0.035 A 
HETATM    4  C4  MIQ B 502       1.614 -15.953   9.685  1.00142.86     0.046 A 
HETATM    5  C5  MIQ B 502       1.720 -15.084   8.570  1.00139.53     0.031 A 
HETATM    6  C12 MIQ B 502       1.180 -13.734   8.651  1.00139.38     0.030 A 
HETATM    7  C13 MIQ B 502       0.549 -13.295   9.847  1.00141.18     0.019 A 
HETATM    8  C14 MIQ B 502       0.439 -14.213  11.013  1.00138.77     0.033 A 
HETATM    9  C15 MIQ B 502      -0.168 -14.097  12.450  1.00142.10     0.195 A 
HETATM   10  N17 MIQ B 502       0.045 -15.265  13.032  1.00139.42    -0.288 N 
HETATM   11  O16 MIQ B 502      -0.802 -12.982  13.002  1.00148.93    -0.171 OA
ENDROOT
BRANCH  10  12
HETATM   12  C18 MIQ B 502      -0.376 -15.519  14.397  1.00139.82     0.187 C 
HETATM   13  C19 MIQ B 502      -1.873 -15.201  14.492  1.00140.06     0.247 C 
HETATM   14  O25 MIQ B 502      -2.614 -15.677  13.707  1.00143.95    -0.271 OA
HETATM   15  N20 MIQ B 502      -2.406 -14.335  15.523  1.00140.02    -0.296 N 
HETATM   16  H13 MIQ B 502      -3.385 -14.130  15.570  1.00142.77     0.171 HD
HETATM   17  C21 MIQ B 502      -1.481 -13.757  16.464  1.00142.22     0.224 C 
HETATM   18  C22 MIQ B 502      -0.098 -13.421  15.940  1.00139.52     0.106 C 
HETATM   19  O24 MIQ B 502      -1.785 -13.561  17.589  1.00146.13    -0.273 OA
HETATM   20  C23 MIQ B 502       0.474 -14.709  15.375  1.00139.15     0.045 C 
ENDBRANCH  10  12
BRANCH   5  21
HETATM   21  N6  MIQ B 502       2.379 -15.540   7.359  1.00140.95    -0.377 N 
HETATM   22  C7  MIQ B 502       2.713 -16.949   7.240  1.00142.12     0.149 C 
HETATM   23  C8  MIQ B 502       3.901 -17.175   6.314  1.00144.10     0.187 C 
HETATM   24  O9  MIQ B 502       3.788 -16.484   5.106  1.00148.65    -0.388 OA
HETATM   25  C10 MIQ B 502       2.787 -15.525   4.930  1.00147.44     0.187 C 
HETATM   26  C11 MIQ B 502       2.305 -14.743   6.148  1.00144.08     0.149 C 
ENDBRANCH   5  21
TORSDOF 2
ENDMDL
MODEL 2
REMARK VINA RESULT:      -6.7      2.248      8.681
REMARK  2 active torsions:
REMARK  status: ('A' for Active; 'I' for Inactive)
REMARK    1  A    between atoms: C5_5  and  N6_21 
REMARK    2  A    between atoms: C18_14  and  N17_19 
ROOT
HETATM    1  O1  MIQ B 502       3.008 -15.867   8.006  1.00142.91    -0.171 OA
HETATM    2  C2  MIQ B 502       1.728 -16.424   7.946  1.00141.17     0.195 A 
HETATM    3  C3  MIQ B 502       0.651 -16.384   9.076  1.00141.71     0.035 A 
HETATM    4  C4  MIQ B 502       0.625 -15.802  10.439  1.00142.86     0.046 A 
HETATM    5  C5  MIQ B 502      -0.530 -15.931  11.251  1.00139.53     0.031 A 
HETATM    6  C12 MIQ B 502      -1.697 -16.637  10.742  1.00139.38     0.030 A 
HETATM    7  C13 MIQ B 502      -1.673 -17.194   9.434  1.00141.18     0.019 A 
HETATM    8  C14 MIQ B 502      -0.458 -17.054   8.585  1.00138.77     0.033 A 
HETATM    9  C15 MIQ B 502      -0.067 -17.512   7.143  1.00142.10     0.195 A 
HETATM   10  N17 MIQ B 502       1.168 -17.082   6.945  1.00139.42    -0.288 N 
HETATM   11  O16 MIQ B 502      -0.863 -18.230   6.249  1.00148.93    -0.171 OA
ENDROOT
BRANCH  10  12
HETATM   12  C18 MIQ B 502       1.872 -17.342   5.703  1.00139.82     0.187 C 
HETATM   13  C19 MIQ B 502       3.221 -17.981   6.054  1.00140.06     0.247 C 
HETATM   14  O25 MIQ B 502       3.247 -18.912   6.778  1.00143.95    -0.271 OA
HETATM   15  N20 MIQ B 502       4.468 -17.476   5.517  1.00140.02    -0.296 N 
HETATM   16  H13 MIQ B 502       5.343 -17.897   5.759  1.00142.77     0.171 HD
HETATM   17  C21 MIQ B 502       4.412 -16.332   4.644  1.00142.22     0.224 C 
HETATM   18  C22 MIQ B 502       3.329 -15.309   4.930  1.00139.52     0.106 C 
HETATM   19  O24 MIQ B 502       5.170 -16.202   3.746  1.00146.13    -0.273 OA
HETATM   20  C23 MIQ B 502       2.009 -16.056   4.890  1.00139.15     0.045 C 
ENDBRANCH  10  12
BRANCH   5  21
HETATM   21  N6  MIQ B 502      -0.536 -15.370  12.590  1.00140.95    -0.377 N 
HETATM   22  C7  MIQ B 502      -1.809 -14.990  13.178  1.00142.12     0.149 C 
HETATM   23  C8  MIQ B 502      -1.650 -13.885  14.215  1.00144.10     0.187 C 
HETATM   24  O9  MIQ B 502      -0.624 -14.139  15.126  1.00148.65    -0.388 OA
HETATM   25  C10 MIQ B 502       0.271 -15.191  14.910  1.00147.44     0.187 C 
HETATM   26  C11 MIQ B 502       0.595 -15.590  13.474  1.00144.08     0.149 C 
ENDBRANCH   5  21
TORSDOF 2
ENDMDL
MODEL 3
REMARK VINA RESULT:      -6.6      2.162      8.430
REMARK  2 active torsions:
REMARK  status: ('A' for Active; 'I' for Inactive)
REMARK    1  A    between atoms: C5_5  and  N6_21 
REMARK    2  A    between atoms: C18_14  and  N17_19 
ROOT
HETATM    1  O1  MIQ B 502       3.181 -16.046  12.845  1.00142.91    -0.171 OA
HETATM    2  C2  MIQ B 502       1.881 -15.800  12.399  1.00141.17     0.195 A 
HETATM    3  C3  MIQ B 502       0.613 -15.639  13.297  1.00141.71     0.035 A 
HETATM    4  C4  MIQ B 502       0.389 -15.684  14.761  1.00142.86     0.046 A 
HETATM    5  C5  MIQ B 502      -0.911 -15.495  15.294  1.00139.53     0.031 A 
HETATM    6  C12 MIQ B 502      -2.032 -15.255  14.396  1.00139.38     0.030 A 
HETATM    7  C13 MIQ B 502      -1.817 -15.211  12.992  1.00141.18     0.019 A 
HETATM    8  C14 MIQ B 502      -0.450 -15.407  12.439  1.00138.77     0.033 A 
HETATM    9  C15 MIQ B 502       0.162 -15.424  11.000  1.00142.10     0.195 A 
HETATM   10  N17 MIQ B 502       1.456 -15.650  11.156  1.00139.42    -0.288 N 
HETATM   11  O16 MIQ B 502      -0.524 -15.240   9.798  1.00148.93    -0.171 OA
ENDROOT
BRANCH  10  12
HETATM   12  C18 MIQ B 502       2.350 -15.749  10.017  1.00139.82     0.187 C 
HETATM   13  C19 MIQ B 502       2.234 -14.445   9.218  1.00140.06     0.247 C 
HETATM   14  O25 MIQ B 502       2.347 -13.413   9.778  1.00143.95    -0.271 OA
HETATM   15  N20 MIQ B 502       1.996 -14.444   7.789  1.00140.02    -0.296 N 
HETATM   16  H13 MIQ B 502       1.915 -13.586   7.279  1.00142.77     0.171 HD
HETATM   17  C21 MIQ B 502       1.851 -15.716   7.129  1.00142.22     0.224 C 
HETATM   18  C22 MIQ B 502       1.200 -16.828   7.927  1.00139.52     0.106 C 
HETATM   19  O24 MIQ B 502       2.227 -15.883   6.021  1.00146.13    -0.273 OA
HETATM   20  C23 MIQ B 502       2.024 -16.992   9.191  1.00139.15     0.045 C 
ENDBRANCH  10  12
BRANCH   5  21
HETATM   21  N6  MIQ B 502      -1.118 -15.556  16.729  1.00140.95    -0.377 N 
HETATM   22  C7  MIQ B 502      -2.467 -15.762  17.228  1.00142.12     0.149 C 
HETATM   23  C8  MIQ B 502      -2.652 -15.182  18.624  1.00144.10     0.187 C 
HETATM   24  O9  MIQ B 502      -1.629 -15.543  19.503  1.00148.65    -0.388 OA
HETATM   25  C10 MIQ B 502      -0.475 -16.171  19.026  1.00147.44     0.187 C 
HETATM   26  C11 MIQ B 502      -0.003 -15.852  17.611  1.00144.08     0.149 C 
ENDBRANCH   5  21
TORSDOF 2
ENDMDL
MODEL 4
REMARK VINA RESULT:      -6.6      2.729      3.320
REMARK  2 active torsions:
REMARK  status: ('A' for Active; 'I' for Inactive)
REMARK    1  A    between atoms: C5_5  and  N6_21 
REMARK    2  A    between atoms: C18_14  and  N17_19 
ROOT
HETATM    1  O1  MIQ B 502       4.301 -17.756  13.866  1.00142.91    -0.171 OA
HETATM    2  C2  MIQ B 502       3.010 -17.226  13.803  1.00141.17     0.195 A 
HETATM    3  C3  MIQ B 502       2.285 -16.715  12.518  1.00141.71     0.035 A 
HETATM    4  C4  MIQ B 502       2.677 -16.632  11.091  1.00142.86     0.046 A 
HETATM    5  C5  MIQ B 502       1.777 -16.107  10.129  1.00139.53     0.031 A 
HETATM    6  C12 MIQ B 502       0.460 -15.647  10.547  1.00139.38     0.030 A 
HETATM    7  C13 MIQ B 502       0.084 -15.727  11.915  1.00141.18     0.019 A 
HETATM    8  C14 MIQ B 502       1.032 -16.282  12.920  1.00138.77     0.033 A 
HETATM    9  C15 MIQ B 502       0.979 -16.526  14.463  1.00142.10     0.195 A 
HETATM   10  N17 MIQ B 502       2.147 -17.053  14.789  1.00139.42    -0.288 N 
HETATM   11  O16 MIQ B 502      -0.087 -16.242  15.318  1.00148.93    -0.171 OA
ENDROOT
BRANCH  10  12
HETATM   12  C18 MIQ B 502       2.465 -17.400  16.162  1.00139.82     0.187 C 
HETATM   13  C19 MIQ B 502       1.323 -18.272  16.700  1.00140.06     0.247 C 
HETATM   14  O25 MIQ B 502       0.974 -19.211  16.078  1.00143.95    -0.271 OA
HETATM   15  N20 MIQ B 502       0.665 -17.978  17.956  1.00140.02    -0.296 N 
HETATM   16  H13 MIQ B 502      -0.084 -18.551  18.293  1.00142.77     0.171 HD
HETATM   17  C21 MIQ B 502       1.102 -16.820  18.692  1.00142.22     0.224 C 
HETATM   18  C22 MIQ B 502       1.574 -15.632  17.876  1.00139.52     0.106 C 
HETATM   19  O24 MIQ B 502       1.097 -16.801  19.874  1.00146.13    -0.273 OA
HETATM   20  C23 MIQ B 502       2.698 -16.137  16.990  1.00139.15     0.045 C 
ENDBRANCH  10  12
BRANCH   5  21
HETATM   21  N6  MIQ B 502       2.180 -16.018   8.738  1.00140.95    -0.377 N 
HETATM   22  C7  MIQ B 502       2.380 -17.249   7.992  1.00142.12     0.149 C 
HETATM   23  C8  MIQ B 502       3.369 -17.067   6.849  1.00144.10     0.187 C 
HETATM   24  O9  MIQ B 502       3.102 -15.936   6.074  1.00148.65    -0.388 OA
HETATM   25  C10 MIQ B 502       2.162 -14.994   6.498  1.00147.44     0.187 C 
HETATM   26  C11 MIQ B 502       1.958 -14.789   7.995  1.00144.08     0.149 C 
ENDBRANCH   5  21
TORSDOF 2
ENDMDL
MODEL 5
REMARK VINA RESULT:      -6.6      2.834      3.676
REMARK  2 active torsions:
REMARK  status: ('A' for Active; 'I' for Inactive)
REMARK    1  A    between atoms: C5_5  and  N6_21 
REMARK    2  A    between atoms: C18_14  and  N17_19 
ROOT
HETATM    1  O1  MIQ B 502       3.902 -17.291  13.248  1.00142.91    -0.171 OA
HETATM    2  C2  MIQ B 502       2.634 -16.760  13.003  1.00141.17     0.195 A 
HETATM    3  C3  MIQ B 502       2.040 -16.400  11.604  1.00141.71     0.035 A 
HETATM    4  C4  MIQ B 502       2.563 -16.493  10.220  1.00142.86     0.046 A 
HETATM    5  C5  MIQ B 502       1.766 -16.078   9.123  1.00139.53     0.031 A 
HETATM    6  C12 MIQ B 502       0.426 -15.558   9.359  1.00139.38     0.030 A 
HETATM    7  C13 MIQ B 502      -0.075 -15.470  10.686  1.00141.18     0.019 A 
HETATM    8  C14 MIQ B 502       0.765 -15.909  11.833  1.00138.77     0.033 A 
HETATM    9  C15 MIQ B 502       0.566 -15.966  13.383  1.00142.10     0.195 A 
HETATM   10  N17 MIQ B 502       1.689 -16.461  13.877  1.00139.42    -0.288 N 
HETATM   11  O16 MIQ B 502      -0.567 -15.569  14.095  1.00148.93    -0.171 OA
ENDROOT
BRANCH  10  12
HETATM   12  C18 MIQ B 502       1.872 -16.644  15.305  1.00139.82     0.187 C 
HETATM   13  C19 MIQ B 502       3.159 -15.914  15.709  1.00140.06     0.247 C 
HETATM   14  O25 MIQ B 502       3.308 -14.789  15.386  1.00143.95    -0.271 OA
HETATM   15  N20 MIQ B 502       4.196 -16.566  16.482  1.00140.02    -0.296 N 
HETATM   16  H13 MIQ B 502       5.035 -16.080  16.733  1.00142.77     0.171 HD
HETATM   17  C21 MIQ B 502       3.995 -17.942  16.855  1.00142.22     0.224 C 
HETATM   18  C22 MIQ B 502       3.230 -18.809  15.874  1.00139.52     0.106 C 
HETATM   19  O24 MIQ B 502       4.402 -18.371  17.878  1.00146.13    -0.273 OA
HETATM   20  C23 MIQ B 502       1.890 -18.132  15.653  1.00139.15     0.045 C 
ENDBRANCH  10  12
BRANCH   5  21
HETATM   21  N6  MIQ B 502       2.296 -16.161   7.775  1.00140.95    -0.377 N 
HETATM   22  C7  MIQ B 502       2.572 -17.474   7.217  1.00142.12     0.149 C 
HETATM   23  C8  MIQ B 502       3.662 -17.422   6.154  1.00144.10     0.187 C 
HETATM   24  O9  MIQ B 502       3.461 -16.406   5.218  1.00148.65    -0.388 OA
HETATM   25  C10 MIQ B 502       2.480 -15.434   5.429  1.00147.44     0.187 C 
HETATM   26  C11 MIQ B 502       2.137 -15.042   6.862  1.00144.08     0.149 C 
ENDBRANCH   5  21
TORSDOF 2
ENDMDL
MODEL 6
REMARK VINA RESULT:      -6.5      4.973      6.530
REMARK  2 active torsions:
REMARK  status: ('A' for Active; 'I' for Inactive)
REMARK    1  A    between atoms: C5_5  and  N6_21 
REMARK    2  A    between atoms: C18_14  and  N17_19 
ROOT
HETATM    1  O1  MIQ B 502      -1.778 -16.521  10.442  1.00142.91    -0.171 OA
HETATM    2  C2  MIQ B 502      -0.814 -16.689   9.445  1.00141.17     0.195 A 
HETATM    3  C3  MIQ B 502      -1.010 -17.443   8.091  1.00141.71     0.035 A 
HETATM    4  C4  MIQ B 502      -2.157 -18.151   7.476  1.00142.86     0.046 A 
HETATM    5  C5  MIQ B 502      -2.027 -18.751   6.198  1.00139.53     0.031 A 
HETATM    6  C12 MIQ B 502      -0.759 -18.670   5.487  1.00139.38     0.030 A 
HETATM    7  C13 MIQ B 502       0.341 -17.990   6.077  1.00141.18     0.019 A 
HETATM    8  C14 MIQ B 502       0.198 -17.360   7.417  1.00138.77     0.033 A 
HETATM    9  C15 MIQ B 502       1.148 -16.550   8.358  1.00142.10     0.195 A 
HETATM   10  N17 MIQ B 502       0.434 -16.254   9.432  1.00139.42    -0.288 N 
HETATM   11  O16 MIQ B 502       2.480 -16.212   8.111  1.00148.93    -0.171 OA
ENDROOT
BRANCH  10  12
HETATM   12  C18 MIQ B 502       1.005 -15.510  10.539  1.00139.82     0.187 C 
HETATM   13  C19 MIQ B 502       1.668 -14.252   9.966  1.00140.06     0.247 C 
HETATM   14  O25 MIQ B 502       1.051 -13.556   9.240  1.00143.95    -0.271 OA
HETATM   15  N20 MIQ B 502       3.031 -13.889  10.296  1.00140.02    -0.296 N 
HETATM   16  H13 MIQ B 502       3.454 -13.068   9.910  1.00142.77     0.171 HD
HETATM   17  C21 MIQ B 502       3.766 -14.760  11.176  1.00142.22     0.224 C 
HETATM   18  C22 MIQ B 502       3.460 -16.242  11.080  1.00139.52     0.106 C 
HETATM   19  O24 MIQ B 502       4.565 -14.337  11.938  1.00146.13    -0.273 OA
HETATM   20  C23 MIQ B 502       1.971 -16.392  11.330  1.00139.15     0.045 C 
ENDBRANCH  10  12
BRANCH   5  21
HETATM   21  N6  MIQ B 502      -3.154 -19.455   5.614  1.00140.95    -0.377 N 
HETATM   22  C7  MIQ B 502      -2.960 -20.155   4.356  1.00142.12     0.149 C 
HETATM   23  C8  MIQ B 502      -4.256 -20.273   3.564  1.00144.10     0.187 C 
HETATM   24  O9  MIQ B 502      -5.327 -20.724   4.339  1.00148.65    -0.388 OA
HETATM   25  C10 MIQ B 502      -5.208 -20.810   5.728  1.00147.44     0.187 C 
HETATM   26  C11 MIQ B 502      -4.286 -19.828   6.444  1.00144.08     0.149 C 
ENDBRANCH   5  21
TORSDOF 2
ENDMDL
MODEL 7
REMARK VINA RESULT:      -6.4      2.174      8.536
REMARK  2 active torsions:
REMARK  status: ('A' for Active; 'I' for Inactive)
REMARK    1  A    between atoms: C5_5  and  N6_21 
REMARK    2  A    between atoms: C18_14  and  N17_19 
ROOT
HETATM    1  O1  MIQ B 502       0.107 -14.640  11.332  1.00142.91    -0.171 OA
HETATM    2  C2  MIQ B 502       0.729 -15.501  12.239  1.00141.17     0.195 A 
HETATM    3  C3  MIQ B 502       0.268 -15.788  13.704  1.00141.71     0.035 A 
HETATM    4  C4  MIQ B 502      -0.861 -15.299  14.531  1.00142.86     0.046 A 
HETATM    5  C5  MIQ B 502      -1.022 -15.755  15.864  1.00139.53     0.031 A 
HETATM    6  C12 MIQ B 502      -0.074 -16.709  16.421  1.00139.38     0.030 A 
HETATM    7  C13 MIQ B 502       1.008 -17.178  15.628  1.00141.18     0.019 A 
HETATM    8  C14 MIQ B 502       1.171 -16.698  14.229  1.00138.77     0.033 A 
HETATM    9  C15 MIQ B 502       2.198 -16.978  13.083  1.00142.10     0.195 A 
HETATM   10  N17 MIQ B 502       1.808 -16.242  12.056  1.00139.42    -0.288 N 
HETATM   11  O16 MIQ B 502       3.301 -17.831  13.140  1.00148.93    -0.171 OA
ENDROOT
BRANCH  10  12
HETATM   12  C18 MIQ B 502       2.545 -16.237  10.805  1.00139.82     0.187 C 
HETATM   13  C19 MIQ B 502       2.809 -14.775  10.423  1.00140.06     0.247 C 
HETATM   14  O25 MIQ B 502       3.289 -14.050  11.220  1.00143.95    -0.271 OA
HETATM   15  N20 MIQ B 502       2.490 -14.260   9.108  1.00140.02    -0.296 N 
HETATM   16  H13 MIQ B 502       2.661 -13.302   8.873  1.00142.77     0.171 HD
HETATM   17  C21 MIQ B 502       1.895 -15.163   8.156  1.00142.22     0.224 C 
HETATM   18  C22 MIQ B 502       0.970 -16.228   8.713  1.00139.52     0.106 C 
HETATM   19  O24 MIQ B 502       2.122 -15.079   6.999  1.00146.13    -0.273 OA
HETATM   20  C23 MIQ B 502       1.777 -17.009   9.733  1.00139.15     0.045 C 
ENDBRANCH  10  12
BRANCH   5  21
HETATM   21  N6  MIQ B 502      -2.124 -15.257  16.667  1.00140.95    -0.377 N 
HETATM   22  C7  MIQ B 502      -2.367 -15.863  17.965  1.00142.12     0.149 C 
HETATM   23  C8  MIQ B 502      -3.825 -15.740  18.386  1.00144.10     0.187 C 
HETATM   24  O9  MIQ B 502      -4.329 -14.447  18.228  1.00148.65    -0.388 OA
HETATM   25  C10 MIQ B 502      -3.596 -13.482  17.533  1.00147.44     0.187 C 
HETATM   26  C11 MIQ B 502      -2.672 -13.937  16.408  1.00144.08     0.149 C 
ENDBRANCH   5  21
TORSDOF 2
ENDMDL
MODEL 8
REMARK VINA RESULT:      -6.4      7.617     10.239
REMARK  2 active torsions:
REMARK  status: ('A' for Active; 'I' for Inactive)
REMARK    1  A    between atoms: C5_5  and  N6_21 
REMARK    2  A    between atoms: C18_14  and  N17_19 
ROOT
HETATM    1  O1  MIQ B 502      -2.405 -22.000   3.776  1.00142.91    -0.171 OA
HETATM    2  C2  MIQ B 502      -2.814 -21.171   4.823  1.00141.17     0.195 A 
HETATM    3  C3  MIQ B 502      -2.016 -19.962   5.407  1.00141.71     0.035 A 
HETATM    4  C4  MIQ B 502      -0.704 -19.354   5.081  1.00142.86     0.046 A 
HETATM    5  C5  MIQ B 502      -0.235 -18.230   5.807  1.00139.53     0.031 A 
HETATM    6  C12 MIQ B 502      -1.048 -17.671   6.878  1.00139.38     0.030 A 
HETATM    7  C13 MIQ B 502      -2.306 -18.253   7.190  1.00141.18     0.019 A 
HETATM    8  C14 MIQ B 502      -2.794 -19.432   6.423  1.00138.77     0.033 A 
HETATM    9  C15 MIQ B 502      -4.083 -20.316   6.469  1.00142.10     0.195 A 
HETATM   10  N17 MIQ B 502      -3.935 -21.226   5.521  1.00139.42    -0.288 N 
HETATM   11  O16 MIQ B 502      -5.166 -20.171   7.338  1.00148.93    -0.171 OA
ENDROOT
BRANCH  10  12
HETATM   12  C18 MIQ B 502      -4.945 -22.241   5.281  1.00139.82     0.187 C 
HETATM   13  C19 MIQ B 502      -4.264 -23.611   5.384  1.00140.06     0.247 C 
HETATM   14  O25 MIQ B 502      -3.608 -23.859   6.332  1.00143.95    -0.271 OA
HETATM   15  N20 MIQ B 502      -4.409 -24.615   4.350  1.00140.02    -0.296 N 
HETATM   16  H13 MIQ B 502      -3.955 -25.504   4.426  1.00142.77     0.171 HD
HETATM   17  C21 MIQ B 502      -5.207 -24.286   3.197  1.00142.22     0.224 C 
HETATM   18  C22 MIQ B 502      -5.184 -22.839   2.743  1.00139.52     0.106 C 
HETATM   19  O24 MIQ B 502      -5.852 -25.103   2.638  1.00146.13    -0.273 OA
HETATM   20  C23 MIQ B 502      -5.624 -22.006   3.933  1.00139.15     0.045 C 
ENDBRANCH  10  12
BRANCH   5  21
HETATM   21  N6  MIQ B 502       1.058 -17.654   5.487  1.00140.95    -0.377 N 
HETATM   22  C7  MIQ B 502       2.218 -18.086   6.248  1.00142.12     0.149 C 
HETATM   23  C8  MIQ B 502       3.303 -17.017   6.286  1.00144.10     0.187 C 
HETATM   24  O9  MIQ B 502       3.581 -16.480   5.028  1.00148.65    -0.388 OA
HETATM   25  C10 MIQ B 502       2.754 -16.765   3.938  1.00147.44     0.187 C 
HETATM   26  C11 MIQ B 502       1.274 -17.028   4.195  1.00144.08     0.149 C 
ENDBRANCH   5  21
TORSDOF 2
ENDMDL
MODEL 9
REMARK VINA RESULT:      -6.3      2.502      8.738
REMARK  2 active torsions:
REMARK  status: ('A' for Active; 'I' for Inactive)
REMARK    1  A    between atoms: C5_5  and  N6_21 
REMARK    2  A    between atoms: C18_14  and  N17_19 
ROOT
HETATM    1  O1  MIQ B 502       0.547 -14.563  12.096  1.00142.91    -0.171 OA
HETATM    2  C2  MIQ B 502       1.132 -15.633  12.777  1.00141.17     0.195 A 
HETATM    3  C3  MIQ B 502       0.808 -16.086  14.236  1.00141.71     0.035 A 
HETATM    4  C4  MIQ B 502      -0.128 -15.589  15.273  1.00142.86     0.046 A 
HETATM    5  C5  MIQ B 502      -0.200 -16.226  16.537  1.00139.53     0.031 A 
HETATM    6  C12 MIQ B 502       0.650 -17.375  16.818  1.00139.38     0.030 A 
HETATM    7  C13 MIQ B 502       1.546 -17.852  15.823  1.00141.18     0.019 A 
HETATM    8  C14 MIQ B 502       1.616 -17.181  14.497  1.00138.77     0.033 A 
HETATM    9  C15 MIQ B 502       2.446 -17.410  13.192  1.00142.10     0.195 A 
HETATM   10  N17 MIQ B 502       2.056 -16.473  12.342  1.00139.42    -0.288 N 
HETATM   11  O16 MIQ B 502       3.404 -18.401  12.974  1.00148.93    -0.171 OA
ENDROOT
BRANCH  10  12
HETATM   12  C18 MIQ B 502       2.633 -16.368  11.015  1.00139.82     0.187 C 
HETATM   13  C19 MIQ B 502       3.086 -14.916  10.816  1.00140.06     0.247 C 
HETATM   14  O25 MIQ B 502       3.768 -14.409  11.634  1.00143.95    -0.271 OA
HETATM   15  N20 MIQ B 502       2.705 -14.150   9.647  1.00140.02    -0.296 N 
HETATM   16  H13 MIQ B 502       3.003 -13.201   9.532  1.00142.77     0.171 HD
HETATM   17  C21 MIQ B 502       1.863 -14.788   8.668  1.00142.22     0.224 C 
HETATM   18  C22 MIQ B 502       0.848 -15.786   9.189  1.00139.52     0.106 C 
HETATM   19  O24 MIQ B 502       1.965 -14.547   7.515  1.00146.13    -0.273 OA
HETATM   20  C23 MIQ B 502       1.629 -16.834   9.961  1.00139.15     0.045 C 
ENDBRANCH  10  12
BRANCH   5  21
HETATM   21  N6  MIQ B 502      -1.110 -15.720  17.549  1.00140.95    -0.377 N 
HETATM   22  C7  MIQ B 502      -2.415 -16.344  17.684  1.00142.12     0.149 C 
HETATM   23  C8  MIQ B 502      -3.448 -15.383  18.257  1.00144.10     0.187 C 
HETATM   24  O9  MIQ B 502      -2.991 -14.704  19.388  1.00148.65    -0.388 OA
HETATM   25  C10 MIQ B 502      -1.645 -14.771  19.758  1.00147.44     0.187 C 
HETATM   26  C11 MIQ B 502      -0.596 -14.944  18.664  1.00144.08     0.149 C 
ENDBRANCH   5  21
TORSDOF 2
ENDMDL
