MODEL 1
REMARK VINA RESULT:      -7.4      0.000      0.000
REMARK  2 active torsions:
REMARK  status: ('A' for Active; 'I' for Inactive)
REMARK    1  A    between atoms: C5_5  and  N6_21 
REMARK    2  A    between atoms: C18_14  and  N17_19 
ROOT
HETATM    1  O1  MIQ B 502      -4.684 -12.084  16.915  1.00142.91    -0.171 OA
HETATM    2  C2  MIQ B 502      -4.158 -10.888  16.422  1.00141.17     0.195 A 
HETATM    3  C3  MIQ B 502      -4.969  -9.604  16.058  1.00141.71     0.035 A 
HETATM    4  C4  MIQ B 502      -6.410  -9.260  16.110  1.00142.86     0.046 A 
HETATM    5  C5  MIQ B 502      -6.856  -7.977  15.704  1.00139.53     0.031 A 
HETATM    6  C12 MIQ B 502      -5.892  -6.993  15.233  1.00139.38     0.030 A 
HETATM    7  C13 MIQ B 502      -4.511  -7.322  15.183  1.00141.18     0.019 A 
HETATM    8  C14 MIQ B 502      -4.048  -8.670  15.614  1.00138.77     0.033 A 
HETATM    9  C15 MIQ B 502      -2.657  -9.377  15.703  1.00142.10     0.195 A 
HETATM   10  N17 MIQ B 502      -2.894 -10.592  16.170  1.00139.42    -0.288 N 
HETATM   11  O16 MIQ B 502      -1.419  -8.834  15.357  1.00148.93    -0.171 OA
ENDROOT
BRANCH  10  12
HETATM   12  C18 MIQ B 502      -1.823 -11.550  16.370  1.00139.82     0.187 C 
HETATM   13  C19 MIQ B 502      -0.777 -10.897  17.282  1.00140.06     0.247 C 
HETATM   14  O25 MIQ B 502      -1.124 -10.405  18.297  1.00143.95    -0.271 OA
HETATM   15  N20 MIQ B 502       0.630 -10.871  16.935  1.00140.02    -0.296 N 
HETATM   16  H13 MIQ B 502       1.302 -10.436  17.536  1.00142.77     0.171 HD
HETATM   17  C21 MIQ B 502       1.027 -11.468  15.686  1.00142.22     0.224 C 
HETATM   18  C22 MIQ B 502       0.041 -11.369  14.539  1.00139.52     0.106 C 
HETATM   19  O24 MIQ B 502       2.069 -12.012  15.566  1.00146.13    -0.273 OA
HETATM   20  C23 MIQ B 502      -1.252 -11.998  15.026  1.00139.15     0.045 C 
ENDBRANCH  10  12
BRANCH   5  21
HETATM   21  N6  MIQ B 502      -8.271  -7.659  15.746  1.00140.95    -0.377 N 
HETATM   22  C7  MIQ B 502      -9.230  -8.749  15.687  1.00142.12     0.149 C 
HETATM   23  C8  MIQ B 502     -10.565  -8.301  15.105  1.00144.10     0.187 C 
HETATM   24  O9  MIQ B 502     -11.039  -7.119  15.678  1.00148.65    -0.388 OA
HETATM   25  C10 MIQ B 502     -10.218  -6.360  16.515  1.00147.44     0.187 C 
HETATM   26  C11 MIQ B 502      -8.712  -6.379  16.273  1.00144.08     0.149 C 
ENDBRANCH   5  21
TORSDOF 2
ENDMDL
MODEL 2
REMARK VINA RESULT:      -7.0     15.204     18.815
REMARK  2 active torsions:
REMARK  status: ('A' for Active; 'I' for Inactive)
REMARK    1  A    between atoms: C5_5  and  N6_21 
REMARK    2  A    between atoms: C18_14  and  N17_19 
ROOT
HETATM    1  O1  MIQ B 502      -9.030   9.260  19.597  1.00142.91    -0.171 OA
HETATM    2  C2  MIQ B 502      -8.775   8.856  18.285  1.00141.17     0.195 A 
HETATM    3  C3  MIQ B 502      -9.238   7.518  17.625  1.00141.71     0.035 A 
HETATM    4  C4  MIQ B 502     -10.020   6.358  18.114  1.00142.86     0.046 A 
HETATM    5  C5  MIQ B 502     -10.288   5.262  17.256  1.00139.53     0.031 A 
HETATM    6  C12 MIQ B 502      -9.792   5.276  15.888  1.00139.38     0.030 A 
HETATM    7  C13 MIQ B 502      -9.043   6.389  15.418  1.00141.18     0.019 A 
HETATM    8  C14 MIQ B 502      -8.767   7.538  16.322  1.00138.77     0.033 A 
HETATM    9  C15 MIQ B 502      -8.007   8.897  16.173  1.00142.10     0.195 A 
HETATM   10  N17 MIQ B 502      -8.109   9.503  17.344  1.00139.42    -0.288 N 
HETATM   11  O16 MIQ B 502      -7.353   9.368  15.032  1.00148.93    -0.171 OA
ENDROOT
BRANCH  10  12
HETATM   12  C18 MIQ B 502      -7.501  10.799  17.581  1.00139.82     0.187 C 
HETATM   13  C19 MIQ B 502      -7.973  11.748  16.472  1.00140.06     0.247 C 
HETATM   14  O25 MIQ B 502      -9.127  11.838  16.245  1.00143.95    -0.271 OA
HETATM   15  N20 MIQ B 502      -7.041  12.542  15.699  1.00140.02    -0.296 N 
HETATM   16  H13 MIQ B 502      -7.362  13.153  14.973  1.00142.77     0.171 HD
HETATM   17  C21 MIQ B 502      -5.637  12.407  15.988  1.00142.22     0.224 C 
HETATM   18  C22 MIQ B 502      -5.161  11.036  16.429  1.00139.52     0.106 C 
HETATM   19  O24 MIQ B 502      -4.895  13.322  15.892  1.00146.13    -0.273 OA
HETATM   20  C23 MIQ B 502      -5.980  10.668  17.652  1.00139.15     0.045 C 
ENDBRANCH  10  12
BRANCH   5  21
HETATM   21  N6  MIQ B 502     -11.043   4.126  17.753  1.00140.95    -0.377 N 
HETATM   22  C7  MIQ B 502     -11.170   2.952  16.906  1.00142.12     0.149 C 
HETATM   23  C8  MIQ B 502     -12.435   2.161  17.216  1.00144.10     0.187 C 
HETATM   24  O9  MIQ B 502     -12.613   1.934  18.582  1.00148.65    -0.388 OA
HETATM   25  C10 MIQ B 502     -11.810   2.589  19.519  1.00147.44     0.187 C 
HETATM   26  C11 MIQ B 502     -11.276   3.977  19.179  1.00144.08     0.149 C 
ENDBRANCH   5  21
TORSDOF 2
ENDMDL
MODEL 3
REMARK VINA RESULT:      -6.7      2.169      7.985
REMARK  2 active torsions:
REMARK  status: ('A' for Active; 'I' for Inactive)
REMARK    1  A    between atoms: C5_5  and  N6_21 
REMARK    2  A    between atoms: C18_14  and  N17_19 
ROOT
HETATM    1  O1  MIQ B 502      -6.337 -11.109  16.598  1.00142.91    -0.171 OA
HETATM    2  C2  MIQ B 502      -5.804  -9.912  16.116  1.00141.17     0.195 A 
HETATM    3  C3  MIQ B 502      -4.307  -9.648  15.756  1.00141.71     0.035 A 
HETATM    4  C4  MIQ B 502      -3.086 -10.487  15.797  1.00142.86     0.046 A 
HETATM    5  C5  MIQ B 502      -1.835  -9.954  15.395  1.00139.53     0.031 A 
HETATM    6  C12 MIQ B 502      -1.752  -8.574  14.938  1.00139.38     0.030 A 
HETATM    7  C13 MIQ B 502      -2.923  -7.770  14.897  1.00141.18     0.019 A 
HETATM    8  C14 MIQ B 502      -4.233  -8.336  15.318  1.00138.77     0.033 A 
HETATM    9  C15 MIQ B 502      -5.692  -7.782  15.406  1.00142.10     0.195 A 
HETATM   10  N17 MIQ B 502      -6.434  -8.778  15.862  1.00139.42    -0.288 N 
HETATM   11  O16 MIQ B 502      -6.119  -6.495  15.074  1.00148.93    -0.171 OA
ENDROOT
BRANCH  10  12
HETATM   12  C18 MIQ B 502      -7.859  -8.619  16.088  1.00139.82     0.187 C 
HETATM   13  C19 MIQ B 502      -8.153  -9.041  17.532  1.00140.06     0.247 C 
HETATM   14  O25 MIQ B 502      -7.514  -8.578  18.409  1.00143.95    -0.271 OA
HETATM   15  N20 MIQ B 502      -9.200  -9.990  17.853  1.00140.02    -0.296 N 
HETATM   16  H13 MIQ B 502      -9.377 -10.262  18.800  1.00142.77     0.171 HD
HETATM   17  C21 MIQ B 502      -9.959 -10.550  16.765  1.00142.22     0.224 C 
HETATM   18  C22 MIQ B 502      -9.220 -10.767  15.459  1.00139.52     0.106 C 
HETATM   19  O24 MIQ B 502     -11.103 -10.821  16.885  1.00146.13    -0.273 OA
HETATM   20  C23 MIQ B 502      -8.653  -9.418  15.055  1.00139.15     0.045 C 
ENDBRANCH  10  12
BRANCH   5  21
HETATM   21  N6  MIQ B 502      -0.645 -10.782  15.455  1.00140.95    -0.377 N 
HETATM   22  C7  MIQ B 502       0.652 -10.131  15.525  1.00142.12     0.149 C 
HETATM   23  C8  MIQ B 502       1.758 -11.005  14.948  1.00144.10     0.187 C 
HETATM   24  O9  MIQ B 502       1.722 -12.315  15.429  1.00148.65    -0.388 OA
HETATM   25  C10 MIQ B 502       0.626 -12.768  16.168  1.00147.44     0.187 C 
HETATM   26  C11 MIQ B 502      -0.746 -12.168  15.880  1.00144.08     0.149 C 
ENDBRANCH   5  21
TORSDOF 2
ENDMDL
MODEL 4
REMARK VINA RESULT:      -6.6      2.000      8.440
REMARK  2 active torsions:
REMARK  status: ('A' for Active; 'I' for Inactive)
REMARK    1  A    between atoms: C5_5  and  N6_21 
REMARK    2  A    between atoms: C18_14  and  N17_19 
ROOT
HETATM    1  O1  MIQ B 502      -3.784  -8.396  14.831  1.00142.91    -0.171 OA
HETATM    2  C2  MIQ B 502      -3.523  -9.436  15.727  1.00141.17     0.195 A 
HETATM    3  C3  MIQ B 502      -2.149 -10.150  15.934  1.00141.71     0.035 A 
HETATM    4  C4  MIQ B 502      -0.810  -9.982  15.322  1.00142.86     0.046 A 
HETATM    5  C5  MIQ B 502       0.273 -10.801  15.730  1.00139.53     0.031 A 
HETATM    6  C12 MIQ B 502       0.066 -11.813  16.756  1.00139.38     0.030 A 
HETATM    7  C13 MIQ B 502      -1.217 -11.974  17.344  1.00141.18     0.019 A 
HETATM    8  C14 MIQ B 502      -2.349 -11.109  16.914  1.00138.77     0.033 A 
HETATM    9  C15 MIQ B 502      -3.855 -10.989  17.317  1.00142.10     0.195 A 
HETATM   10  N17 MIQ B 502      -4.357 -10.018  16.571  1.00139.42    -0.288 N 
HETATM   11  O16 MIQ B 502      -4.530 -11.755  18.269  1.00148.93    -0.171 OA
ENDROOT
BRANCH  10  12
HETATM   12  C18 MIQ B 502      -5.753  -9.635  16.664  1.00139.82     0.187 C 
HETATM   13  C19 MIQ B 502      -6.397  -9.873  15.293  1.00140.06     0.247 C 
HETATM   14  O25 MIQ B 502      -6.262 -10.920  14.767  1.00143.95    -0.271 OA
HETATM   15  N20 MIQ B 502      -7.172  -8.847  14.625  1.00140.02    -0.296 N 
HETATM   16  H13 MIQ B 502      -7.581  -9.013  13.727  1.00142.77     0.171 HD
HETATM   17  C21 MIQ B 502      -7.313  -7.573  15.282  1.00142.22     0.224 C 
HETATM   18  C22 MIQ B 502      -6.138  -7.103  16.117  1.00139.52     0.106 C 
HETATM   19  O24 MIQ B 502      -8.300  -6.931  15.178  1.00146.13    -0.273 OA
HETATM   20  C23 MIQ B 502      -5.876  -8.190  17.144  1.00139.15     0.045 C 
ENDBRANCH  10  12
BRANCH   5  21
HETATM   21  N6  MIQ B 502       1.575 -10.636  15.111  1.00140.95    -0.377 N 
HETATM   22  C7  MIQ B 502       2.157 -11.764  14.404  1.00142.12     0.149 C 
HETATM   23  C8  MIQ B 502       3.679 -11.697  14.383  1.00144.10     0.187 C 
HETATM   24  O9  MIQ B 502       4.163 -10.443  14.006  1.00148.65    -0.388 OA
HETATM   25  C10 MIQ B 502       3.297  -9.351  13.905  1.00147.44     0.187 C 
HETATM   26  C11 MIQ B 502       2.074  -9.304  14.816  1.00144.08     0.149 C 
ENDBRANCH   5  21
TORSDOF 2
ENDMDL
MODEL 5
REMARK VINA RESULT:      -6.6      1.850      8.294
REMARK  2 active torsions:
REMARK  status: ('A' for Active; 'I' for Inactive)
REMARK    1  A    between atoms: C5_5  and  N6_21 
REMARK    2  A    between atoms: C18_14  and  N17_19 
ROOT
HETATM    1  O1  MIQ B 502      -6.114 -11.569  17.429  1.00142.91    -0.171 OA
HETATM    2  C2  MIQ B 502      -5.772 -10.391  16.763  1.00141.17     0.195 A 
HETATM    3  C3  MIQ B 502      -4.365 -10.032  16.187  1.00141.71     0.035 A 
HETATM    4  C4  MIQ B 502      -3.066 -10.744  16.154  1.00142.86     0.046 A 
HETATM    5  C5  MIQ B 502      -1.936 -10.146  15.541  1.00139.53     0.031 A 
HETATM    6  C12 MIQ B 502      -2.055  -8.825  14.940  1.00139.38     0.030 A 
HETATM    7  C13 MIQ B 502      -3.301  -8.143  14.970  1.00141.18     0.019 A 
HETATM    8  C14 MIQ B 502      -4.484  -8.777  15.613  1.00138.77     0.033 A 
HETATM    9  C15 MIQ B 502      -5.973  -8.354  15.834  1.00142.10     0.195 A 
HETATM   10  N17 MIQ B 502      -6.546  -9.356  16.480  1.00139.42    -0.288 N 
HETATM   11  O16 MIQ B 502      -6.571  -7.158  15.431  1.00148.93    -0.171 OA
ENDROOT
BRANCH  10  12
HETATM   12  C18 MIQ B 502      -7.942  -9.306  16.871  1.00139.82     0.187 C 
HETATM   13  C19 MIQ B 502      -8.776  -9.088  15.603  1.00140.06     0.247 C 
HETATM   14  O25 MIQ B 502      -8.605  -9.793  14.673  1.00143.95    -0.271 OA
HETATM   15  N20 MIQ B 502      -9.775  -8.042  15.517  1.00140.02    -0.296 N 
HETATM   16  H13 MIQ B 502     -10.308  -7.906  14.681  1.00142.77     0.171 HD
HETATM   17  C21 MIQ B 502      -9.958  -7.188  16.662  1.00142.22     0.224 C 
HETATM   18  C22 MIQ B 502      -8.724  -6.885  17.490  1.00139.52     0.106 C 
HETATM   19  O24 MIQ B 502     -11.019  -6.751  16.943  1.00146.13    -0.273 OA
HETATM   20  C23 MIQ B 502      -8.159  -8.224  17.928  1.00139.15     0.045 C 
ENDBRANCH  10  12
BRANCH   5  21
HETATM   21  N6  MIQ B 502      -0.666 -10.848  15.530  1.00140.95    -0.377 N 
HETATM   22  C7  MIQ B 502       0.559 -10.070  15.602  1.00142.12     0.149 C 
HETATM   23  C8  MIQ B 502       1.732 -10.794  14.955  1.00144.10     0.187 C 
HETATM   24  O9  MIQ B 502       1.844 -12.123  15.368  1.00148.65    -0.388 OA
HETATM   25  C10 MIQ B 502       0.823 -12.723  16.108  1.00147.44     0.187 C 
HETATM   26  C11 MIQ B 502      -0.612 -12.255  15.884  1.00144.08     0.149 C 
ENDBRANCH   5  21
TORSDOF 2
ENDMDL
MODEL 6
REMARK VINA RESULT:      -6.6      5.037      7.072
REMARK  2 active torsions:
REMARK  status: ('A' for Active; 'I' for Inactive)
REMARK    1  A    between atoms: C5_5  and  N6_21 
REMARK    2  A    between atoms: C18_14  and  N17_19 
ROOT
HETATM    1  O1  MIQ B 502      -5.251 -10.666  18.691  1.00142.91    -0.171 OA
HETATM    2  C2  MIQ B 502      -3.884 -10.415  18.835  1.00141.17     0.195 A 
HETATM    3  C3  MIQ B 502      -3.181  -9.843  20.107  1.00141.71     0.035 A 
HETATM    4  C4  MIQ B 502      -3.671  -9.426  21.442  1.00142.86     0.046 A 
HETATM    5  C5  MIQ B 502      -2.766  -8.935  22.417  1.00139.53     0.031 A 
HETATM    6  C12 MIQ B 502      -1.347  -8.843  22.104  1.00139.38     0.030 A 
HETATM    7  C13 MIQ B 502      -0.876  -9.245  20.824  1.00141.18     0.019 A 
HETATM    8  C14 MIQ B 502      -1.831  -9.761  19.806  1.00138.77     0.033 A 
HETATM    9  C15 MIQ B 502      -1.696 -10.284  18.339  1.00142.10     0.195 A 
HETATM   10  N17 MIQ B 502      -2.920 -10.606  17.952  1.00139.42    -0.288 N 
HETATM   11  O16 MIQ B 502      -0.521 -10.386  17.592  1.00148.93    -0.171 OA
ENDROOT
BRANCH  10  12
HETATM   12  C18 MIQ B 502      -3.182 -11.120  16.620  1.00139.82     0.187 C 
HETATM   13  C19 MIQ B 502      -4.286 -10.258  15.996  1.00140.06     0.247 C 
HETATM   14  O25 MIQ B 502      -4.172  -9.084  16.000  1.00143.95    -0.271 OA
HETATM   15  N20 MIQ B 502      -5.466 -10.846  15.394  1.00140.02    -0.296 N 
HETATM   16  H13 MIQ B 502      -6.183 -10.272  14.996  1.00142.77     0.171 HD
HETATM   17  C21 MIQ B 502      -5.587 -12.281  15.411  1.00142.22     0.224 C 
HETATM   18  C22 MIQ B 502      -5.005 -13.000  16.612  1.00139.52     0.106 C 
HETATM   19  O24 MIQ B 502      -6.111 -12.867  14.528  1.00146.13    -0.273 OA
HETATM   20  C23 MIQ B 502      -3.541 -12.603  16.685  1.00139.15     0.045 C 
ENDBRANCH  10  12
BRANCH   5  21
HETATM   21  N6  MIQ B 502      -3.262  -8.516  23.715  1.00140.95    -0.377 N 
HETATM   22  C7  MIQ B 502      -4.469  -7.709  23.770  1.00142.12     0.149 C 
HETATM   23  C8  MIQ B 502      -4.512  -6.835  25.016  1.00144.10     0.187 C 
HETATM   24  O9  MIQ B 502      -4.211  -7.538  26.184  1.00148.65    -0.388 OA
HETATM   25  C10 MIQ B 502      -3.704  -8.839  26.116  1.00147.44     0.187 C 
HETATM   26  C11 MIQ B 502      -2.852  -9.227  24.913  1.00144.08     0.149 C 
ENDBRANCH   5  21
TORSDOF 2
ENDMDL
MODEL 7
REMARK VINA RESULT:      -6.5     22.984     24.866
REMARK  2 active torsions:
REMARK  status: ('A' for Active; 'I' for Inactive)
REMARK    1  A    between atoms: C5_5  and  N6_21 
REMARK    2  A    between atoms: C18_14  and  N17_19 
ROOT
HETATM    1  O1  MIQ B 502      12.152   4.253  27.485  1.00142.91    -0.171 OA
HETATM    2  C2  MIQ B 502      12.732   3.203  26.770  1.00141.17     0.195 A 
HETATM    3  C3  MIQ B 502      13.194   1.831  27.356  1.00141.71     0.035 A 
HETATM    4  C4  MIQ B 502      13.170   1.245  28.717  1.00142.86     0.046 A 
HETATM    5  C5  MIQ B 502      13.673  -0.061  28.944  1.00139.53     0.031 A 
HETATM    6  C12 MIQ B 502      14.215  -0.830  27.833  1.00139.38     0.030 A 
HETATM    7  C13 MIQ B 502      14.237  -0.269  26.528  1.00141.18     0.019 A 
HETATM    8  C14 MIQ B 502      13.705   1.102  26.295  1.00138.77     0.033 A 
HETATM    9  C15 MIQ B 502      13.560   2.027  25.042  1.00142.10     0.195 A 
HETATM   10  N17 MIQ B 502      13.004   3.146  25.477  1.00139.42    -0.288 N 
HETATM   11  O16 MIQ B 502      13.943   1.728  23.734  1.00148.93    -0.171 OA
ENDROOT
BRANCH  10  12
HETATM   12  C18 MIQ B 502      12.729   4.253  24.580  1.00139.82     0.187 C 
HETATM   13  C19 MIQ B 502      13.416   5.499  25.153  1.00140.06     0.247 C 
HETATM   14  O25 MIQ B 502      14.557   5.444  25.448  1.00143.95    -0.271 OA
HETATM   15  N20 MIQ B 502      12.704   6.747  25.336  1.00140.02    -0.296 N 
HETATM   16  H13 MIQ B 502      13.162   7.552  25.717  1.00142.77     0.171 HD
HETATM   17  C21 MIQ B 502      11.310   6.787  24.978  1.00142.22     0.224 C 
HETATM   18  C22 MIQ B 502      10.516   5.512  25.189  1.00139.52     0.106 C 
HETATM   19  O24 MIQ B 502      10.813   7.765  24.537  1.00146.13    -0.273 OA
HETATM   20  C23 MIQ B 502      11.223   4.428  24.397  1.00139.15     0.045 C 
ENDBRANCH  10  12
BRANCH   5  21
HETATM   21  N6  MIQ B 502      13.657  -0.616  30.285  1.00140.95    -0.377 N 
HETATM   22  C7  MIQ B 502      13.025  -1.907  30.495  1.00142.12     0.149 C 
HETATM   23  C8  MIQ B 502      12.511  -2.064  31.920  1.00144.10     0.187 C 
HETATM   24  O9  MIQ B 502      13.456  -1.700  32.882  1.00148.65    -0.388 OA
HETATM   25  C10 MIQ B 502      14.633  -1.048  32.505  1.00147.44     0.187 C 
HETATM   26  C11 MIQ B 502      14.606  -0.143  31.278  1.00144.08     0.149 C 
ENDBRANCH   5  21
TORSDOF 2
ENDMDL
MODEL 8
REMARK VINA RESULT:      -6.5     22.396     24.533
REMARK  2 active torsions:
REMARK  status: ('A' for Active; 'I' for Inactive)
REMARK    1  A    between atoms: C5_5  and  N6_21 
REMARK    2  A    between atoms: C18_14  and  N17_19 
ROOT
HETATM    1  O1  MIQ B 502      14.192   3.527  27.597  1.00142.91    -0.171 OA
HETATM    2  C2  MIQ B 502      13.698   3.264  26.317  1.00141.17     0.195 A 
HETATM    3  C3  MIQ B 502      13.932   1.962  25.487  1.00141.71     0.035 A 
HETATM    4  C4  MIQ B 502      14.672   0.705  25.751  1.00142.86     0.046 A 
HETATM    5  C5  MIQ B 502      14.703  -0.326  24.778  1.00139.53     0.031 A 
HETATM    6  C12 MIQ B 502      14.003  -0.149  23.514  1.00139.38     0.030 A 
HETATM    7  C13 MIQ B 502      13.292   1.056  23.262  1.00141.18     0.019 A 
HETATM    8  C14 MIQ B 502      13.261   2.134  24.288  1.00138.77     0.033 A 
HETATM    9  C15 MIQ B 502      12.606   3.551  24.373  1.00142.10     0.195 A 
HETATM   10  N17 MIQ B 502      12.942   4.038  25.556  1.00139.42    -0.288 N 
HETATM   11  O16 MIQ B 502      11.828   4.172  23.395  1.00148.93    -0.171 OA
ENDROOT
BRANCH  10  12
HETATM   12  C18 MIQ B 502      12.518   5.359  25.980  1.00139.82     0.187 C 
HETATM   13  C19 MIQ B 502      10.987   5.408  25.896  1.00140.06     0.247 C 
HETATM   14  O25 MIQ B 502      10.354   4.556  26.411  1.00143.95    -0.271 OA
HETATM   15  N20 MIQ B 502      10.294   6.476  25.205  1.00140.02    -0.296 N 
HETATM   16  H13 MIQ B 502       9.295   6.493  25.151  1.00142.77     0.171 HD
HETATM   17  C21 MIQ B 502      11.089   7.499  24.575  1.00142.22     0.224 C 
HETATM   18  C22 MIQ B 502      12.423   7.066  23.997  1.00139.52     0.106 C 
HETATM   19  O24 MIQ B 502      10.720   8.621  24.518  1.00146.13    -0.273 OA
HETATM   20  C23 MIQ B 502      13.201   6.433  25.136  1.00139.15     0.045 C 
ENDBRANCH  10  12
BRANCH   5  21
HETATM   21  N6  MIQ B 502      15.445  -1.546  25.044  1.00140.95    -0.377 N 
HETATM   22  C7  MIQ B 502      15.353  -2.140  26.366  1.00142.12     0.149 C 
HETATM   23  C8  MIQ B 502      16.591  -2.958  26.709  1.00144.10     0.187 C 
HETATM   24  O9  MIQ B 502      16.966  -3.832  25.686  1.00148.65    -0.388 OA
HETATM   25  C10 MIQ B 502      16.369  -3.744  24.426  1.00147.44     0.187 C 
HETATM   26  C11 MIQ B 502      15.888  -2.380  23.941  1.00144.08     0.149 C 
ENDBRANCH   5  21
TORSDOF 2
ENDMDL
MODEL 9
REMARK VINA RESULT:      -6.5      5.875      8.957
REMARK  2 active torsions:
REMARK  status: ('A' for Active; 'I' for Inactive)
REMARK    1  A    between atoms: C5_5  and  N6_21 
REMARK    2  A    between atoms: C18_14  and  N17_19 
ROOT
HETATM    1  O1  MIQ B 502      -1.486  -7.578  21.507  1.00142.91    -0.171 OA
HETATM    2  C2  MIQ B 502      -2.235  -8.750  21.630  1.00141.17     0.195 A 
HETATM    3  C3  MIQ B 502      -2.328  -9.900  20.577  1.00141.71     0.035 A 
HETATM    4  C4  MIQ B 502      -1.718 -10.111  19.243  1.00142.86     0.046 A 
HETATM    5  C5  MIQ B 502      -1.998 -11.288  18.504  1.00139.53     0.031 A 
HETATM    6  C12 MIQ B 502      -2.890 -12.295  19.062  1.00139.38     0.030 A 
HETATM    7  C13 MIQ B 502      -3.474 -12.093  20.341  1.00141.18     0.019 A 
HETATM    8  C14 MIQ B 502      -3.174 -10.856  21.113  1.00138.77     0.033 A 
HETATM    9  C15 MIQ B 502      -3.609 -10.298  22.507  1.00142.10     0.195 A 
HETATM   10  N17 MIQ B 502      -3.001  -9.131  22.638  1.00139.42    -0.288 N 
HETATM   11  O16 MIQ B 502      -4.468 -10.910  23.422  1.00148.93    -0.171 OA
ENDROOT
BRANCH  10  12
HETATM   12  C18 MIQ B 502      -3.186  -8.309  23.820  1.00139.82     0.187 C 
HETATM   13  C19 MIQ B 502      -2.847  -9.167  25.045  1.00140.06     0.247 C 
HETATM   14  O25 MIQ B 502      -1.824  -9.753  25.072  1.00143.95    -0.271 OA
HETATM   15  N20 MIQ B 502      -3.748  -9.275  26.174  1.00140.02    -0.296 N 
HETATM   16  H13 MIQ B 502      -3.518  -9.844  26.965  1.00142.77     0.171 HD
HETATM   17  C21 MIQ B 502      -4.996  -8.559  26.113  1.00142.22     0.224 C 
HETATM   18  C22 MIQ B 502      -5.634  -8.418  24.744  1.00139.52     0.106 C 
HETATM   19  O24 MIQ B 502      -5.493  -8.101  27.082  1.00146.13    -0.273 OA
HETATM   20  C23 MIQ B 502      -4.605  -7.743  23.856  1.00139.15     0.045 C 
ENDBRANCH  10  12
BRANCH   5  21
HETATM   21  N6  MIQ B 502      -1.406 -11.475  17.193  1.00140.95    -0.377 N 
HETATM   22  C7  MIQ B 502      -1.492 -10.391  16.230  1.00142.12     0.149 C 
HETATM   23  C8  MIQ B 502      -1.443 -10.898  14.795  1.00144.10     0.187 C 
HETATM   24  O9  MIQ B 502      -0.408 -11.809  14.576  1.00148.65    -0.388 OA
HETATM   25  C10 MIQ B 502       0.314 -12.332  15.651  1.00147.44     0.187 C 
HETATM   26  C11 MIQ B 502      -0.392 -12.496  16.993  1.00144.08     0.149 C 
ENDBRANCH   5  21
TORSDOF 2
ENDMDL
