MODEL 1
REMARK VINA RESULT:      -6.6      0.000      0.000
REMARK  2 active torsions:
REMARK  status: ('A' for Active; 'I' for Inactive)
REMARK    1  A    between atoms: C5_5  and  N6_21 
REMARK    2  A    between atoms: C18_14  and  N17_19 
ROOT
HETATM    1  O1  MIQ B 502     -20.279 -12.138  11.801  1.00142.91    -0.171 OA
HETATM    2  C2  MIQ B 502     -18.965 -12.608  11.845  1.00141.17     0.195 A 
HETATM    3  C3  MIQ B 502     -18.349 -13.715  10.931  1.00141.71     0.035 A 
HETATM    4  C4  MIQ B 502     -18.892 -14.544   9.829  1.00142.86     0.046 A 
HETATM    5  C5  MIQ B 502     -18.066 -15.490   9.171  1.00139.53     0.031 A 
HETATM    6  C12 MIQ B 502     -16.678 -15.645   9.579  1.00139.38     0.030 A 
HETATM    7  C13 MIQ B 502     -16.157 -14.849  10.635  1.00141.18     0.019 A 
HETATM    8  C14 MIQ B 502     -17.028 -13.857  11.321  1.00138.77     0.033 A 
HETATM    9  C15 MIQ B 502     -16.821 -12.831  12.484  1.00142.10     0.195 A 
HETATM   10  N17 MIQ B 502     -17.985 -12.223  12.645  1.00139.42    -0.288 N 
HETATM   11  O16 MIQ B 502     -15.646 -12.609  13.203  1.00148.93    -0.171 OA
ENDROOT
BRANCH  10  12
HETATM   12  C18 MIQ B 502     -18.173 -11.205  13.662  1.00139.82     0.187 C 
HETATM   13  C19 MIQ B 502     -17.151 -10.091  13.403  1.00140.06     0.247 C 
HETATM   14  O25 MIQ B 502     -17.069  -9.624  12.322  1.00143.95    -0.271 OA
HETATM   15  N20 MIQ B 502     -16.285  -9.590  14.450  1.00140.02    -0.296 N 
HETATM   16  H13 MIQ B 502     -15.618  -8.867  14.267  1.00142.77     0.171 HD
HETATM   17  C21 MIQ B 502     -16.397 -10.183  15.758  1.00142.22     0.224 C 
HETATM   18  C22 MIQ B 502     -16.746 -11.657  15.810  1.00139.52     0.106 C 
HETATM   19  O24 MIQ B 502     -16.229  -9.547  16.741  1.00146.13    -0.273 OA
HETATM   20  C23 MIQ B 502     -18.053 -11.818  15.056  1.00139.15     0.045 C 
ENDBRANCH  10  12
BRANCH   5  21
HETATM   21  N6  MIQ B 502     -18.615 -16.306   8.103  1.00140.95    -0.377 N 
HETATM   22  C7  MIQ B 502     -18.541 -17.752   8.226  1.00142.12     0.149 C 
HETATM   23  C8  MIQ B 502     -18.531 -18.439   6.866  1.00144.10     0.187 C 
HETATM   24  O9  MIQ B 502     -19.526 -17.963   6.010  1.00148.65    -0.388 OA
HETATM   25  C10 MIQ B 502     -20.259 -16.821   6.343  1.00147.44     0.187 C 
HETATM   26  C11 MIQ B 502     -19.586 -15.741   7.183  1.00144.08     0.149 C 
ENDBRANCH   5  21
TORSDOF 2
ENDMDL
MODEL 2
REMARK VINA RESULT:      -6.5      2.524      8.601
REMARK  2 active torsions:
REMARK  status: ('A' for Active; 'I' for Inactive)
REMARK    1  A    between atoms: C5_5  and  N6_21 
REMARK    2  A    between atoms: C18_14  and  N17_19 
ROOT
HETATM    1  O1  MIQ B 502     -17.391 -11.304  10.959  1.00142.91    -0.171 OA
HETATM    2  C2  MIQ B 502     -17.424 -11.921  12.211  1.00141.17     0.195 A 
HETATM    3  C3  MIQ B 502     -16.938 -11.299  13.559  1.00141.71     0.035 A 
HETATM    4  C4  MIQ B 502     -16.348  -9.989  13.923  1.00142.86     0.046 A 
HETATM    5  C5  MIQ B 502     -16.001  -9.708  15.268  1.00139.53     0.031 A 
HETATM    6  C12 MIQ B 502     -16.228 -10.712  16.298  1.00139.38     0.030 A 
HETATM    7  C13 MIQ B 502     -16.795 -11.968  15.950  1.00141.18     0.019 A 
HETATM    8  C14 MIQ B 502     -17.159 -12.257  14.536  1.00138.77     0.033 A 
HETATM    9  C15 MIQ B 502     -17.785 -13.480  13.790  1.00142.10     0.195 A 
HETATM   10  N17 MIQ B 502     -17.866 -13.129  12.517  1.00139.42    -0.288 N 
HETATM   11  O16 MIQ B 502     -18.176 -14.694  14.358  1.00148.93    -0.171 OA
ENDROOT
BRANCH  10  12
HETATM   12  C18 MIQ B 502     -18.392 -14.036  11.514  1.00139.82     0.187 C 
HETATM   13  C19 MIQ B 502     -17.347 -14.154  10.397  1.00140.06     0.247 C 
HETATM   14  O25 MIQ B 502     -16.230 -14.409  10.678  1.00143.95    -0.271 OA
HETATM   15  N20 MIQ B 502     -17.695 -13.969   9.003  1.00140.02    -0.296 N 
HETATM   16  H13 MIQ B 502     -17.002 -14.042   8.284  1.00142.77     0.171 HD
HETATM   17  C21 MIQ B 502     -19.063 -13.648   8.686  1.00142.22     0.224 C 
HETATM   18  C22 MIQ B 502     -19.816 -12.803   9.695  1.00139.52     0.106 C 
HETATM   19  O24 MIQ B 502     -19.572 -14.032   7.691  1.00146.13    -0.273 OA
HETATM   20  C23 MIQ B 502     -19.751 -13.547  11.016  1.00139.15     0.045 C 
ENDBRANCH  10  12
BRANCH   5  21
HETATM   21  N6  MIQ B 502     -15.410  -8.426  15.608  1.00140.95    -0.377 N 
HETATM   22  C7  MIQ B 502     -13.963  -8.302  15.589  1.00142.12     0.149 C 
HETATM   23  C8  MIQ B 502     -13.473  -7.212  16.534  1.00144.10     0.187 C 
HETATM   24  O9  MIQ B 502     -14.177  -6.015  16.394  1.00148.65    -0.388 OA
HETATM   25  C10 MIQ B 502     -15.341  -5.964  15.623  1.00147.44     0.187 C 
HETATM   26  C11 MIQ B 502     -16.208  -7.215  15.528  1.00144.08     0.149 C 
ENDBRANCH   5  21
TORSDOF 2
ENDMDL
MODEL 3
REMARK VINA RESULT:      -6.4      3.816      5.007
REMARK  2 active torsions:
REMARK  status: ('A' for Active; 'I' for Inactive)
REMARK    1  A    between atoms: C5_5  and  N6_21 
REMARK    2  A    between atoms: C18_14  and  N17_19 
ROOT
HETATM    1  O1  MIQ B 502     -17.872 -11.431  10.606  1.00142.91    -0.171 OA
HETATM    2  C2  MIQ B 502     -18.441 -12.584  10.061  1.00141.17     0.195 A 
HETATM    3  C3  MIQ B 502     -19.033 -12.729   8.623  1.00141.71     0.035 A 
HETATM    4  C4  MIQ B 502     -19.171 -11.796   7.479  1.00142.86     0.046 A 
HETATM    5  C5  MIQ B 502     -19.767 -12.231   6.268  1.00139.53     0.031 A 
HETATM    6  C12 MIQ B 502     -20.244 -13.601   6.149  1.00139.38     0.030 A 
HETATM    7  C13 MIQ B 502     -20.111 -14.495   7.245  1.00141.18     0.019 A 
HETATM    8  C14 MIQ B 502     -19.483 -14.034   8.513  1.00138.77     0.033 A 
HETATM    9  C15 MIQ B 502     -19.168 -14.704   9.890  1.00142.10     0.195 A 
HETATM   10  N17 MIQ B 502     -18.592 -13.768  10.628  1.00139.42    -0.288 N 
HETATM   11  O16 MIQ B 502     -19.443 -16.021  10.262  1.00148.93    -0.171 OA
ENDROOT
BRANCH  10  12
HETATM   12  C18 MIQ B 502     -18.172 -14.031  11.992  1.00139.82     0.187 C 
HETATM   13  C19 MIQ B 502     -18.837 -12.986  12.896  1.00140.06     0.247 C 
HETATM   14  O25 MIQ B 502     -20.002 -12.816  12.819  1.00143.95    -0.271 OA
HETATM   15  N20 MIQ B 502     -18.076 -12.204  13.848  1.00140.02    -0.296 N 
HETATM   16  H13 MIQ B 502     -18.521 -11.520  14.428  1.00142.77     0.171 HD
HETATM   17  C21 MIQ B 502     -16.654 -12.422  13.916  1.00142.22     0.224 C 
HETATM   18  C22 MIQ B 502     -15.957 -12.782  12.618  1.00139.52     0.106 C 
HETATM   19  O24 MIQ B 502     -16.063 -12.330  14.935  1.00146.13    -0.273 OA
HETATM   20  C23 MIQ B 502     -16.647 -14.026  12.089  1.00139.15     0.045 C 
ENDBRANCH  10  12
BRANCH   5  21
HETATM   21  N6  MIQ B 502     -19.909 -11.302   5.161  1.00140.95    -0.377 N 
HETATM   22  C7  MIQ B 502     -20.016 -11.838   3.815  1.00142.12     0.149 C 
HETATM   23  C8  MIQ B 502     -19.521 -10.848   2.768  1.00144.10     0.187 C 
HETATM   24  O9  MIQ B 502     -20.043  -9.566   2.943  1.00148.65    -0.388 OA
HETATM   25  C10 MIQ B 502     -20.746  -9.240   4.106  1.00147.44     0.187 C 
HETATM   26  C11 MIQ B 502     -20.376  -9.949   5.405  1.00144.08     0.149 C 
ENDBRANCH   5  21
TORSDOF 2
ENDMDL
MODEL 4
REMARK VINA RESULT:      -6.4      2.785      7.882
REMARK  2 active torsions:
REMARK  status: ('A' for Active; 'I' for Inactive)
REMARK    1  A    between atoms: C5_5  and  N6_21 
REMARK    2  A    between atoms: C18_14  and  N17_19 
ROOT
HETATM    1  O1  MIQ B 502     -20.093 -11.442  10.274  1.00142.91    -0.171 OA
HETATM    2  C2  MIQ B 502     -19.026 -12.341  10.327  1.00141.17     0.195 A 
HETATM    3  C3  MIQ B 502     -17.933 -12.410  11.441  1.00141.71     0.035 A 
HETATM    4  C4  MIQ B 502     -17.689 -11.633  12.679  1.00142.86     0.046 A 
HETATM    5  C5  MIQ B 502     -16.584 -11.940  13.512  1.00139.53     0.031 A 
HETATM    6  C12 MIQ B 502     -15.684 -13.025  13.148  1.00139.38     0.030 A 
HETATM    7  C13 MIQ B 502     -15.918 -13.771  11.961  1.00141.18     0.019 A 
HETATM    8  C14 MIQ B 502     -17.081 -13.446  11.092  1.00138.77     0.033 A 
HETATM    9  C15 MIQ B 502     -17.650 -14.023   9.755  1.00142.10     0.195 A 
HETATM   10  N17 MIQ B 502     -18.723 -13.304   9.473  1.00139.42    -0.288 N 
HETATM   11  O16 MIQ B 502     -17.124 -15.081   9.011  1.00148.93    -0.171 OA
ENDROOT
BRANCH  10  12
HETATM   12  C18 MIQ B 502     -19.509 -13.551   8.278  1.00139.82     0.187 C 
HETATM   13  C19 MIQ B 502     -19.649 -12.220   7.528  1.00140.06     0.247 C 
HETATM   14  O25 MIQ B 502     -18.683 -11.585   7.296  1.00143.95    -0.271 OA
HETATM   15  N20 MIQ B 502     -20.937 -11.723   7.089  1.00140.02    -0.296 N 
HETATM   16  H13 MIQ B 502     -21.017 -10.850   6.606  1.00142.77     0.171 HD
HETATM   17  C21 MIQ B 502     -22.104 -12.512   7.393  1.00142.22     0.224 C 
HETATM   18  C22 MIQ B 502     -22.081 -13.288   8.696  1.00139.52     0.106 C 
HETATM   19  O24 MIQ B 502     -23.029 -12.554   6.660  1.00146.13    -0.273 OA
HETATM   20  C23 MIQ B 502     -20.852 -14.179   8.645  1.00139.15     0.045 C 
ENDBRANCH  10  12
BRANCH   5  21
HETATM   21  N6  MIQ B 502     -16.349 -11.161  14.714  1.00140.95    -0.377 N 
HETATM   22  C7  MIQ B 502     -17.018 -11.558  15.941  1.00142.12     0.149 C 
HETATM   23  C8  MIQ B 502     -17.218 -10.380  16.886  1.00144.10     0.187 C 
HETATM   24  O9  MIQ B 502     -16.061  -9.619  17.058  1.00148.65    -0.388 OA
HETATM   25  C10 MIQ B 502     -14.947  -9.830  16.241  1.00147.44     0.187 C 
HETATM   26  C11 MIQ B 502     -15.172 -10.315  14.813  1.00144.08     0.149 C 
ENDBRANCH   5  21
TORSDOF 2
ENDMDL
MODEL 5
REMARK VINA RESULT:      -6.3      1.990      8.566
REMARK  2 active torsions:
REMARK  status: ('A' for Active; 'I' for Inactive)
REMARK    1  A    between atoms: C5_5  and  N6_21 
REMARK    2  A    between atoms: C18_14  and  N17_19 
ROOT
HETATM    1  O1  MIQ B 502     -18.097 -14.728  13.886  1.00142.91    -0.171 OA
HETATM    2  C2  MIQ B 502     -17.945 -13.656  13.003  1.00141.17     0.195 A 
HETATM    3  C3  MIQ B 502     -17.640 -12.176  13.395  1.00141.71     0.035 A 
HETATM    4  C4  MIQ B 502     -17.428 -11.487  14.690  1.00142.86     0.046 A 
HETATM    5  C5  MIQ B 502     -17.160 -10.095  14.727  1.00139.53     0.031 A 
HETATM    6  C12 MIQ B 502     -17.092  -9.340  13.484  1.00139.38     0.030 A 
HETATM    7  C13 MIQ B 502     -17.293 -10.000  12.242  1.00141.18     0.019 A 
HETATM    8  C14 MIQ B 502     -17.572 -11.462  12.210  1.00138.77     0.033 A 
HETATM    9  C15 MIQ B 502     -17.837 -12.505  11.076  1.00142.10     0.195 A 
HETATM   10  N17 MIQ B 502     -18.020 -13.666  11.683  1.00139.42    -0.288 N 
HETATM   11  O16 MIQ B 502     -17.873 -12.256   9.703  1.00148.93    -0.171 OA
ENDROOT
BRANCH  10  12
HETATM   12  C18 MIQ B 502     -18.309 -14.875  10.935  1.00139.82     0.187 C 
HETATM   13  C19 MIQ B 502     -17.188 -15.068   9.907  1.00140.06     0.247 C 
HETATM   14  O25 MIQ B 502     -16.065 -15.031  10.266  1.00143.95    -0.271 OA
HETATM   15  N20 MIQ B 502     -17.469 -15.302   8.505  1.00140.02    -0.296 N 
HETATM   16  H13 MIQ B 502     -16.727 -15.420   7.843  1.00142.77     0.171 HD
HETATM   17  C21 MIQ B 502     -18.847 -15.333   8.090  1.00142.22     0.224 C 
HETATM   18  C22 MIQ B 502     -19.804 -14.421   8.833  1.00139.52     0.106 C 
HETATM   19  O24 MIQ B 502     -19.213 -16.040   7.216  1.00146.13    -0.273 OA
HETATM   20  C23 MIQ B 502     -19.697 -14.789  10.302  1.00139.15     0.045 C 
ENDBRANCH  10  12
BRANCH   5  21
HETATM   21  N6  MIQ B 502     -16.970  -9.431  16.003  1.00140.95    -0.377 N 
HETATM   22  C7  MIQ B 502     -17.333 -10.142  17.217  1.00142.12     0.149 C 
HETATM   23  C8  MIQ B 502     -17.698  -9.188  18.347  1.00144.10     0.187 C 
HETATM   24  O9  MIQ B 502     -16.767  -8.160  18.513  1.00148.65    -0.388 OA
HETATM   25  C10 MIQ B 502     -15.764  -7.954  17.563  1.00147.44     0.187 C 
HETATM   26  C11 MIQ B 502     -16.053  -8.309  16.108  1.00144.08     0.149 C 
ENDBRANCH   5  21
TORSDOF 2
ENDMDL
MODEL 6
REMARK VINA RESULT:      -6.3      1.621      2.406
REMARK  2 active torsions:
REMARK  status: ('A' for Active; 'I' for Inactive)
REMARK    1  A    between atoms: C5_5  and  N6_21 
REMARK    2  A    between atoms: C18_14  and  N17_19 
ROOT
HETATM    1  O1  MIQ B 502     -18.126 -14.418  14.355  1.00142.91    -0.171 OA
HETATM    2  C2  MIQ B 502     -17.871 -13.315  13.538  1.00141.17     0.195 A 
HETATM    3  C3  MIQ B 502     -17.937 -13.288  11.978  1.00141.71     0.035 A 
HETATM    4  C4  MIQ B 502     -18.261 -14.310  10.954  1.00142.86     0.046 A 
HETATM    5  C5  MIQ B 502     -18.238 -13.976   9.576  1.00139.53     0.031 A 
HETATM    6  C12 MIQ B 502     -17.895 -12.621   9.166  1.00139.38     0.030 A 
HETATM    7  C13 MIQ B 502     -17.585 -11.642  10.148  1.00141.18     0.019 A 
HETATM    8  C14 MIQ B 502     -17.613 -11.997  11.593  1.00138.77     0.033 A 
HETATM    9  C15 MIQ B 502     -17.345 -11.218  12.922  1.00142.10     0.195 A 
HETATM   10  N17 MIQ B 502     -17.533 -12.089  13.900  1.00139.42    -0.288 N 
HETATM   11  O16 MIQ B 502     -16.980  -9.877  13.045  1.00148.93    -0.171 OA
ENDROOT
BRANCH  10  12
HETATM   12  C18 MIQ B 502     -17.353 -11.716  15.290  1.00139.82     0.187 C 
HETATM   13  C19 MIQ B 502     -18.229 -10.487  15.562  1.00140.06     0.247 C 
HETATM   14  O25 MIQ B 502     -19.368 -10.513  15.256  1.00143.95    -0.271 OA
HETATM   15  N20 MIQ B 502     -17.698  -9.295  16.190  1.00140.02    -0.296 N 
HETATM   16  H13 MIQ B 502     -18.278  -8.496  16.355  1.00142.77     0.171 HD
HETATM   17  C21 MIQ B 502     -16.302  -9.284  16.544  1.00142.22     0.224 C 
HETATM   18  C22 MIQ B 502     -15.362 -10.051  15.634  1.00139.52     0.106 C 
HETATM   19  O24 MIQ B 502     -15.912  -8.709  17.500  1.00146.13    -0.273 OA
HETATM   20  C23 MIQ B 502     -15.874 -11.479  15.591  1.00139.15     0.045 C 
ENDBRANCH  10  12
BRANCH   5  21
HETATM   21  N6  MIQ B 502     -18.542 -14.990   8.583  1.00140.95    -0.377 N 
HETATM   22  C7  MIQ B 502     -19.462 -14.656   7.509  1.00142.12     0.149 C 
HETATM   23  C8  MIQ B 502     -20.172 -15.889   6.965  1.00144.10     0.187 C 
HETATM   24  O9  MIQ B 502     -19.300 -16.946   6.697  1.00148.65    -0.388 OA
HETATM   25  C10 MIQ B 502     -17.971 -16.892   7.127  1.00147.44     0.187 C 
HETATM   26  C11 MIQ B 502     -17.646 -16.118   8.400  1.00144.08     0.149 C 
ENDBRANCH   5  21
TORSDOF 2
ENDMDL
MODEL 7
REMARK VINA RESULT:      -6.3      1.581      2.216
REMARK  2 active torsions:
REMARK  status: ('A' for Active; 'I' for Inactive)
REMARK    1  A    between atoms: C5_5  and  N6_21 
REMARK    2  A    between atoms: C18_14  and  N17_19 
ROOT
HETATM    1  O1  MIQ B 502     -19.565 -11.881  11.909  1.00142.91    -0.171 OA
HETATM    2  C2  MIQ B 502     -18.422 -12.659  11.710  1.00141.17     0.195 A 
HETATM    3  C3  MIQ B 502     -18.235 -13.761  10.618  1.00141.71     0.035 A 
HETATM    4  C4  MIQ B 502     -19.109 -14.289   9.544  1.00142.86     0.046 A 
HETATM    5  C5  MIQ B 502     -18.646 -15.318   8.685  1.00139.53     0.031 A 
HETATM    6  C12 MIQ B 502     -17.306 -15.858   8.861  1.00139.38     0.030 A 
HETATM    7  C13 MIQ B 502     -16.467 -15.351   9.890  1.00141.18     0.019 A 
HETATM    8  C14 MIQ B 502     -16.957 -14.268  10.787  1.00138.77     0.033 A 
HETATM    9  C15 MIQ B 502     -16.347 -13.477  11.990  1.00142.10     0.195 A 
HETATM   10  N17 MIQ B 502     -17.283 -12.628  12.381  1.00139.42    -0.288 N 
HETATM   11  O16 MIQ B 502     -15.074 -13.640  12.538  1.00148.93    -0.171 OA
ENDROOT
BRANCH  10  12
HETATM   12  C18 MIQ B 502     -17.071 -11.730  13.500  1.00139.82     0.187 C 
HETATM   13  C19 MIQ B 502     -18.211 -11.953  14.502  1.00140.06     0.247 C 
HETATM   14  O25 MIQ B 502     -18.457 -13.050  14.859  1.00143.95    -0.271 OA
HETATM   15  N20 MIQ B 502     -18.991 -10.852  15.029  1.00140.02    -0.296 N 
HETATM   16  H13 MIQ B 502     -19.737 -11.012  15.677  1.00142.77     0.171 HD
HETATM   17  C21 MIQ B 502     -18.678  -9.523  14.570  1.00142.22     0.224 C 
HETATM   18  C22 MIQ B 502     -18.195  -9.393  13.139  1.00139.52     0.106 C 
HETATM   19  O24 MIQ B 502     -18.787  -8.584  15.279  1.00146.13    -0.273 OA
HETATM   20  C23 MIQ B 502     -16.974 -10.285  13.012  1.00139.15     0.045 C 
ENDBRANCH  10  12
BRANCH   5  21
HETATM   21  N6  MIQ B 502     -19.518 -15.836   7.647  1.00140.95    -0.377 N 
HETATM   22  C7  MIQ B 502     -20.076 -14.906   6.680  1.00142.12     0.149 C 
HETATM   23  C8  MIQ B 502     -21.394 -15.407   6.104  1.00144.10     0.187 C 
HETATM   24  O9  MIQ B 502     -21.334 -16.738   5.686  1.00148.65    -0.388 OA
HETATM   25  C10 MIQ B 502     -20.230 -17.532   6.008  1.00147.44     0.187 C 
HETATM   26  C11 MIQ B 502     -19.481 -17.248   7.305  1.00144.08     0.149 C 
ENDBRANCH   5  21
TORSDOF 2
ENDMDL
MODEL 8
REMARK VINA RESULT:      -6.3      5.767     10.863
REMARK  2 active torsions:
REMARK  status: ('A' for Active; 'I' for Inactive)
REMARK    1  A    between atoms: C5_5  and  N6_21 
REMARK    2  A    between atoms: C18_14  and  N17_19 
ROOT
HETATM    1  O1  MIQ B 502     -18.690 -10.144  16.345  1.00142.91    -0.171 OA
HETATM    2  C2  MIQ B 502     -17.934  -9.233  17.086  1.00141.17     0.195 A 
HETATM    3  C3  MIQ B 502     -17.950  -9.069  18.639  1.00141.71     0.035 A 
HETATM    4  C4  MIQ B 502     -18.687  -9.752  19.729  1.00142.86     0.046 A 
HETATM    5  C5  MIQ B 502     -18.483  -9.373  21.080  1.00139.53     0.031 A 
HETATM    6  C12 MIQ B 502     -17.543  -8.307  21.397  1.00139.38     0.030 A 
HETATM    7  C13 MIQ B 502     -16.835  -7.653  20.353  1.00141.18     0.019 A 
HETATM    8  C14 MIQ B 502     -17.052  -8.057  18.937  1.00138.77     0.033 A 
HETATM    9  C15 MIQ B 502     -16.475  -7.590  17.560  1.00142.10     0.195 A 
HETATM   10  N17 MIQ B 502     -17.063  -8.341  16.644  1.00139.42    -0.288 N 
HETATM   11  O16 MIQ B 502     -15.532  -6.583  17.347  1.00148.93    -0.171 OA
ENDROOT
BRANCH  10  12
HETATM   12  C18 MIQ B 502     -16.779  -8.175  15.231  1.00139.82     0.187 C 
HETATM   13  C19 MIQ B 502     -18.119  -8.066  14.494  1.00140.06     0.247 C 
HETATM   14  O25 MIQ B 502     -18.925  -7.294  14.875  1.00143.95    -0.271 OA
HETATM   15  N20 MIQ B 502     -18.422  -8.883  13.337  1.00140.02    -0.296 N 
HETATM   16  H13 MIQ B 502     -19.304  -8.808  12.868  1.00142.77     0.171 HD
HETATM   17  C21 MIQ B 502     -17.426  -9.826  12.897  1.00142.22     0.224 C 
HETATM   18  C22 MIQ B 502     -16.568 -10.462  13.973  1.00139.52     0.106 C 
HETATM   19  O24 MIQ B 502     -17.284 -10.086  11.753  1.00146.13    -0.273 OA
HETATM   20  C23 MIQ B 502     -15.905  -9.322  14.726  1.00139.15     0.045 C 
ENDBRANCH  10  12
BRANCH   5  21
HETATM   21  N6  MIQ B 502     -19.223 -10.040  22.135  1.00140.95    -0.377 N 
HETATM   22  C7  MIQ B 502     -20.034  -9.234  23.031  1.00142.12     0.149 C 
HETATM   23  C8  MIQ B 502     -20.208  -9.896  24.392  1.00144.10     0.187 C 
HETATM   24  O9  MIQ B 502     -20.576 -11.239  24.299  1.00148.65    -0.388 OA
HETATM   25  C10 MIQ B 502     -20.540 -11.900  23.069  1.00147.44     0.187 C 
HETATM   26  C11 MIQ B 502     -19.509 -11.460  22.035  1.00144.08     0.149 C 
ENDBRANCH   5  21
TORSDOF 2
ENDMDL
MODEL 9
REMARK VINA RESULT:      -6.2      1.687      8.298
REMARK  2 active torsions:
REMARK  status: ('A' for Active; 'I' for Inactive)
REMARK    1  A    between atoms: C5_5  and  N6_21 
REMARK    2  A    between atoms: C18_14  and  N17_19 
ROOT
HETATM    1  O1  MIQ B 502     -20.609 -13.186   9.984  1.00142.91    -0.171 OA
HETATM    2  C2  MIQ B 502     -19.388 -13.854  10.090  1.00141.17     0.195 A 
HETATM    3  C3  MIQ B 502     -18.209 -13.475  11.042  1.00141.71     0.035 A 
HETATM    4  C4  MIQ B 502     -18.013 -12.400  12.043  1.00142.86     0.046 A 
HETATM    5  C5  MIQ B 502     -16.801 -12.312  12.773  1.00139.53     0.031 A 
HETATM    6  C12 MIQ B 502     -15.743 -13.284  12.537  1.00139.38     0.030 A 
HETATM    7  C13 MIQ B 502     -15.931 -14.316  11.578  1.00141.18     0.019 A 
HETATM    8  C14 MIQ B 502     -17.207 -14.405  10.816  1.00138.77     0.033 A 
HETATM    9  C15 MIQ B 502     -17.767 -15.367   9.719  1.00142.10     0.195 A 
HETATM   10  N17 MIQ B 502     -18.980 -14.925   9.431  1.00139.42    -0.288 N 
HETATM   11  O16 MIQ B 502     -17.114 -16.466   9.158  1.00148.93    -0.171 OA
ENDROOT
BRANCH  10  12
HETATM   12  C18 MIQ B 502     -19.804 -15.574   8.428  1.00139.82     0.187 C 
HETATM   13  C19 MIQ B 502     -19.922 -17.055   8.806  1.00140.06     0.247 C 
HETATM   14  O25 MIQ B 502     -20.251 -17.345   9.901  1.00143.95    -0.271 OA
HETATM   15  N20 MIQ B 502     -19.646 -18.111   7.854  1.00140.02    -0.296 N 
HETATM   16  H13 MIQ B 502     -19.721 -19.075   8.115  1.00142.77     0.171 HD
HETATM   17  C21 MIQ B 502     -19.236 -17.732   6.526  1.00142.22     0.224 C 
HETATM   18  C22 MIQ B 502     -18.404 -16.470   6.405  1.00139.52     0.106 C 
HETATM   19  O24 MIQ B 502     -19.540 -18.371   5.580  1.00146.13    -0.273 OA
HETATM   20  C23 MIQ B 502     -19.217 -15.354   7.034  1.00139.15     0.045 C 
ENDBRANCH  10  12
BRANCH   5  21
HETATM   21  N6  MIQ B 502     -16.617 -11.245  13.740  1.00140.95    -0.377 N 
HETATM   22  C7  MIQ B 502     -15.702 -11.462  14.848  1.00142.12     0.149 C 
HETATM   23  C8  MIQ B 502     -16.069 -10.618  16.061  1.00144.10     0.187 C 
HETATM   24  O9  MIQ B 502     -16.312  -9.281  15.740  1.00148.65    -0.388 OA
HETATM   25  C10 MIQ B 502     -16.421  -8.882  14.406  1.00147.44     0.187 C 
HETATM   26  C11 MIQ B 502     -16.965  -9.880  13.389  1.00144.08     0.149 C 
ENDBRANCH   5  21
TORSDOF 2
ENDMDL
