MODEL 1
REMARK VINA RESULT:      -7.7      0.000      0.000
REMARK  2 active torsions:
REMARK  status: ('A' for Active; 'I' for Inactive)
REMARK    1  A    between atoms: C5_5  and  N6_21 
REMARK    2  A    between atoms: C18_14  and  N17_19 
ROOT
HETATM    1  O1  MIQ B 502      -5.742  17.316  -4.038  1.00142.91    -0.171 OA
HETATM    2  C2  MIQ B 502      -6.354  18.571  -4.093  1.00141.17     0.195 A 
HETATM    3  C3  MIQ B 502      -7.036  19.317  -2.903  1.00141.71     0.035 A 
HETATM    4  C4  MIQ B 502      -7.239  18.984  -1.473  1.00142.86     0.046 A 
HETATM    5  C5  MIQ B 502      -7.913  19.889  -0.615  1.00139.53     0.031 A 
HETATM    6  C12 MIQ B 502      -8.407  21.153  -1.142  1.00139.38     0.030 A 
HETATM    7  C13 MIQ B 502      -8.212  21.473  -2.513  1.00141.18     0.019 A 
HETATM    8  C14 MIQ B 502      -7.502  20.520  -3.409  1.00138.77     0.033 A 
HETATM    9  C15 MIQ B 502      -7.106  20.521  -4.921  1.00142.10     0.195 A 
HETATM   10  N17 MIQ B 502      -6.478  19.376  -5.135  1.00139.42    -0.288 N 
HETATM   11  O16 MIQ B 502      -7.367  21.526  -5.853  1.00148.93    -0.171 OA
ENDROOT
BRANCH  10  12
HETATM   12  C18 MIQ B 502      -5.975  19.022  -6.449  1.00139.82     0.187 C 
HETATM   13  C19 MIQ B 502      -6.551  17.648  -6.815  1.00140.06     0.247 C 
HETATM   14  O25 MIQ B 502      -7.713  17.469  -6.726  1.00143.95    -0.271 OA
HETATM   15  N20 MIQ B 502      -5.707  16.564  -7.276  1.00140.02    -0.296 N 
HETATM   16  H13 MIQ B 502      -6.095  15.671  -7.505  1.00142.77     0.171 HD
HETATM   17  C21 MIQ B 502      -4.290  16.805  -7.367  1.00142.22     0.224 C 
HETATM   18  C22 MIQ B 502      -3.691  17.745  -6.339  1.00139.52     0.106 C 
HETATM   19  O24 MIQ B 502      -3.630  16.297  -8.205  1.00146.13    -0.273 OA
HETATM   20  C23 MIQ B 502      -4.448  19.055  -6.460  1.00139.15     0.045 C 
ENDBRANCH  10  12
BRANCH   5  21
HETATM   21  N6  MIQ B 502      -8.117  19.543   0.780  1.00140.95    -0.377 N 
HETATM   22  C7  MIQ B 502      -7.318  18.474   1.355  1.00142.12     0.149 C 
HETATM   23  C8  MIQ B 502      -8.027  17.800   2.522  1.00144.10     0.187 C 
HETATM   24  O9  MIQ B 502      -8.552  18.712   3.440  1.00148.65    -0.388 OA
HETATM   25  C10 MIQ B 502      -8.594  20.075   3.137  1.00147.44     0.187 C 
HETATM   26  C11 MIQ B 502      -8.747  20.495   1.679  1.00144.08     0.149 C 
ENDBRANCH   5  21
TORSDOF 2
ENDMDL
MODEL 2
REMARK VINA RESULT:      -7.6      7.496     10.642
REMARK  2 active torsions:
REMARK  status: ('A' for Active; 'I' for Inactive)
REMARK    1  A    between atoms: C5_5  and  N6_21 
REMARK    2  A    between atoms: C18_14  and  N17_19 
ROOT
HETATM    1  O1  MIQ B 502      -5.142  16.451   4.411  1.00142.91    -0.171 OA
HETATM    2  C2  MIQ B 502      -5.331  17.258   5.535  1.00141.17     0.195 A 
HETATM    3  C3  MIQ B 502      -5.724  18.770   5.529  1.00141.71     0.035 A 
HETATM    4  C4  MIQ B 502      -5.999  19.747   4.449  1.00142.86     0.046 A 
HETATM    5  C5  MIQ B 502      -6.342  21.086   4.764  1.00139.53     0.031 A 
HETATM    6  C12 MIQ B 502      -6.423  21.503   6.157  1.00139.38     0.030 A 
HETATM    7  C13 MIQ B 502      -6.160  20.566   7.193  1.00141.18     0.019 A 
HETATM    8  C14 MIQ B 502      -5.804  19.161   6.856  1.00138.77     0.033 A 
HETATM    9  C15 MIQ B 502      -5.460  17.884   7.690  1.00142.10     0.195 A 
HETATM   10  N17 MIQ B 502      -5.228  16.924   6.810  1.00139.42    -0.288 N 
HETATM   11  O16 MIQ B 502      -5.407  17.784   9.082  1.00148.93    -0.171 OA
ENDROOT
BRANCH  10  12
HETATM   12  C18 MIQ B 502      -4.858  15.585   7.230  1.00139.82     0.187 C 
HETATM   13  C19 MIQ B 502      -3.578  15.196   6.480  1.00140.06     0.247 C 
HETATM   14  O25 MIQ B 502      -2.656  15.932   6.496  1.00143.95    -0.271 OA
HETATM   15  N20 MIQ B 502      -3.465  13.946   5.758  1.00140.02    -0.296 N 
HETATM   16  H13 MIQ B 502      -2.626  13.707   5.267  1.00142.77     0.171 HD
HETATM   17  C21 MIQ B 502      -4.608  13.069   5.745  1.00142.22     0.224 C 
HETATM   18  C22 MIQ B 502      -5.973  13.729   5.757  1.00139.52     0.106 C 
HETATM   19  O24 MIQ B 502      -4.484  11.894   5.732  1.00146.13    -0.273 OA
HETATM   20  C23 MIQ B 502      -6.014  14.615   6.988  1.00139.15     0.045 C 
ENDBRANCH  10  12
BRANCH   5  21
HETATM   21  N6  MIQ B 502      -6.595  22.036   3.696  1.00140.95    -0.377 N 
HETATM   22  C7  MIQ B 502      -6.614  23.453   4.017  1.00142.12     0.149 C 
HETATM   23  C8  MIQ B 502      -7.483  24.244   3.047  1.00144.10     0.187 C 
HETATM   24  O9  MIQ B 502      -7.221  23.938   1.710  1.00148.65    -0.388 OA
HETATM   25  C10 MIQ B 502      -6.410  22.849   1.378  1.00147.44     0.187 C 
HETATM   26  C11 MIQ B 502      -6.389  21.644   2.313  1.00144.08     0.149 C 
ENDBRANCH   5  21
TORSDOF 2
ENDMDL
MODEL 3
REMARK VINA RESULT:      -7.5      7.857     11.799
REMARK  2 active torsions:
REMARK  status: ('A' for Active; 'I' for Inactive)
REMARK    1  A    between atoms: C5_5  and  N6_21 
REMARK    2  A    between atoms: C18_14  and  N17_19 
ROOT
HETATM    1  O1  MIQ B 502      -5.883  19.235   8.186  1.00142.91    -0.171 OA
HETATM    2  C2  MIQ B 502      -4.976  18.486   7.432  1.00141.17     0.195 A 
HETATM    3  C3  MIQ B 502      -3.683  17.793   7.967  1.00141.71     0.035 A 
HETATM    4  C4  MIQ B 502      -3.053  17.704   9.306  1.00142.86     0.046 A 
HETATM    5  C5  MIQ B 502      -1.846  16.982   9.484  1.00139.53     0.031 A 
HETATM    6  C12 MIQ B 502      -1.223  16.324   8.345  1.00139.38     0.030 A 
HETATM    7  C13 MIQ B 502      -1.827  16.408   7.061  1.00141.18     0.019 A 
HETATM    8  C14 MIQ B 502      -3.095  17.166   6.881  1.00138.77     0.033 A 
HETATM    9  C15 MIQ B 502      -4.030  17.470   5.665  1.00142.10     0.195 A 
HETATM   10  N17 MIQ B 502      -5.021  18.206   6.141  1.00139.42    -0.288 N 
HETATM   11  O16 MIQ B 502      -3.849  17.050   4.346  1.00148.93    -0.171 OA
ENDROOT
BRANCH  10  12
HETATM   12  C18 MIQ B 502      -6.083  18.693   5.281  1.00139.82     0.187 C 
HETATM   13  C19 MIQ B 502      -6.580  17.514   4.437  1.00140.06     0.247 C 
HETATM   14  O25 MIQ B 502      -6.875  16.505   4.973  1.00143.95    -0.271 OA
HETATM   15  N20 MIQ B 502      -6.702  17.604   2.996  1.00140.02    -0.296 N 
HETATM   16  H13 MIQ B 502      -7.022  16.825   2.455  1.00142.77     0.171 HD
HETATM   17  C21 MIQ B 502      -6.326  18.842   2.363  1.00142.22     0.224 C 
HETATM   18  C22 MIQ B 502      -5.185  19.613   3.000  1.00139.52     0.106 C 
HETATM   19  O24 MIQ B 502      -6.883  19.238   1.399  1.00146.13    -0.273 OA
HETATM   20  C23 MIQ B 502      -5.589  19.869   4.440  1.00139.15     0.045 C 
ENDBRANCH  10  12
BRANCH   5  21
HETATM   21  N6  MIQ B 502      -1.233  16.916  10.798  1.00140.95    -0.377 N 
HETATM   22  C7  MIQ B 502      -1.312  15.669  11.540  1.00142.12     0.149 C 
HETATM   23  C8  MIQ B 502      -1.239  15.896  13.044  1.00144.10     0.187 C 
HETATM   24  O9  MIQ B 502      -0.195  16.746  13.415  1.00148.65    -0.388 OA
HETATM   25  C10 MIQ B 502       0.514  17.461  12.447  1.00147.44     0.187 C 
HETATM   26  C11 MIQ B 502      -0.211  17.878  11.171  1.00144.08     0.149 C 
ENDBRANCH   5  21
TORSDOF 2
ENDMDL
MODEL 4
REMARK VINA RESULT:      -7.4      2.182      2.613
REMARK  2 active torsions:
REMARK  status: ('A' for Active; 'I' for Inactive)
REMARK    1  A    between atoms: C5_5  and  N6_21 
REMARK    2  A    between atoms: C18_14  and  N17_19 
ROOT
HETATM    1  O1  MIQ B 502      -7.749  17.069  -3.821  1.00142.91    -0.171 OA
HETATM    2  C2  MIQ B 502      -8.049  18.404  -3.540  1.00141.17     0.195 A 
HETATM    3  C3  MIQ B 502      -7.931  19.102  -2.147  1.00141.71     0.035 A 
HETATM    4  C4  MIQ B 502      -7.505  18.635  -0.806  1.00142.86     0.046 A 
HETATM    5  C5  MIQ B 502      -7.504  19.527   0.296  1.00139.53     0.031 A 
HETATM    6  C12 MIQ B 502      -7.922  20.909   0.108  1.00139.38     0.030 A 
HETATM    7  C13 MIQ B 502      -8.330  21.357  -1.178  1.00141.18     0.019 A 
HETATM    8  C14 MIQ B 502      -8.327  20.416  -2.332  1.00138.77     0.033 A 
HETATM    9  C15 MIQ B 502      -8.692  20.536  -3.847  1.00142.10     0.195 A 
HETATM   10  N17 MIQ B 502      -8.480  19.338  -4.369  1.00139.42    -0.288 N 
HETATM   11  O16 MIQ B 502      -9.150  21.676  -4.510  1.00148.93    -0.171 OA
ENDROOT
BRANCH  10  12
HETATM   12  C18 MIQ B 502      -8.732  19.069  -5.773  1.00139.82     0.187 C 
HETATM   13  C19 MIQ B 502      -9.761  17.935  -5.854  1.00140.06     0.247 C 
HETATM   14  O25 MIQ B 502     -10.762  18.020  -5.236  1.00143.95    -0.271 OA
HETATM   15  N20 MIQ B 502      -9.541  16.762  -6.675  1.00140.02    -0.296 N 
HETATM   16  H13 MIQ B 502     -10.218  16.025  -6.714  1.00142.77     0.171 HD
HETATM   17  C21 MIQ B 502      -8.306  16.676  -7.412  1.00142.22     0.224 C 
HETATM   18  C22 MIQ B 502      -7.082  17.293  -6.764  1.00139.52     0.106 C 
HETATM   19  O24 MIQ B 502      -8.254  16.154  -8.471  1.00146.13    -0.273 OA
HETATM   20  C23 MIQ B 502      -7.424  18.747  -6.494  1.00139.15     0.045 C 
ENDBRANCH  10  12
BRANCH   5  21
HETATM   21  N6  MIQ B 502      -7.098  19.053   1.607  1.00140.95    -0.377 N 
HETATM   22  C7  MIQ B 502      -6.312  19.935   2.452  1.00142.12     0.149 C 
HETATM   23  C8  MIQ B 502      -5.444  19.157   3.433  1.00144.10     0.187 C 
HETATM   24  O9  MIQ B 502      -6.148  18.156   4.106  1.00148.65    -0.388 OA
HETATM   25  C10 MIQ B 502      -7.439  17.806   3.704  1.00147.44     0.187 C 
HETATM   26  C11 MIQ B 502      -7.809  17.950   2.231  1.00144.08     0.149 C 
ENDBRANCH   5  21
TORSDOF 2
ENDMDL
MODEL 5
REMARK VINA RESULT:      -7.3      2.494      8.247
REMARK  2 active torsions:
REMARK  status: ('A' for Active; 'I' for Inactive)
REMARK    1  A    between atoms: C5_5  and  N6_21 
REMARK    2  A    between atoms: C18_14  and  N17_19 
ROOT
HETATM    1  O1  MIQ B 502      -5.929  17.613   1.536  1.00142.91    -0.171 OA
HETATM    2  C2  MIQ B 502      -6.777  18.679   1.229  1.00141.17     0.195 A 
HETATM    3  C3  MIQ B 502      -7.391  18.995  -0.172  1.00141.71     0.035 A 
HETATM    4  C4  MIQ B 502      -7.295  18.340  -1.498  1.00142.86     0.046 A 
HETATM    5  C5  MIQ B 502      -7.987  18.875  -2.614  1.00139.53     0.031 A 
HETATM    6  C12 MIQ B 502      -8.798  20.074  -2.454  1.00139.38     0.030 A 
HETATM    7  C13 MIQ B 502      -8.892  20.701  -1.183  1.00141.18     0.019 A 
HETATM    8  C14 MIQ B 502      -8.164  20.134  -0.015  1.00138.77     0.033 A 
HETATM    9  C15 MIQ B 502      -8.030  20.527   1.493  1.00142.10     0.195 A 
HETATM   10  N17 MIQ B 502      -7.233  19.621   2.036  1.00139.42    -0.288 N 
HETATM   11  O16 MIQ B 502      -8.629  21.615   2.130  1.00148.93    -0.171 OA
ENDROOT
BRANCH  10  12
HETATM   12  C18 MIQ B 502      -6.868  19.679   3.439  1.00139.82     0.187 C 
HETATM   13  C19 MIQ B 502      -5.336  19.662   3.525  1.00140.06     0.247 C 
HETATM   14  O25 MIQ B 502      -4.715  20.427   2.876  1.00143.95    -0.271 OA
HETATM   15  N20 MIQ B 502      -4.629  18.736   4.386  1.00140.02    -0.296 N 
HETATM   16  H13 MIQ B 502      -3.629  18.731   4.427  1.00142.77     0.171 HD
HETATM   17  C21 MIQ B 502      -5.410  17.805   5.160  1.00142.22     0.224 C 
HETATM   18  C22 MIQ B 502      -6.695  17.304   4.530  1.00139.52     0.106 C 
HETATM   19  O24 MIQ B 502      -5.066  17.455   6.235  1.00146.13    -0.273 OA
HETATM   20  C23 MIQ B 502      -7.525  18.533   4.207  1.00139.15     0.045 C 
ENDBRANCH  10  12
BRANCH   5  21
HETATM   21  N6  MIQ B 502      -7.872  18.232  -3.910  1.00140.95    -0.377 N 
HETATM   22  C7  MIQ B 502      -6.710  17.399  -4.171  1.00142.12     0.149 C 
HETATM   23  C8  MIQ B 502      -6.381  17.333  -5.657  1.00144.10     0.187 C 
HETATM   24  O9  MIQ B 502      -7.498  17.064  -6.450  1.00148.65    -0.388 OA
HETATM   25  C10 MIQ B 502      -8.782  17.100  -5.899  1.00147.44     0.187 C 
HETATM   26  C11 MIQ B 502      -9.051  18.051  -4.738  1.00144.08     0.149 C 
ENDBRANCH   5  21
TORSDOF 2
ENDMDL
MODEL 6
REMARK VINA RESULT:      -7.3      8.069     12.141
REMARK  2 active torsions:
REMARK  status: ('A' for Active; 'I' for Inactive)
REMARK    1  A    between atoms: C5_5  and  N6_21 
REMARK    2  A    between atoms: C18_14  and  N17_19 
ROOT
HETATM    1  O1  MIQ B 502      -3.582  17.349   5.963  1.00142.91    -0.171 OA
HETATM    2  C2  MIQ B 502      -4.406  17.906   6.944  1.00141.17     0.195 A 
HETATM    3  C3  MIQ B 502      -4.053  18.076   8.456  1.00141.71     0.035 A 
HETATM    4  C4  MIQ B 502      -2.858  17.743   9.267  1.00142.86     0.046 A 
HETATM    5  C5  MIQ B 502      -2.834  18.027  10.656  1.00139.53     0.031 A 
HETATM    6  C12 MIQ B 502      -3.989  18.649  11.287  1.00139.38     0.030 A 
HETATM    7  C13 MIQ B 502      -5.134  18.969  10.510  1.00141.18     0.019 A 
HETATM    8  C14 MIQ B 502      -5.153  18.671   9.051  1.00138.77     0.033 A 
HETATM    9  C15 MIQ B 502      -6.194  18.872   7.902  1.00142.10     0.195 A 
HETATM   10  N17 MIQ B 502      -5.624  18.400   6.806  1.00139.42    -0.288 N 
HETATM   11  O16 MIQ B 502      -7.467  19.434   8.016  1.00148.93    -0.171 OA
ENDROOT
BRANCH  10  12
HETATM   12  C18 MIQ B 502      -6.314  18.408   5.530  1.00139.82     0.187 C 
HETATM   13  C19 MIQ B 502      -6.230  16.993   4.944  1.00140.06     0.247 C 
HETATM   14  O25 MIQ B 502      -6.549  16.074   5.611  1.00143.95    -0.271 OA
HETATM   15  N20 MIQ B 502      -5.776  16.753   3.589  1.00140.02    -0.296 N 
HETATM   16  H13 MIQ B 502      -5.719  15.824   3.221  1.00142.77     0.171 HD
HETATM   17  C21 MIQ B 502      -5.383  17.891   2.798  1.00142.22     0.224 C 
HETATM   18  C22 MIQ B 502      -4.736  19.045   3.539  1.00139.52     0.106 C 
HETATM   19  O24 MIQ B 502      -5.561  17.922   1.631  1.00146.13    -0.273 OA
HETATM   20  C23 MIQ B 502      -5.721  19.475   4.611  1.00139.15     0.045 C 
ENDBRANCH  10  12
BRANCH   5  21
HETATM   21  N6  MIQ B 502      -1.662  17.683  11.442  1.00140.95    -0.377 N 
HETATM   22  C7  MIQ B 502      -1.504  16.309  11.886  1.00142.12     0.149 C 
HETATM   23  C8  MIQ B 502      -0.671  16.215  13.158  1.00144.10     0.187 C 
HETATM   24  O9  MIQ B 502       0.508  16.961  13.092  1.00148.65    -0.388 OA
HETATM   25  C10 MIQ B 502       0.720  17.857  12.041  1.00147.44     0.187 C 
HETATM   26  C11 MIQ B 502      -0.488  18.537  11.407  1.00144.08     0.149 C 
ENDBRANCH   5  21
TORSDOF 2
ENDMDL
MODEL 7
REMARK VINA RESULT:      -7.2      9.014     13.086
REMARK  2 active torsions:
REMARK  status: ('A' for Active; 'I' for Inactive)
REMARK    1  A    between atoms: C5_5  and  N6_21 
REMARK    2  A    between atoms: C18_14  and  N17_19 
ROOT
HETATM    1  O1  MIQ B 502      -2.687  18.184   6.481  1.00142.91    -0.171 OA
HETATM    2  C2  MIQ B 502      -3.450  17.566   7.474  1.00141.17     0.195 A 
HETATM    3  C3  MIQ B 502      -3.067  17.434   8.982  1.00141.71     0.035 A 
HETATM    4  C4  MIQ B 502      -1.897  17.874   9.779  1.00142.86     0.046 A 
HETATM    5  C5  MIQ B 502      -1.834  17.602  11.169  1.00139.53     0.031 A 
HETATM    6  C12 MIQ B 502      -2.925  16.886  11.816  1.00139.38     0.030 A 
HETATM    7  C13 MIQ B 502      -4.047  16.465  11.053  1.00141.18     0.019 A 
HETATM    8  C14 MIQ B 502      -4.109  16.756   9.594  1.00138.77     0.033 A 
HETATM    9  C15 MIQ B 502      -5.144  16.466   8.459  1.00142.10     0.195 A 
HETATM   10  N17 MIQ B 502      -4.629  16.980   7.355  1.00139.42    -0.288 N 
HETATM   11  O16 MIQ B 502      -6.362  15.797   8.590  1.00148.93    -0.171 OA
ENDROOT
BRANCH  10  12
HETATM   12  C18 MIQ B 502      -5.318  16.884   6.081  1.00139.82     0.187 C 
HETATM   13  C19 MIQ B 502      -4.317  16.354   5.047  1.00140.06     0.247 C 
HETATM   14  O25 MIQ B 502      -3.701  15.378   5.289  1.00143.95    -0.271 OA
HETATM   15  N20 MIQ B 502      -4.110  17.017   3.775  1.00140.02    -0.296 N 
HETATM   16  H13 MIQ B 502      -3.449  16.664   3.111  1.00142.77     0.171 HD
HETATM   17  C21 MIQ B 502      -4.866  18.213   3.507  1.00142.22     0.224 C 
HETATM   18  C22 MIQ B 502      -5.179  19.102   4.695  1.00139.52     0.106 C 
HETATM   19  O24 MIQ B 502      -5.228  18.483   2.415  1.00146.13    -0.273 OA
HETATM   20  C23 MIQ B 502      -5.919  18.236   5.699  1.00139.15     0.045 C 
ENDBRANCH  10  12
BRANCH   5  21
HETATM   21  N6  MIQ B 502      -0.676  18.026  11.935  1.00140.95    -0.377 N 
HETATM   22  C7  MIQ B 502      -0.891  18.724  13.191  1.00142.12     0.149 C 
HETATM   23  C8  MIQ B 502       0.276  19.639  13.540  1.00144.10     0.187 C 
HETATM   24  O9  MIQ B 502       1.517  19.010  13.411  1.00148.65    -0.388 OA
HETATM   25  C10 MIQ B 502       1.616  17.759  12.798  1.00147.44     0.187 C 
HETATM   26  C11 MIQ B 502       0.615  17.401  11.704  1.00144.08     0.149 C 
ENDBRANCH   5  21
TORSDOF 2
ENDMDL
MODEL 8
REMARK VINA RESULT:      -7.2      1.541      2.664
REMARK  2 active torsions:
REMARK  status: ('A' for Active; 'I' for Inactive)
REMARK    1  A    between atoms: C5_5  and  N6_21 
REMARK    2  A    between atoms: C18_14  and  N17_19 
ROOT
HETATM    1  O1  MIQ B 502      -7.238  21.711  -5.084  1.00142.91    -0.171 OA
HETATM    2  C2  MIQ B 502      -7.096  20.534  -4.345  1.00141.17     0.195 A 
HETATM    3  C3  MIQ B 502      -7.585  20.300  -2.880  1.00141.71     0.035 A 
HETATM    4  C4  MIQ B 502      -8.290  21.152  -1.893  1.00142.86     0.046 A 
HETATM    5  C5  MIQ B 502      -8.609  20.646  -0.608  1.00139.53     0.031 A 
HETATM    6  C12 MIQ B 502      -8.244  19.280  -0.258  1.00139.38     0.030 A 
HETATM    7  C13 MIQ B 502      -7.569  18.463  -1.205  1.00141.18     0.019 A 
HETATM    8  C14 MIQ B 502      -7.238  19.000  -2.553  1.00138.77     0.033 A 
HETATM    9  C15 MIQ B 502      -6.530  18.423  -3.822  1.00142.10     0.195 A 
HETATM   10  N17 MIQ B 502      -6.537  19.396  -4.718  1.00139.42    -0.288 N 
HETATM   11  O16 MIQ B 502      -5.998  17.141  -3.972  1.00148.93    -0.171 OA
ENDROOT
BRANCH  10  12
HETATM   12  C18 MIQ B 502      -5.942  19.222  -6.030  1.00139.82     0.187 C 
HETATM   13  C19 MIQ B 502      -6.572  17.978  -6.668  1.00140.06     0.247 C 
HETATM   14  O25 MIQ B 502      -7.747  17.880  -6.701  1.00143.95    -0.271 OA
HETATM   15  N20 MIQ B 502      -5.764  16.919  -7.238  1.00140.02    -0.296 N 
HETATM   16  H13 MIQ B 502      -6.187  16.109  -7.646  1.00142.77     0.171 HD
HETATM   17  C21 MIQ B 502      -4.331  17.056  -7.176  1.00142.22     0.224 C 
HETATM   18  C22 MIQ B 502      -3.767  17.765  -5.960  1.00139.52     0.106 C 
HETATM   19  O24 MIQ B 502      -3.633  16.641  -8.034  1.00146.13    -0.273 OA
HETATM   20  C23 MIQ B 502      -4.421  19.134  -5.916  1.00139.15     0.045 C 
ENDBRANCH  10  12
BRANCH   5  21
HETATM   21  N6  MIQ B 502      -9.286  21.496   0.354  1.00140.95    -0.377 N 
HETATM   22  C7  MIQ B 502      -8.721  21.624   1.687  1.00142.12     0.149 C 
HETATM   23  C8  MIQ B 502      -9.782  21.964   2.725  1.00144.10     0.187 C 
HETATM   24  O9  MIQ B 502     -10.615  23.011   2.327  1.00148.65    -0.388 OA
HETATM   25  C10 MIQ B 502     -10.575  23.488   1.014  1.00147.44     0.187 C 
HETATM   26  C11 MIQ B 502     -10.211  22.517  -0.104  1.00144.08     0.149 C 
ENDBRANCH   5  21
TORSDOF 2
ENDMDL
MODEL 9
REMARK VINA RESULT:      -7.1      4.559      9.800
REMARK  2 active torsions:
REMARK  status: ('A' for Active; 'I' for Inactive)
REMARK    1  A    between atoms: C5_5  and  N6_21 
REMARK    2  A    between atoms: C18_14  and  N17_19 
ROOT
HETATM    1  O1  MIQ B 502      -3.578  17.001   2.428  1.00142.91    -0.171 OA
HETATM    2  C2  MIQ B 502      -4.690  17.271   3.229  1.00141.17     0.195 A 
HETATM    3  C3  MIQ B 502      -6.020  17.944   2.763  1.00141.71     0.035 A 
HETATM    4  C4  MIQ B 502      -6.498  18.462   1.459  1.00142.86     0.046 A 
HETATM    5  C5  MIQ B 502      -7.791  19.032   1.344  1.00139.53     0.031 A 
HETATM    6  C12 MIQ B 502      -8.654  19.108   2.515  1.00139.38     0.030 A 
HETATM    7  C13 MIQ B 502      -8.196  18.611   3.765  1.00141.18     0.019 A 
HETATM    8  C14 MIQ B 502      -6.839  18.011   3.879  1.00138.77     0.033 A 
HETATM    9  C15 MIQ B 502      -6.012  17.375   5.044  1.00142.10     0.195 A 
HETATM   10  N17 MIQ B 502      -4.853  17.017   4.516  1.00139.42    -0.288 N 
HETATM   11  O16 MIQ B 502      -6.419  17.222   6.370  1.00148.93    -0.171 OA
ENDROOT
BRANCH  10  12
HETATM   12  C18 MIQ B 502      -3.814  16.399   5.319  1.00139.82     0.187 C 
HETATM   13  C19 MIQ B 502      -4.450  15.237   6.092  1.00140.06     0.247 C 
HETATM   14  O25 MIQ B 502      -5.089  14.437   5.507  1.00143.95    -0.271 OA
HETATM   15  N20 MIQ B 502      -4.283  15.091   7.524  1.00140.02    -0.296 N 
HETATM   16  H13 MIQ B 502      -4.708  14.331   8.018  1.00142.77     0.171 HD
HETATM   17  C21 MIQ B 502      -3.507  16.086   8.218  1.00142.22     0.224 C 
HETATM   18  C22 MIQ B 502      -3.581  17.503   7.682  1.00139.52     0.106 C 
HETATM   19  O24 MIQ B 502      -2.842  15.809   9.155  1.00146.13    -0.273 OA
HETATM   20  C23 MIQ B 502      -3.156  17.436   6.226  1.00139.15     0.045 C 
ENDBRANCH  10  12
BRANCH   5  21
HETATM   21  N6  MIQ B 502      -8.240  19.549   0.064  1.00140.95    -0.377 N 
HETATM   22  C7  MIQ B 502      -8.632  20.945  -0.022  1.00142.12     0.149 C 
HETATM   23  C8  MIQ B 502      -9.639  21.185  -1.140  1.00144.10     0.187 C 
HETATM   24  O9  MIQ B 502      -9.261  20.595  -2.347  1.00148.65    -0.388 OA
HETATM   25  C10 MIQ B 502      -8.189  19.701  -2.393  1.00147.44     0.187 C 
HETATM   26  C11 MIQ B 502      -7.894  18.851  -1.162  1.00144.08     0.149 C 
ENDBRANCH   5  21
TORSDOF 2
ENDMDL
