MODEL 1
REMARK VINA RESULT:      -7.3      0.000      0.000
REMARK  2 active torsions:
REMARK  status: ('A' for Active; 'I' for Inactive)
REMARK    1  A    between atoms: C5_5  and  N6_21 
REMARK    2  A    between atoms: C18_14  and  N17_19 
ROOT
HETATM    1  O1  MIQ B 502      16.775   3.242   3.511  1.00142.91    -0.171 OA
HETATM    2  C2  MIQ B 502      17.516   3.463   4.675  1.00141.17     0.195 A 
HETATM    3  C3  MIQ B 502      19.072   3.409   4.801  1.00141.71     0.035 A 
HETATM    4  C4  MIQ B 502      20.164   3.138   3.837  1.00142.86     0.046 A 
HETATM    5  C5  MIQ B 502      21.516   3.162   4.260  1.00139.53     0.031 A 
HETATM    6  C12 MIQ B 502      21.833   3.454   5.651  1.00139.38     0.030 A 
HETATM    7  C13 MIQ B 502      20.786   3.715   6.576  1.00141.18     0.019 A 
HETATM    8  C14 MIQ B 502      19.368   3.691   6.125  1.00138.77     0.033 A 
HETATM    9  C15 MIQ B 502      17.988   3.923   6.823  1.00142.10     0.195 A 
HETATM   10  N17 MIQ B 502      17.072   3.762   5.883  1.00139.42    -0.288 N 
HETATM   11  O16 MIQ B 502      17.774   4.232   8.167  1.00148.93    -0.171 OA
ENDROOT
BRANCH  10  12
HETATM   12  C18 MIQ B 502      15.656   3.889   6.176  1.00139.82     0.187 C 
HETATM   13  C19 MIQ B 502      15.028   2.494   6.061  1.00140.06     0.247 C 
HETATM   14  O25 MIQ B 502      15.519   1.592   6.640  1.00143.95    -0.271 OA
HETATM   15  N20 MIQ B 502      13.843   2.254   5.263  1.00140.02    -0.296 N 
HETATM   16  H13 MIQ B 502      13.447   1.338   5.190  1.00142.77     0.171 HD
HETATM   17  C21 MIQ B 502      13.269   3.370   4.556  1.00142.22     0.224 C 
HETATM   18  C22 MIQ B 502      14.233   4.422   4.044  1.00139.52     0.106 C 
HETATM   19  O24 MIQ B 502      12.102   3.461   4.390  1.00146.13    -0.273 OA
HETATM   20  C23 MIQ B 502      15.011   4.917   5.249  1.00139.15     0.045 C 
ENDBRANCH  10  12
BRANCH   5  21
HETATM   21  N6  MIQ B 502      22.575   2.880   3.308  1.00140.95    -0.377 N 
HETATM   22  C7  MIQ B 502      23.161   3.988   2.573  1.00142.12     0.149 C 
HETATM   23  C8  MIQ B 502      23.733   3.542   1.233  1.00144.10     0.187 C 
HETATM   24  O9  MIQ B 502      24.535   2.404   1.336  1.00148.65    -0.388 OA
HETATM   25  C10 MIQ B 502      24.572   1.670   2.525  1.00147.44     0.187 C 
HETATM   26  C11 MIQ B 502      23.326   1.641   3.404  1.00144.08     0.149 C 
ENDBRANCH   5  21
TORSDOF 2
ENDMDL
MODEL 2
REMARK VINA RESULT:      -6.8      2.355      8.830
REMARK  2 active torsions:
REMARK  status: ('A' for Active; 'I' for Inactive)
REMARK    1  A    between atoms: C5_5  and  N6_21 
REMARK    2  A    between atoms: C18_14  and  N17_19 
ROOT
HETATM    1  O1  MIQ B 502      23.459   4.148   2.687  1.00142.91    -0.171 OA
HETATM    2  C2  MIQ B 502      23.164   2.859   3.137  1.00141.17     0.195 A 
HETATM    3  C3  MIQ B 502      21.763   2.339   3.591  1.00141.71     0.035 A 
HETATM    4  C4  MIQ B 502      20.423   2.967   3.684  1.00142.86     0.046 A 
HETATM    5  C5  MIQ B 502      19.311   2.218   4.144  1.00139.53     0.031 A 
HETATM    6  C12 MIQ B 502      19.487   0.824   4.527  1.00139.38     0.030 A 
HETATM    7  C13 MIQ B 502      20.770   0.222   4.437  1.00141.18     0.019 A 
HETATM    8  C14 MIQ B 502      21.934   1.012   3.951  1.00138.77     0.033 A 
HETATM    9  C15 MIQ B 502      23.450   0.707   3.718  1.00142.10     0.195 A 
HETATM   10  N17 MIQ B 502      23.983   1.830   3.266  1.00139.42    -0.288 N 
HETATM   11  O16 MIQ B 502      24.103  -0.506   3.946  1.00148.93    -0.171 OA
ENDROOT
BRANCH  10  12
HETATM   12  C18 MIQ B 502      25.397   1.924   2.952  1.00139.82     0.187 C 
HETATM   13  C19 MIQ B 502      25.972   3.108   3.738  1.00140.06     0.247 C 
HETATM   14  O25 MIQ B 502      25.773   3.181   4.899  1.00143.95    -0.271 OA
HETATM   15  N20 MIQ B 502      26.761   4.140   3.096  1.00140.02    -0.296 N 
HETATM   16  H13 MIQ B 502      27.125   4.912   3.619  1.00142.77     0.171 HD
HETATM   17  C21 MIQ B 502      26.981   4.036   1.677  1.00142.22     0.224 C 
HETATM   18  C22 MIQ B 502      25.861   3.424   0.857  1.00139.52     0.106 C 
HETATM   19  O24 MIQ B 502      27.988   4.404   1.179  1.00146.13    -0.273 OA
HETATM   20  C23 MIQ B 502      25.599   2.049   1.443  1.00139.15     0.045 C 
ENDBRANCH  10  12
BRANCH   5  21
HETATM   21  N6  MIQ B 502      18.008   2.850   4.244  1.00140.95    -0.377 N 
HETATM   22  C7  MIQ B 502      17.575   3.348   5.539  1.00142.12     0.149 C 
HETATM   23  C8  MIQ B 502      16.057   3.374   5.659  1.00144.10     0.187 C 
HETATM   24  O9  MIQ B 502      15.434   3.960   4.556  1.00148.65    -0.388 OA
HETATM   25  C10 MIQ B 502      16.167   4.253   3.402  1.00147.44     0.187 C 
HETATM   26  C11 MIQ B 502      17.361   3.370   3.053  1.00144.08     0.149 C 
ENDBRANCH   5  21
TORSDOF 2
ENDMDL
MODEL 3
REMARK VINA RESULT:      -6.8      2.099      8.277
REMARK  2 active torsions:
REMARK  status: ('A' for Active; 'I' for Inactive)
REMARK    1  A    between atoms: C5_5  and  N6_21 
REMARK    2  A    between atoms: C18_14  and  N17_19 
ROOT
HETATM    1  O1  MIQ B 502      20.669   1.080   1.581  1.00142.91    -0.171 OA
HETATM    2  C2  MIQ B 502      20.942   1.837   2.723  1.00141.17     0.195 A 
HETATM    3  C3  MIQ B 502      19.899   2.616   3.585  1.00141.71     0.035 A 
HETATM    4  C4  MIQ B 502      18.430   2.792   3.493  1.00142.86     0.046 A 
HETATM    5  C5  MIQ B 502      17.741   3.579   4.451  1.00139.53     0.031 A 
HETATM    6  C12 MIQ B 502      18.482   4.215   5.531  1.00139.38     0.030 A 
HETATM    7  C13 MIQ B 502      19.890   4.045   5.619  1.00141.18     0.019 A 
HETATM    8  C14 MIQ B 502      20.607   3.217   4.612  1.00138.77     0.033 A 
HETATM    9  C15 MIQ B 502      22.100   2.808   4.387  1.00142.10     0.195 A 
HETATM   10  N17 MIQ B 502      22.110   2.045   3.306  1.00139.42    -0.288 N 
HETATM   11  O16 MIQ B 502      23.195   3.177   5.170  1.00148.93    -0.171 OA
ENDROOT
BRANCH  10  12
HETATM   12  C18 MIQ B 502      23.344   1.490   2.783  1.00139.82     0.187 C 
HETATM   13  C19 MIQ B 502      24.044   0.745   3.927  1.00140.06     0.247 C 
HETATM   14  O25 MIQ B 502      23.436  -0.047   4.555  1.00143.95    -0.271 OA
HETATM   15  N20 MIQ B 502      25.434   0.982   4.255  1.00140.02    -0.296 N 
HETATM   16  H13 MIQ B 502      25.877   0.494   5.009  1.00142.77     0.171 HD
HETATM   17  C21 MIQ B 502      26.153   1.961   3.481  1.00142.22     0.224 C 
HETATM   18  C22 MIQ B 502      25.357   3.152   2.983  1.00139.52     0.106 C 
HETATM   19  O24 MIQ B 502      27.304   1.837   3.243  1.00146.13    -0.273 OA
HETATM   20  C23 MIQ B 502      24.205   2.592   2.169  1.00139.15     0.045 C 
ENDBRANCH  10  12
BRANCH   5  21
HETATM   21  N6  MIQ B 502      16.305   3.755   4.341  1.00140.95    -0.377 N 
HETATM   22  C7  MIQ B 502      15.504   3.709   5.552  1.00142.12     0.149 C 
HETATM   23  C8  MIQ B 502      14.074   3.265   5.272  1.00144.10     0.187 C 
HETATM   24  O9  MIQ B 502      13.494   3.944   4.199  1.00148.65    -0.388 OA
HETATM   25  C10 MIQ B 502      14.274   4.756   3.371  1.00147.44     0.187 C 
HETATM   26  C11 MIQ B 502      15.740   4.392   3.164  1.00144.08     0.149 C 
ENDBRANCH   5  21
TORSDOF 2
ENDMDL
MODEL 4
REMARK VINA RESULT:      -6.7     14.918     16.592
REMARK  2 active torsions:
REMARK  status: ('A' for Active; 'I' for Inactive)
REMARK    1  A    between atoms: C5_5  and  N6_21 
REMARK    2  A    between atoms: C18_14  and  N17_19 
ROOT
HETATM    1  O1  MIQ B 502      20.994   6.376  -9.352  1.00142.91    -0.171 OA
HETATM    2  C2  MIQ B 502      21.596   6.774 -10.548  1.00141.17     0.195 A 
HETATM    3  C3  MIQ B 502      23.063   6.467 -10.988  1.00141.71     0.035 A 
HETATM    4  C4  MIQ B 502      24.184   5.731 -10.357  1.00142.86     0.046 A 
HETATM    5  C5  MIQ B 502      25.432   5.618 -11.021  1.00139.53     0.031 A 
HETATM    6  C12 MIQ B 502      25.612   6.230 -12.330  1.00139.38     0.030 A 
HETATM    7  C13 MIQ B 502      24.537   6.935 -12.936  1.00141.18     0.019 A 
HETATM    8  C14 MIQ B 502      23.229   7.048 -12.235  1.00138.77     0.033 A 
HETATM    9  C15 MIQ B 502      21.857   7.718 -12.571  1.00142.10     0.195 A 
HETATM   10  N17 MIQ B 502      21.067   7.471 -11.539  1.00139.42    -0.288 N 
HETATM   11  O16 MIQ B 502      21.536   8.433 -13.727  1.00148.93    -0.171 OA
ENDROOT
BRANCH  10  12
HETATM   12  C18 MIQ B 502      19.702   7.961 -11.495  1.00139.82     0.187 C 
HETATM   13  C19 MIQ B 502      19.519   8.717 -10.173  1.00140.06     0.247 C 
HETATM   14  O25 MIQ B 502      20.296   9.552  -9.874  1.00143.95    -0.271 OA
HETATM   15  N20 MIQ B 502      18.412   8.438  -9.281  1.00140.02    -0.296 N 
HETATM   16  H13 MIQ B 502      18.307   8.933  -8.418  1.00142.77     0.171 HD
HETATM   17  C21 MIQ B 502      17.482   7.406  -9.663  1.00142.22     0.224 C 
HETATM   18  C22 MIQ B 502      18.048   6.230 -10.435  1.00139.52     0.106 C 
HETATM   19  O24 MIQ B 502      16.334   7.478  -9.390  1.00146.13    -0.273 OA
HETATM   20  C23 MIQ B 502      18.717   6.807 -11.669  1.00139.15     0.045 C 
ENDBRANCH  10  12
BRANCH   5  21
HETATM   21  N6  MIQ B 502      26.525   4.907 -10.384  1.00140.95    -0.377 N 
HETATM   22  C7  MIQ B 502      26.256   3.608  -9.790  1.00142.12     0.149 C 
HETATM   23  C8  MIQ B 502      27.225   3.289  -8.659  1.00144.10     0.187 C 
HETATM   24  O9  MIQ B 502      28.558   3.524  -9.003  1.00148.65    -0.388 OA
HETATM   25  C10 MIQ B 502      28.876   4.200 -10.183  1.00147.44     0.187 C 
HETATM   26  C11 MIQ B 502      27.899   5.245 -10.711  1.00144.08     0.149 C 
ENDBRANCH   5  21
TORSDOF 2
ENDMDL
MODEL 5
REMARK VINA RESULT:      -6.6      1.754      2.904
REMARK  2 active torsions:
REMARK  status: ('A' for Active; 'I' for Inactive)
REMARK    1  A    between atoms: C5_5  and  N6_21 
REMARK    2  A    between atoms: C18_14  and  N17_19 
ROOT
HETATM    1  O1  MIQ B 502      19.976   4.482   6.496  1.00142.91    -0.171 OA
HETATM    2  C2  MIQ B 502      19.715   3.814   5.298  1.00141.17     0.195 A 
HETATM    3  C3  MIQ B 502      20.768   3.101   4.391  1.00141.71     0.035 A 
HETATM    4  C4  MIQ B 502      22.235   2.912   4.487  1.00142.86     0.046 A 
HETATM    5  C5  MIQ B 502      22.934   2.198   3.481  1.00139.53     0.031 A 
HETATM    6  C12 MIQ B 502      22.205   1.647   2.348  1.00139.38     0.030 A 
HETATM    7  C13 MIQ B 502      20.798   1.827   2.256  1.00141.18     0.019 A 
HETATM    8  C14 MIQ B 502      20.070   2.575   3.316  1.00138.77     0.033 A 
HETATM    9  C15 MIQ B 502      18.575   2.963   3.557  1.00142.10     0.195 A 
HETATM   10  N17 MIQ B 502      18.552   3.641   4.693  1.00139.42    -0.288 N 
HETATM   11  O16 MIQ B 502      17.488   2.657   2.736  1.00148.93    -0.171 OA
ENDROOT
BRANCH  10  12
HETATM   12  C18 MIQ B 502      17.316   4.180   5.229  1.00139.82     0.187 C 
HETATM   13  C19 MIQ B 502      16.374   3.002   5.508  1.00140.06     0.247 C 
HETATM   14  O25 MIQ B 502      16.767   2.088   6.141  1.00143.95    -0.271 OA
HETATM   15  N20 MIQ B 502      15.010   2.983   5.019  1.00140.02    -0.296 N 
HETATM   16  H13 MIQ B 502      14.408   2.205   5.202  1.00142.77     0.171 HD
HETATM   17  C21 MIQ B 502      14.557   4.105   4.239  1.00142.22     0.224 C 
HETATM   18  C22 MIQ B 502      15.588   4.782   3.356  1.00139.52     0.106 C 
HETATM   19  O24 MIQ B 502      13.438   4.482   4.291  1.00146.13    -0.273 OA
HETATM   20  C23 MIQ B 502      16.724   5.209   4.268  1.00139.15     0.045 C 
ENDBRANCH  10  12
BRANCH   5  21
HETATM   21  N6  MIQ B 502      24.373   2.034   3.581  1.00140.95    -0.377 N 
HETATM   22  C7  MIQ B 502      25.106   1.604   2.403  1.00142.12     0.149 C 
HETATM   23  C8  MIQ B 502      26.392   0.874   2.769  1.00144.10     0.187 C 
HETATM   24  O9  MIQ B 502      27.147   1.551   3.728  1.00148.65    -0.388 OA
HETATM   25  C10 MIQ B 502      26.610   2.648   4.407  1.00147.44     0.187 C 
HETATM   26  C11 MIQ B 502      25.105   2.690   4.650  1.00144.08     0.149 C 
ENDBRANCH   5  21
TORSDOF 2
ENDMDL
MODEL 6
REMARK VINA RESULT:      -6.6      4.134      9.039
REMARK  2 active torsions:
REMARK  status: ('A' for Active; 'I' for Inactive)
REMARK    1  A    between atoms: C5_5  and  N6_21 
REMARK    2  A    between atoms: C18_14  and  N17_19 
ROOT
HETATM    1  O1  MIQ B 502      24.179   2.648   4.129  1.00142.91    -0.171 OA
HETATM    2  C2  MIQ B 502      23.355   2.202   3.094  1.00141.17     0.195 A 
HETATM    3  C3  MIQ B 502      22.008   1.427   3.255  1.00141.71     0.035 A 
HETATM    4  C4  MIQ B 502      21.236   0.960   4.431  1.00142.86     0.046 A 
HETATM    5  C5  MIQ B 502      20.013   0.265   4.255  1.00139.53     0.031 A 
HETATM    6  C12 MIQ B 502      19.513   0.011   2.912  1.00139.38     0.030 A 
HETATM    7  C13 MIQ B 502      20.252   0.460   1.784  1.00141.18     0.019 A 
HETATM    8  C14 MIQ B 502      21.535   1.191   1.975  1.00138.77     0.033 A 
HETATM    9  C15 MIQ B 502      22.593   1.823   1.013  1.00142.10     0.195 A 
HETATM   10  N17 MIQ B 502      23.530   2.341   1.791  1.00139.42    -0.288 N 
HETATM   11  O16 MIQ B 502      22.554   1.832  -0.382  1.00148.93    -0.171 OA
ENDROOT
BRANCH  10  12
HETATM   12  C18 MIQ B 502      24.694   3.005   1.235  1.00139.82     0.187 C 
HETATM   13  C19 MIQ B 502      25.941   2.321   1.808  1.00140.06     0.247 C 
HETATM   14  O25 MIQ B 502      26.033   1.146   1.748  1.00143.95    -0.271 OA
HETATM   15  N20 MIQ B 502      27.014   3.078   2.419  1.00140.02    -0.296 N 
HETATM   16  H13 MIQ B 502      27.820   2.619   2.795  1.00142.77     0.171 HD
HETATM   17  C21 MIQ B 502      26.874   4.509   2.490  1.00142.22     0.224 C 
HETATM   18  C22 MIQ B 502      25.469   5.048   2.678  1.00139.52     0.106 C 
HETATM   19  O24 MIQ B 502      27.809   5.227   2.402  1.00146.13    -0.273 OA
HETATM   20  C23 MIQ B 502      24.642   4.503   1.527  1.00139.15     0.045 C 
ENDBRANCH  10  12
BRANCH   5  21
HETATM   21  N6  MIQ B 502      19.274  -0.200   5.415  1.00140.95    -0.377 N 
HETATM   22  C7  MIQ B 502      19.644  -1.474   6.009  1.00142.12     0.149 C 
HETATM   23  C8  MIQ B 502      18.472  -2.125   6.732  1.00144.10     0.187 C 
HETATM   24  O9  MIQ B 502      17.799  -1.244   7.581  1.00148.65    -0.388 OA
HETATM   25  C10 MIQ B 502      18.075   0.125   7.542  1.00147.44     0.187 C 
HETATM   26  C11 MIQ B 502      18.518   0.743   6.220  1.00144.08     0.149 C 
ENDBRANCH   5  21
TORSDOF 2
ENDMDL
MODEL 7
REMARK VINA RESULT:      -6.5      2.177      8.538
REMARK  2 active torsions:
REMARK  status: ('A' for Active; 'I' for Inactive)
REMARK    1  A    between atoms: C5_5  and  N6_21 
REMARK    2  A    between atoms: C18_14  and  N17_19 
ROOT
HETATM    1  O1  MIQ B 502      22.188   3.786   6.270  1.00142.91    -0.171 OA
HETATM    2  C2  MIQ B 502      21.802   3.128   5.100  1.00141.17     0.195 A 
HETATM    3  C3  MIQ B 502      20.365   3.103   4.488  1.00141.71     0.035 A 
HETATM    4  C4  MIQ B 502      19.073   3.704   4.896  1.00142.86     0.046 A 
HETATM    5  C5  MIQ B 502      17.908   3.499   4.114  1.00139.53     0.031 A 
HETATM    6  C12 MIQ B 502      17.984   2.694   2.903  1.00139.38     0.030 A 
HETATM    7  C13 MIQ B 502      19.222   2.118   2.511  1.00141.18     0.019 A 
HETATM    8  C14 MIQ B 502      20.442   2.339   3.335  1.00138.77     0.033 A 
HETATM    9  C15 MIQ B 502      21.936   1.888   3.230  1.00142.10     0.195 A 
HETATM   10  N17 MIQ B 502      22.549   2.411   4.279  1.00139.42    -0.288 N 
HETATM   11  O16 MIQ B 502      22.501   1.093   2.231  1.00148.93    -0.171 OA
ENDROOT
BRANCH  10  12
HETATM   12  C18 MIQ B 502      23.962   2.185   4.519  1.00139.82     0.187 C 
HETATM   13  C19 MIQ B 502      24.719   2.549   3.236  1.00140.06     0.247 C 
HETATM   14  O25 MIQ B 502      24.521   3.594   2.727  1.00143.95    -0.271 OA
HETATM   15  N20 MIQ B 502      25.678   1.645   2.633  1.00140.02    -0.296 N 
HETATM   16  H13 MIQ B 502      26.160   1.892   1.791  1.00142.77     0.171 HD
HETATM   17  C21 MIQ B 502      25.895   0.371   3.267  1.00142.22     0.224 C 
HETATM   18  C22 MIQ B 502      24.699  -0.263   3.951  1.00139.52     0.106 C 
HETATM   19  O24 MIQ B 502      26.956  -0.151   3.258  1.00146.13    -0.273 OA
HETATM   20  C23 MIQ B 502      24.202   0.745   4.971  1.00139.15     0.045 C 
ENDBRANCH  10  12
BRANCH   5  21
HETATM   21  N6  MIQ B 502      16.646   4.081   4.533  1.00140.95    -0.377 N 
HETATM   22  C7  MIQ B 502      15.664   4.416   3.516  1.00142.12     0.149 C 
HETATM   23  C8  MIQ B 502      14.743   5.543   3.965  1.00144.10     0.187 C 
HETATM   24  O9  MIQ B 502      14.230   5.347   5.249  1.00148.65    -0.388 OA
HETATM   25  C10 MIQ B 502      14.734   4.331   6.065  1.00147.44     0.187 C 
HETATM   26  C11 MIQ B 502      16.195   3.923   5.904  1.00144.08     0.149 C 
ENDBRANCH   5  21
TORSDOF 2
ENDMDL
MODEL 8
REMARK VINA RESULT:      -6.5      3.579      5.804
REMARK  2 active torsions:
REMARK  status: ('A' for Active; 'I' for Inactive)
REMARK    1  A    between atoms: C5_5  and  N6_21 
REMARK    2  A    between atoms: C18_14  and  N17_19 
ROOT
HETATM    1  O1  MIQ B 502      21.803   2.370   5.060  1.00142.91    -0.171 OA
HETATM    2  C2  MIQ B 502      21.919   2.123   3.690  1.00141.17     0.195 A 
HETATM    3  C3  MIQ B 502      23.092   2.582   2.766  1.00141.71     0.035 A 
HETATM    4  C4  MIQ B 502      24.338   3.348   3.006  1.00142.86     0.046 A 
HETATM    5  C5  MIQ B 502      25.232   3.614   1.938  1.00139.53     0.031 A 
HETATM    6  C12 MIQ B 502      24.923   3.132   0.599  1.00139.38     0.030 A 
HETATM    7  C13 MIQ B 502      23.729   2.397   0.370  1.00141.18     0.019 A 
HETATM    8  C14 MIQ B 502      22.795   2.118   1.495  1.00138.77     0.033 A 
HETATM    9  C15 MIQ B 502      21.431   1.366   1.631  1.00142.10     0.195 A 
HETATM   10  N17 MIQ B 502      21.088   1.460   2.905  1.00139.42    -0.288 N 
HETATM   11  O16 MIQ B 502      20.723   0.728   0.610  1.00148.93    -0.171 OA
ENDROOT
BRANCH  10  12
HETATM   12  C18 MIQ B 502      19.853   0.882   3.401  1.00139.82     0.187 C 
HETATM   13  C19 MIQ B 502      19.109   1.970   4.184  1.00140.06     0.247 C 
HETATM   14  O25 MIQ B 502      18.932   3.023   3.681  1.00143.95    -0.271 OA
HETATM   15  N20 MIQ B 502      18.610   1.741   5.525  1.00140.02    -0.296 N 
HETATM   16  H13 MIQ B 502      18.132   2.462   6.028  1.00142.77     0.171 HD
HETATM   17  C21 MIQ B 502      18.848   0.452   6.121  1.00142.22     0.224 C 
HETATM   18  C22 MIQ B 502      20.142  -0.244   5.747  1.00139.52     0.106 C 
HETATM   19  O24 MIQ B 502      18.068  -0.040   6.860  1.00146.13    -0.273 OA
HETATM   20  C23 MIQ B 502      20.146  -0.365   4.234  1.00139.15     0.045 C 
ENDBRANCH  10  12
BRANCH   5  21
HETATM   21  N6  MIQ B 502      26.442   4.378   2.184  1.00140.95    -0.377 N 
HETATM   22  C7  MIQ B 502      26.622   4.992   3.488  1.00142.12     0.149 C 
HETATM   23  C8  MIQ B 502      27.519   6.222   3.418  1.00144.10     0.187 C 
HETATM   24  O9  MIQ B 502      28.693   5.997   2.697  1.00148.65    -0.388 OA
HETATM   25  C10 MIQ B 502      28.852   4.827   1.950  1.00147.44     0.187 C 
HETATM   26  C11 MIQ B 502      27.613   4.171   1.350  1.00144.08     0.149 C 
ENDBRANCH   5  21
TORSDOF 2
ENDMDL
MODEL 9
REMARK VINA RESULT:      -6.5     17.012     20.093
REMARK  2 active torsions:
REMARK  status: ('A' for Active; 'I' for Inactive)
REMARK    1  A    between atoms: C5_5  and  N6_21 
REMARK    2  A    between atoms: C18_14  and  N17_19 
ROOT
HETATM    1  O1  MIQ B 502      21.230  10.432 -10.716  1.00142.91    -0.171 OA
HETATM    2  C2  MIQ B 502      20.656  10.215 -11.971  1.00141.17     0.195 A 
HETATM    3  C3  MIQ B 502      20.227  11.317 -12.992  1.00141.71     0.035 A 
HETATM    4  C4  MIQ B 502      20.283  12.798 -12.976  1.00142.86     0.046 A 
HETATM    5  C5  MIQ B 502      19.806  13.546 -14.082  1.00139.53     0.031 A 
HETATM    6  C12 MIQ B 502      19.259  12.853 -15.240  1.00139.38     0.030 A 
HETATM    7  C13 MIQ B 502      19.207  11.433 -15.257  1.00141.18     0.019 A 
HETATM    8  C14 MIQ B 502      19.711  10.654 -14.093  1.00138.77     0.033 A 
HETATM    9  C15 MIQ B 502      19.821   9.131 -13.754  1.00142.10     0.195 A 
HETATM   10  N17 MIQ B 502      20.365   9.063 -12.550  1.00139.42    -0.288 N 
HETATM   11  O16 MIQ B 502      19.421   8.065 -14.561  1.00148.93    -0.171 OA
ENDROOT
BRANCH  10  12
HETATM   12  C18 MIQ B 502      20.606   7.789 -11.899  1.00139.82     0.187 C 
HETATM   13  C19 MIQ B 502      19.946   7.839 -10.515  1.00140.06     0.247 C 
HETATM   14  O25 MIQ B 502      18.818   8.173 -10.426  1.00143.95    -0.271 OA
HETATM   15  N20 MIQ B 502      20.669   7.482  -9.311  1.00140.02    -0.296 N 
HETATM   16  H13 MIQ B 502      20.229   7.526  -8.413  1.00142.77     0.171 HD
HETATM   17  C21 MIQ B 502      22.048   7.088  -9.444  1.00142.22     0.224 C 
HETATM   18  C22 MIQ B 502      22.846   7.763 -10.544  1.00139.52     0.106 C 
HETATM   19  O24 MIQ B 502      22.530   6.276  -8.734  1.00146.13    -0.273 OA
HETATM   20  C23 MIQ B 502      22.104   7.497 -11.841  1.00139.15     0.045 C 
ENDBRANCH  10  12
BRANCH   5  21
HETATM   21  N6  MIQ B 502      19.853  14.996 -14.047  1.00140.95    -0.377 N 
HETATM   22  C7  MIQ B 502      18.817  15.707 -13.317  1.00142.12     0.149 C 
HETATM   23  C8  MIQ B 502      18.596  17.111 -13.865  1.00144.10     0.187 C 
HETATM   24  O9  MIQ B 502      19.788  17.816 -14.049  1.00148.65    -0.388 OA
HETATM   25  C10 MIQ B 502      21.019  17.163 -13.946  1.00147.44     0.187 C 
HETATM   26  C11 MIQ B 502      21.097  15.689 -14.329  1.00144.08     0.149 C 
ENDBRANCH   5  21
TORSDOF 2
ENDMDL
