MODEL 1
REMARK VINA RESULT:      -6.8      0.000      0.000
REMARK  2 active torsions:
REMARK  status: ('A' for Active; 'I' for Inactive)
REMARK    1  A    between atoms: C5_5  and  N6_21 
REMARK    2  A    between atoms: C18_14  and  N17_19 
ROOT
HETATM    1  O1  MIQ B 502      -8.659  13.138 -20.033  1.00142.91    -0.171 OA
HETATM    2  C2  MIQ B 502      -9.107  12.556 -18.846  1.00141.17     0.195 A 
HETATM    3  C3  MIQ B 502      -9.168  13.245 -17.446  1.00141.71     0.035 A 
HETATM    4  C4  MIQ B 502      -8.813  14.600 -16.961  1.00142.86     0.046 A 
HETATM    5  C5  MIQ B 502      -8.986  14.941 -15.596  1.00139.53     0.031 A 
HETATM    6  C12 MIQ B 502      -9.516  13.954 -14.666  1.00139.38     0.030 A 
HETATM    7  C13 MIQ B 502      -9.858  12.656 -15.131  1.00141.18     0.019 A 
HETATM    8  C14 MIQ B 502      -9.676  12.304 -16.566  1.00138.77     0.033 A 
HETATM    9  C15 MIQ B 502      -9.933  11.023 -17.424  1.00142.10     0.195 A 
HETATM   10  N17 MIQ B 502      -9.569  11.331 -18.658  1.00139.42    -0.288 N 
HETATM   11  O16 MIQ B 502     -10.441   9.803 -16.974  1.00148.93    -0.171 OA
ENDROOT
BRANCH  10  12
HETATM   12  C18 MIQ B 502      -9.655  10.365 -19.737  1.00139.82     0.187 C 
HETATM   13  C19 MIQ B 502     -11.112   9.896 -19.830  1.00140.06     0.247 C 
HETATM   14  O25 MIQ B 502     -11.973  10.700 -19.890  1.00143.95    -0.271 OA
HETATM   15  N20 MIQ B 502     -11.462   8.490 -19.853  1.00140.02    -0.296 N 
HETATM   16  H13 MIQ B 502     -12.418   8.197 -19.907  1.00142.77     0.171 HD
HETATM   17  C21 MIQ B 502     -10.394   7.528 -19.768  1.00142.22     0.224 C 
HETATM   18  C22 MIQ B 502      -9.191   7.917 -18.931  1.00139.52     0.106 C 
HETATM   19  O24 MIQ B 502     -10.453   6.489 -20.329  1.00146.13    -0.273 OA
HETATM   20  C23 MIQ B 502      -8.669   9.221 -19.506  1.00139.15     0.045 C 
ENDBRANCH  10  12
BRANCH   5  21
HETATM   21  N6  MIQ B 502      -8.620  16.267 -15.132  1.00140.95    -0.377 N 
HETATM   22  C7  MIQ B 502      -7.987  17.180 -16.068  1.00142.12     0.149 C 
HETATM   23  C8  MIQ B 502      -7.109  18.203 -15.359  1.00144.10     0.187 C 
HETATM   24  O9  MIQ B 502      -7.747  18.808 -14.274  1.00148.65    -0.388 OA
HETATM   25  C10 MIQ B 502      -8.966  18.312 -13.804  1.00147.44     0.187 C 
HETATM   26  C11 MIQ B 502      -9.251  16.821 -13.946  1.00144.08     0.149 C 
ENDBRANCH   5  21
TORSDOF 2
ENDMDL
MODEL 2
REMARK VINA RESULT:      -6.7      2.165      8.017
REMARK  2 active torsions:
REMARK  status: ('A' for Active; 'I' for Inactive)
REMARK    1  A    between atoms: C5_5  and  N6_21 
REMARK    2  A    between atoms: C18_14  and  N17_19 
ROOT
HETATM    1  O1  MIQ B 502      -9.121  14.867 -18.914  1.00142.91    -0.171 OA
HETATM    2  C2  MIQ B 502      -9.146  14.054 -17.779  1.00141.17     0.195 A 
HETATM    3  C3  MIQ B 502      -9.306  12.500 -17.761  1.00141.71     0.035 A 
HETATM    4  C4  MIQ B 502      -9.464  11.480 -18.824  1.00142.86     0.046 A 
HETATM    5  C5  MIQ B 502      -9.588  10.108 -18.488  1.00139.53     0.031 A 
HETATM    6  C12 MIQ B 502      -9.558   9.700 -17.091  1.00139.38     0.030 A 
HETATM    7  C13 MIQ B 502      -9.405  10.678 -16.071  1.00141.18     0.019 A 
HETATM    8  C14 MIQ B 502      -9.274  12.117 -16.430  1.00138.77     0.033 A 
HETATM    9  C15 MIQ B 502      -9.092  13.440 -15.617  1.00142.10     0.195 A 
HETATM   10  N17 MIQ B 502      -9.037  14.413 -16.511  1.00139.42    -0.288 N 
HETATM   11  O16 MIQ B 502      -9.008  13.563 -14.229  1.00148.93    -0.171 OA
ENDROOT
BRANCH  10  12
HETATM   12  C18 MIQ B 502      -8.886  15.800 -16.112  1.00139.82     0.187 C 
HETATM   13  C19 MIQ B 502     -10.026  16.599 -16.757  1.00140.06     0.247 C 
HETATM   14  O25 MIQ B 502     -11.137  16.222 -16.629  1.00143.95    -0.271 OA
HETATM   15  N20 MIQ B 502      -9.778  17.808 -17.514  1.00140.02    -0.296 N 
HETATM   16  H13 MIQ B 502     -10.530  18.317 -17.936  1.00142.77     0.171 HD
HETATM   17  C21 MIQ B 502      -8.413  18.242 -17.665  1.00142.22     0.224 C 
HETATM   18  C22 MIQ B 502      -7.359  17.156 -17.752  1.00139.52     0.106 C 
HETATM   19  O24 MIQ B 502      -8.131  19.389 -17.713  1.00146.13    -0.273 OA
HETATM   20  C23 MIQ B 502      -7.500  16.316 -16.495  1.00139.15     0.045 C 
ENDBRANCH  10  12
BRANCH   5  21
HETATM   21  N6  MIQ B 502      -9.758   9.121 -19.539  1.00140.95    -0.377 N 
HETATM   22  C7  MIQ B 502      -8.977   7.898 -19.476  1.00142.12     0.149 C 
HETATM   23  C8  MIQ B 502      -8.750   7.295 -20.856  1.00144.10     0.187 C 
HETATM   24  O9  MIQ B 502      -9.920   7.218 -21.614  1.00148.65    -0.388 OA
HETATM   25  C10 MIQ B 502     -11.086   7.857 -21.184  1.00147.44     0.187 C 
HETATM   26  C11 MIQ B 502     -10.956   9.134 -20.360  1.00144.08     0.149 C 
ENDBRANCH   5  21
TORSDOF 2
ENDMDL
MODEL 3
REMARK VINA RESULT:      -6.7      2.294      3.527
REMARK  2 active torsions:
REMARK  status: ('A' for Active; 'I' for Inactive)
REMARK    1  A    between atoms: C5_5  and  N6_21 
REMARK    2  A    between atoms: C18_14  and  N17_19 
ROOT
HETATM    1  O1  MIQ B 502     -10.687   9.828 -21.053  1.00142.91    -0.171 OA
HETATM    2  C2  MIQ B 502     -10.333   9.595 -19.723  1.00141.17     0.195 A 
HETATM    3  C3  MIQ B 502     -10.189  10.675 -18.603  1.00141.71     0.035 A 
HETATM    4  C4  MIQ B 502     -10.364  12.147 -18.579  1.00142.86     0.046 A 
HETATM    5  C5  MIQ B 502     -10.158  12.873 -17.379  1.00139.53     0.031 A 
HETATM    6  C12 MIQ B 502      -9.774  12.168 -16.165  1.00139.38     0.030 A 
HETATM    7  C13 MIQ B 502      -9.608  10.757 -16.187  1.00141.18     0.019 A 
HETATM    8  C14 MIQ B 502      -9.827  10.000 -17.449  1.00138.77     0.033 A 
HETATM    9  C15 MIQ B 502      -9.747   8.492 -17.854  1.00142.10     0.195 A 
HETATM   10  N17 MIQ B 502     -10.057   8.441 -19.139  1.00139.42    -0.288 N 
HETATM   11  O16 MIQ B 502      -9.412   7.420 -17.024  1.00148.93    -0.171 OA
ENDROOT
BRANCH  10  12
HETATM   12  C18 MIQ B 502     -10.069   7.186 -19.867  1.00139.82     0.187 C 
HETATM   13  C19 MIQ B 502      -9.186   7.357 -21.109  1.00140.06     0.247 C 
HETATM   14  O25 MIQ B 502      -8.093   7.783 -20.985  1.00143.95    -0.271 OA
HETATM   15  N20 MIQ B 502      -9.655   7.003 -22.434  1.00140.02    -0.296 N 
HETATM   16  H13 MIQ B 502      -9.071   7.126 -23.237  1.00142.77     0.171 HD
HETATM   17  C21 MIQ B 502     -10.997   6.495 -22.561  1.00142.22     0.224 C 
HETATM   18  C22 MIQ B 502     -12.029   7.049 -21.598  1.00139.52     0.106 C 
HETATM   19  O24 MIQ B 502     -11.275   5.683 -23.373  1.00146.13    -0.273 OA
HETATM   20  C23 MIQ B 502     -11.504   6.779 -20.200  1.00139.15     0.045 C 
ENDBRANCH  10  12
BRANCH   5  21
HETATM   21  N6  MIQ B 502     -10.318  14.316 -17.373  1.00140.95    -0.377 N 
HETATM   22  C7  MIQ B 502      -9.566  15.094 -16.405  1.00142.12     0.149 C 
HETATM   23  C8  MIQ B 502     -10.261  16.407 -16.066  1.00144.10     0.187 C 
HETATM   24  O9  MIQ B 502     -10.680  17.108 -17.199  1.00148.65    -0.388 OA
HETATM   25  C10 MIQ B 502     -10.646  16.503 -18.458  1.00147.44     0.187 C 
HETATM   26  C11 MIQ B 502     -10.840  14.993 -18.548  1.00144.08     0.149 C 
ENDBRANCH   5  21
TORSDOF 2
ENDMDL
MODEL 4
REMARK VINA RESULT:      -6.6     18.196     19.980
REMARK  2 active torsions:
REMARK  status: ('A' for Active; 'I' for Inactive)
REMARK    1  A    between atoms: C5_5  and  N6_21 
REMARK    2  A    between atoms: C18_14  and  N17_19 
ROOT
HETATM    1  O1  MIQ B 502     -15.027   3.059  -0.576  1.00142.91    -0.171 OA
HETATM    2  C2  MIQ B 502     -15.340   4.260   0.066  1.00141.17     0.195 A 
HETATM    3  C3  MIQ B 502     -14.730   5.662  -0.252  1.00141.71     0.035 A 
HETATM    4  C4  MIQ B 502     -13.727   6.137  -1.235  1.00142.86     0.046 A 
HETATM    5  C5  MIQ B 502     -13.368   7.508  -1.286  1.00139.53     0.031 A 
HETATM    6  C12 MIQ B 502     -13.989   8.452  -0.369  1.00139.38     0.030 A 
HETATM    7  C13 MIQ B 502     -14.951   7.997   0.572  1.00141.18     0.019 A 
HETATM    8  C14 MIQ B 502     -15.326   6.557   0.620  1.00138.77     0.033 A 
HETATM    9  C15 MIQ B 502     -16.313   5.706   1.485  1.00142.10     0.195 A 
HETATM   10  N17 MIQ B 502     -16.200   4.462   1.049  1.00139.42    -0.288 N 
HETATM   11  O16 MIQ B 502     -17.140   6.170   2.509  1.00148.93    -0.171 OA
ENDROOT
BRANCH  10  12
HETATM   12  C18 MIQ B 502     -16.967   3.381   1.639  1.00139.82     0.187 C 
HETATM   13  C19 MIQ B 502     -15.980   2.290   2.072  1.00140.06     0.247 C 
HETATM   14  O25 MIQ B 502     -15.051   2.584   2.737  1.00143.95    -0.271 OA
HETATM   15  N20 MIQ B 502     -16.160   0.903   1.693  1.00140.02    -0.296 N 
HETATM   16  H13 MIQ B 502     -15.505   0.202   1.977  1.00142.77     0.171 HD
HETATM   17  C21 MIQ B 502     -17.296   0.570   0.872  1.00142.22     0.224 C 
HETATM   18  C22 MIQ B 502     -17.739   1.615  -0.133  1.00139.52     0.106 C 
HETATM   19  O24 MIQ B 502     -17.856  -0.464   0.984  1.00146.13    -0.273 OA
HETATM   20  C23 MIQ B 502     -18.024   2.880   0.655  1.00139.15     0.045 C 
ENDBRANCH  10  12
BRANCH   5  21
HETATM   21  N6  MIQ B 502     -12.374   7.957  -2.244  1.00140.95    -0.377 N 
HETATM   22  C7  MIQ B 502     -11.139   8.537  -1.743  1.00142.12     0.149 C 
HETATM   23  C8  MIQ B 502     -10.521   9.507  -2.741  1.00144.10     0.187 C 
HETATM   24  O9  MIQ B 502     -10.454   8.987  -4.035  1.00148.65    -0.388 OA
HETATM   25  C10 MIQ B 502     -11.115   7.798  -4.355  1.00147.44     0.187 C 
HETATM   26  C11 MIQ B 502     -12.397   7.452  -3.605  1.00144.08     0.149 C 
ENDBRANCH   5  21
TORSDOF 2
ENDMDL
MODEL 5
REMARK VINA RESULT:      -6.6     16.873     18.515
REMARK  2 active torsions:
REMARK  status: ('A' for Active; 'I' for Inactive)
REMARK    1  A    between atoms: C5_5  and  N6_21 
REMARK    2  A    between atoms: C18_14  and  N17_19 
ROOT
HETATM    1  O1  MIQ B 502     -15.285   6.840   0.747  1.00142.91    -0.171 OA
HETATM    2  C2  MIQ B 502     -14.627   6.063  -0.210  1.00141.17     0.195 A 
HETATM    3  C3  MIQ B 502     -13.386   6.495  -1.054  1.00141.71     0.035 A 
HETATM    4  C4  MIQ B 502     -12.576   7.735  -1.114  1.00142.86     0.046 A 
HETATM    5  C5  MIQ B 502     -11.478   7.831  -2.005  1.00139.53     0.031 A 
HETATM    6  C12 MIQ B 502     -11.144   6.705  -2.865  1.00139.38     0.030 A 
HETATM    7  C13 MIQ B 502     -11.920   5.516  -2.806  1.00141.18     0.019 A 
HETATM    8  C14 MIQ B 502     -13.070   5.420  -1.867  1.00138.77     0.033 A 
HETATM    9  C15 MIQ B 502     -14.121   4.313  -1.526  1.00142.10     0.195 A 
HETATM   10  N17 MIQ B 502     -14.904   4.828  -0.592  1.00139.42    -0.288 N 
HETATM   11  O16 MIQ B 502     -14.212   3.042  -2.096  1.00148.93    -0.171 OA
ENDROOT
BRANCH  10  12
HETATM   12  C18 MIQ B 502     -16.017   4.080  -0.039  1.00139.82     0.187 C 
HETATM   13  C19 MIQ B 502     -15.440   3.003   0.889  1.00140.06     0.247 C 
HETATM   14  O25 MIQ B 502     -14.663   3.315   1.720  1.00143.95    -0.271 OA
HETATM   15  N20 MIQ B 502     -15.829   1.612   0.779  1.00140.02    -0.296 N 
HETATM   16  H13 MIQ B 502     -15.440   0.918   1.387  1.00142.77     0.171 HD
HETATM   17  C21 MIQ B 502     -16.771   1.254  -0.250  1.00142.22     0.224 C 
HETATM   18  C22 MIQ B 502     -16.705   2.048  -1.540  1.00139.52     0.106 C 
HETATM   19  O24 MIQ B 502     -17.560   0.389  -0.091  1.00146.13    -0.273 OA
HETATM   20  C23 MIQ B 502     -16.882   3.506  -1.160  1.00139.15     0.045 C 
ENDBRANCH  10  12
BRANCH   5  21
HETATM   21  N6  MIQ B 502     -10.703   9.057  -2.064  1.00140.95    -0.377 N 
HETATM   22  C7  MIQ B 502     -11.237  10.182  -2.813  1.00142.12     0.149 C 
HETATM   23  C8  MIQ B 502     -10.134  11.096  -3.330  1.00144.10     0.187 C 
HETATM   24  O9  MIQ B 502      -9.196  11.424  -2.350  1.00148.65    -0.388 OA
HETATM   25  C10 MIQ B 502      -9.197  10.763  -1.119  1.00147.44     0.187 C 
HETATM   26  C11 MIQ B 502      -9.676   9.315  -1.069  1.00144.08     0.149 C 
ENDBRANCH   5  21
TORSDOF 2
ENDMDL
MODEL 6
REMARK VINA RESULT:      -6.5      1.891      8.312
REMARK  2 active torsions:
REMARK  status: ('A' for Active; 'I' for Inactive)
REMARK    1  A    between atoms: C5_5  and  N6_21 
REMARK    2  A    between atoms: C18_14  and  N17_19 
ROOT
HETATM    1  O1  MIQ B 502     -11.099  14.168 -19.677  1.00142.91    -0.171 OA
HETATM    2  C2  MIQ B 502     -10.449  13.491 -18.643  1.00141.17     0.195 A 
HETATM    3  C3  MIQ B 502     -10.249  11.946 -18.534  1.00141.71     0.035 A 
HETATM    4  C4  MIQ B 502     -10.635  10.805 -19.398  1.00142.86     0.046 A 
HETATM    5  C5  MIQ B 502     -10.303   9.478 -19.024  1.00139.53     0.031 A 
HETATM    6  C12 MIQ B 502      -9.577   9.237 -17.786  1.00139.38     0.030 A 
HETATM    7  C13 MIQ B 502      -9.206  10.330 -16.958  1.00141.18     0.019 A 
HETATM    8  C14 MIQ B 502      -9.555  11.721 -17.356  1.00138.77     0.033 A 
HETATM    9  C15 MIQ B 502      -9.323  13.135 -16.730  1.00142.10     0.195 A 
HETATM   10  N17 MIQ B 502      -9.875  13.999 -17.566  1.00139.42    -0.288 N 
HETATM   11  O16 MIQ B 502      -8.668  13.421 -15.531  1.00148.93    -0.171 OA
ENDROOT
BRANCH  10  12
HETATM   12  C18 MIQ B 502      -9.865  15.425 -17.296  1.00139.82     0.187 C 
HETATM   13  C19 MIQ B 502      -8.402  15.876 -17.217  1.00140.06     0.247 C 
HETATM   14  O25 MIQ B 502      -7.662  15.588 -18.090  1.00143.95    -0.271 OA
HETATM   15  N20 MIQ B 502      -7.901  16.653 -16.101  1.00140.02    -0.296 N 
HETATM   16  H13 MIQ B 502      -6.942  16.936 -16.058  1.00142.77     0.171 HD
HETATM   17  C21 MIQ B 502      -8.821  16.983 -15.043  1.00142.22     0.224 C 
HETATM   18  C22 MIQ B 502      -9.898  15.962 -14.733  1.00139.52     0.106 C 
HETATM   19  O24 MIQ B 502      -8.740  18.003 -14.451  1.00146.13    -0.273 OA
HETATM   20  C23 MIQ B 502     -10.658  15.732 -16.027  1.00139.15     0.045 C 
ENDBRANCH  10  12
BRANCH   5  21
HETATM   21  N6  MIQ B 502     -10.700   8.370 -19.873  1.00140.95    -0.377 N 
HETATM   22  C7  MIQ B 502     -10.559   8.510 -21.312  1.00142.12     0.149 C 
HETATM   23  C8  MIQ B 502     -11.549   7.635 -22.069  1.00144.10     0.187 C 
HETATM   24  O9  MIQ B 502     -11.583   6.321 -21.598  1.00148.65    -0.388 OA
HETATM   25  C10 MIQ B 502     -10.932   5.977 -20.411  1.00147.44     0.187 C 
HETATM   26  C11 MIQ B 502     -10.806   7.032 -19.317  1.00144.08     0.149 C 
ENDBRANCH   5  21
TORSDOF 2
ENDMDL
MODEL 7
REMARK VINA RESULT:      -6.4      3.220      5.588
REMARK  2 active torsions:
REMARK  status: ('A' for Active; 'I' for Inactive)
REMARK    1  A    between atoms: C5_5  and  N6_21 
REMARK    2  A    between atoms: C18_14  and  N17_19 
ROOT
HETATM    1  O1  MIQ B 502     -10.662   9.617 -22.708  1.00142.91    -0.171 OA
HETATM    2  C2  MIQ B 502     -10.608   8.676 -21.676  1.00141.17     0.195 A 
HETATM    3  C3  MIQ B 502     -10.294   8.971 -20.175  1.00141.71     0.035 A 
HETATM    4  C4  MIQ B 502      -9.986  10.210 -19.423  1.00142.86     0.046 A 
HETATM    5  C5  MIQ B 502      -9.741  10.159 -18.027  1.00139.53     0.031 A 
HETATM    6  C12 MIQ B 502      -9.793   8.882 -17.330  1.00139.38     0.030 A 
HETATM    7  C13 MIQ B 502     -10.090   7.694 -18.051  1.00141.18     0.019 A 
HETATM    8  C14 MIQ B 502     -10.348   7.754 -19.516  1.00138.77     0.033 A 
HETATM    9  C15 MIQ B 502     -10.699   6.698 -20.614  1.00142.10     0.195 A 
HETATM   10  N17 MIQ B 502     -10.810   7.372 -21.747  1.00139.42    -0.288 N 
HETATM   11  O16 MIQ B 502     -10.858   5.323 -20.431  1.00148.93    -0.171 OA
ENDROOT
BRANCH  10  12
HETATM   12  C18 MIQ B 502     -11.117   6.704 -22.998  1.00139.82     0.187 C 
HETATM   13  C19 MIQ B 502     -10.040   7.100 -24.015  1.00140.06     0.247 C 
HETATM   14  O25 MIQ B 502      -8.902   6.986 -23.723  1.00143.95    -0.271 OA
HETATM   15  N20 MIQ B 502     -10.379   7.604 -25.330  1.00140.02    -0.296 N 
HETATM   16  H13 MIQ B 502      -9.666   7.865 -25.983  1.00142.77     0.171 HD
HETATM   17  C21 MIQ B 502     -11.774   7.744 -25.660  1.00142.22     0.224 C 
HETATM   18  C22 MIQ B 502     -12.708   8.117 -24.525  1.00139.52     0.106 C 
HETATM   19  O24 MIQ B 502     -12.169   7.570 -26.760  1.00146.13    -0.273 OA
HETATM   20  C23 MIQ B 502     -12.532   7.055 -23.455  1.00139.15     0.045 C 
ENDBRANCH  10  12
BRANCH   5  21
HETATM   21  N6  MIQ B 502      -9.425  11.379 -17.306  1.00140.95    -0.377 N 
HETATM   22  C7  MIQ B 502      -9.905  12.643 -17.836  1.00142.12     0.149 C 
HETATM   23  C8  MIQ B 502      -9.022  13.810 -17.412  1.00144.10     0.187 C 
HETATM   24  O9  MIQ B 502      -8.735  13.806 -16.045  1.00148.65    -0.388 OA
HETATM   25  C10 MIQ B 502      -9.057  12.697 -15.258  1.00147.44     0.187 C 
HETATM   26  C11 MIQ B 502      -9.048  11.316 -15.904  1.00144.08     0.149 C 
ENDBRANCH   5  21
TORSDOF 2
ENDMDL
MODEL 8
REMARK VINA RESULT:      -6.4     24.669     27.158
REMARK  2 active torsions:
REMARK  status: ('A' for Active; 'I' for Inactive)
REMARK    1  A    between atoms: C5_5  and  N6_21 
REMARK    2  A    between atoms: C18_14  and  N17_19 
ROOT
HETATM    1  O1  MIQ B 502     -26.051   1.586  -2.861  1.00142.91    -0.171 OA
HETATM    2  C2  MIQ B 502     -25.843   1.164  -1.546  1.00141.17     0.195 A 
HETATM    3  C3  MIQ B 502     -25.544  -0.298  -1.083  1.00141.71     0.035 A 
HETATM    4  C4  MIQ B 502     -25.393  -1.584  -1.803  1.00142.86     0.046 A 
HETATM    5  C5  MIQ B 502     -25.114  -2.777  -1.089  1.00139.53     0.031 A 
HETATM    6  C12 MIQ B 502     -24.973  -2.736   0.359  1.00139.38     0.030 A 
HETATM    7  C13 MIQ B 502     -25.116  -1.502   1.050  1.00141.18     0.019 A 
HETATM    8  C14 MIQ B 502     -25.408  -0.253   0.295  1.00138.77     0.033 A 
HETATM    9  C15 MIQ B 502     -25.623   1.245   0.689  1.00142.10     0.195 A 
HETATM   10  N17 MIQ B 502     -25.849   1.891  -0.442  1.00139.42    -0.288 N 
HETATM   11  O16 MIQ B 502     -25.586   1.784   1.976  1.00148.93    -0.171 OA
ENDROOT
BRANCH  10  12
HETATM   12  C18 MIQ B 502     -26.111   3.318  -0.460  1.00139.82     0.187 C 
HETATM   13  C19 MIQ B 502     -27.454   3.539  -1.167  1.00140.06     0.247 C 
HETATM   14  O25 MIQ B 502     -28.397   2.923  -0.817  1.00143.95    -0.271 OA
HETATM   15  N20 MIQ B 502     -27.600   4.489  -2.251  1.00140.02    -0.296 N 
HETATM   16  H13 MIQ B 502     -28.481   4.619  -2.708  1.00142.77     0.171 HD
HETATM   17  C21 MIQ B 502     -26.432   5.222  -2.667  1.00142.22     0.224 C 
HETATM   18  C22 MIQ B 502     -25.103   4.498  -2.570  1.00139.52     0.106 C 
HETATM   19  O24 MIQ B 502     -26.508   6.334  -3.059  1.00146.13    -0.273 OA
HETATM   20  C23 MIQ B 502     -24.954   4.063  -1.123  1.00139.15     0.045 C 
ENDBRANCH  10  12
BRANCH   5  21
HETATM   21  N6  MIQ B 502     -24.983  -4.032  -1.806  1.00140.95    -0.377 N 
HETATM   22  C7  MIQ B 502     -23.830  -4.223  -2.668  1.00142.12     0.149 C 
HETATM   23  C8  MIQ B 502     -24.118  -5.210  -3.793  1.00144.10     0.187 C 
HETATM   24  O9  MIQ B 502     -24.729  -6.382  -3.344  1.00148.65    -0.388 OA
HETATM   25  C10 MIQ B 502     -25.208  -6.474  -2.035  1.00147.44     0.187 C 
HETATM   26  C11 MIQ B 502     -25.707  -5.206  -1.350  1.00144.08     0.149 C 
ENDBRANCH   5  21
TORSDOF 2
ENDMDL
MODEL 9
REMARK VINA RESULT:      -6.4     21.124     22.759
REMARK  2 active torsions:
REMARK  status: ('A' for Active; 'I' for Inactive)
REMARK    1  A    between atoms: C5_5  and  N6_21 
REMARK    2  A    between atoms: C18_14  and  N17_19 
ROOT
HETATM    1  O1  MIQ B 502     -19.345   1.793   0.933  1.00142.91    -0.171 OA
HETATM    2  C2  MIQ B 502     -18.680   3.012   0.783  1.00141.17     0.195 A 
HETATM    3  C3  MIQ B 502     -19.327   4.370   0.361  1.00141.71     0.035 A 
HETATM    4  C4  MIQ B 502     -20.711   4.776   0.019  1.00142.86     0.046 A 
HETATM    5  C5  MIQ B 502     -20.997   6.120  -0.332  1.00139.53     0.031 A 
HETATM    6  C12 MIQ B 502     -19.925   7.104  -0.356  1.00139.38     0.030 A 
HETATM    7  C13 MIQ B 502     -18.598   6.715  -0.028  1.00141.18     0.019 A 
HETATM    8  C14 MIQ B 502     -18.304   5.304   0.343  1.00138.77     0.033 A 
HETATM    9  C15 MIQ B 502     -17.015   4.522   0.756  1.00142.10     0.195 A 
HETATM   10  N17 MIQ B 502     -17.397   3.273   0.966  1.00139.42    -0.288 N 
HETATM   11  O16 MIQ B 502     -15.725   5.041   0.875  1.00148.93    -0.171 OA
ENDROOT
BRANCH  10  12
HETATM   12  C18 MIQ B 502     -16.448   2.246   1.355  1.00139.82     0.187 C 
HETATM   13  C19 MIQ B 502     -16.590   1.080   0.369  1.00140.06     0.247 C 
HETATM   14  O25 MIQ B 502     -16.552   1.299  -0.790  1.00143.95    -0.271 OA
HETATM   15  N20 MIQ B 502     -16.764  -0.285   0.820  1.00140.02    -0.296 N 
HETATM   16  H13 MIQ B 502     -16.862  -1.036   0.166  1.00142.77     0.171 HD
HETATM   17  C21 MIQ B 502     -16.817  -0.525   2.239  1.00142.22     0.224 C 
HETATM   18  C22 MIQ B 502     -17.450   0.560   3.090  1.00139.52     0.106 C 
HETATM   19  O24 MIQ B 502     -16.384  -1.516   2.715  1.00146.13    -0.273 OA
HETATM   20  C23 MIQ B 502     -16.676   1.835   2.809  1.00139.15     0.045 C 
ENDBRANCH  10  12
BRANCH   5  21
HETATM   21  N6  MIQ B 502     -22.354   6.500  -0.679  1.00140.95    -0.377 N 
HETATM   22  C7  MIQ B 502     -23.104   5.649  -1.586  1.00142.12     0.149 C 
HETATM   23  C8  MIQ B 502     -24.170   6.428  -2.347  1.00144.10     0.187 C 
HETATM   24  O9  MIQ B 502     -24.943   7.243  -1.518  1.00148.65    -0.388 OA
HETATM   25  C10 MIQ B 502     -24.571   7.454  -0.187  1.00147.44     0.187 C 
HETATM   26  C11 MIQ B 502     -23.089   7.421   0.171  1.00144.08     0.149 C 
ENDBRANCH   5  21
TORSDOF 2
ENDMDL
