MODEL 1
REMARK VINA RESULT:      -6.6      0.000      0.000
REMARK  2 active torsions:
REMARK  status: ('A' for Active; 'I' for Inactive)
REMARK    1  A    between atoms: C5_5  and  N6_21 
REMARK    2  A    between atoms: C18_14  and  N17_19 
ROOT
HETATM    1  O1  MIQ B 502     -22.987  -3.596  -8.128  1.00142.91    -0.171 OA
HETATM    2  C2  MIQ B 502     -22.874  -4.298  -6.926  1.00141.17     0.195 A 
HETATM    3  C3  MIQ B 502     -22.304  -5.742  -6.751  1.00141.71     0.035 A 
HETATM    4  C4  MIQ B 502     -21.750  -6.740  -7.696  1.00142.86     0.046 A 
HETATM    5  C5  MIQ B 502     -21.300  -7.999  -7.225  1.00139.53     0.031 A 
HETATM    6  C12 MIQ B 502     -21.381  -8.311  -5.806  1.00139.38     0.030 A 
HETATM    7  C13 MIQ B 502     -21.911  -7.354  -4.899  1.00141.18     0.019 A 
HETATM    8  C14 MIQ B 502     -22.381  -6.033  -5.399  1.00138.77     0.033 A 
HETATM    9  C15 MIQ B 502     -23.001  -4.762  -4.731  1.00142.10     0.195 A 
HETATM   10  N17 MIQ B 502     -23.211  -3.900  -5.711  1.00139.42    -0.288 N 
HETATM   11  O16 MIQ B 502     -23.277  -4.582  -3.374  1.00148.93    -0.171 OA
ENDROOT
BRANCH  10  12
HETATM   12  C18 MIQ B 502     -23.800  -2.597  -5.461  1.00139.82     0.187 C 
HETATM   13  C19 MIQ B 502     -23.036  -1.954  -4.297  1.00140.06     0.247 C 
HETATM   14  O25 MIQ B 502     -21.858  -1.904  -4.339  1.00143.95    -0.271 OA
HETATM   15  N20 MIQ B 502     -23.721  -1.400  -3.147  1.00140.02    -0.296 N 
HETATM   16  H13 MIQ B 502     -23.211  -0.989  -2.391  1.00142.77     0.171 HD
HETATM   17  C21 MIQ B 502     -25.159  -1.483  -3.115  1.00142.22     0.224 C 
HETATM   18  C22 MIQ B 502     -25.786  -2.705  -3.758  1.00139.52     0.106 C 
HETATM   19  O24 MIQ B 502     -25.815  -0.636  -2.615  1.00146.13    -0.273 OA
HETATM   20  C23 MIQ B 502     -25.298  -2.734  -5.195  1.00139.15     0.045 C 
ENDBRANCH  10  12
BRANCH   5  21
HETATM   21  N6  MIQ B 502     -20.773  -8.973  -8.164  1.00140.95    -0.377 N 
HETATM   22  C7  MIQ B 502     -19.469  -9.557  -7.901  1.00142.12     0.149 C 
HETATM   23  C8  MIQ B 502     -18.780 -10.011  -9.181  1.00144.10     0.187 C 
HETATM   24  O9  MIQ B 502     -19.615 -10.763 -10.010  1.00148.65    -0.388 OA
HETATM   25  C10 MIQ B 502     -20.984 -10.850  -9.745  1.00147.44     0.187 C 
HETATM   26  C11 MIQ B 502     -21.672  -9.670  -9.068  1.00144.08     0.149 C 
ENDBRANCH   5  21
TORSDOF 2
ENDMDL
MODEL 2
REMARK VINA RESULT:      -6.5      1.756      3.004
REMARK  2 active torsions:
REMARK  status: ('A' for Active; 'I' for Inactive)
REMARK    1  A    between atoms: C5_5  and  N6_21 
REMARK    2  A    between atoms: C18_14  and  N17_19 
ROOT
HETATM    1  O1  MIQ B 502     -24.237  -4.225  -2.764  1.00142.91    -0.171 OA
HETATM    2  C2  MIQ B 502     -24.086  -3.734  -4.062  1.00141.17     0.195 A 
HETATM    3  C3  MIQ B 502     -23.476  -4.506  -5.275  1.00141.71     0.035 A 
HETATM    4  C4  MIQ B 502     -22.918  -5.870  -5.439  1.00142.86     0.046 A 
HETATM    5  C5  MIQ B 502     -22.428  -6.297  -6.699  1.00139.53     0.031 A 
HETATM    6  C12 MIQ B 502     -22.474  -5.391  -7.838  1.00139.38     0.030 A 
HETATM    7  C13 MIQ B 502     -23.010  -4.084  -7.681  1.00141.18     0.019 A 
HETATM    8  C14 MIQ B 502     -23.525  -3.641  -6.357  1.00138.77     0.033 A 
HETATM    9  C15 MIQ B 502     -24.169  -2.325  -5.812  1.00142.10     0.195 A 
HETATM   10  N17 MIQ B 502     -24.421  -2.544  -4.532  1.00139.42    -0.288 N 
HETATM   11  O16 MIQ B 502     -24.422  -1.158  -6.534  1.00148.93    -0.171 OA
ENDROOT
BRANCH  10  12
HETATM   12  C18 MIQ B 502     -25.014  -1.521  -3.691  1.00139.82     0.187 C 
HETATM   13  C19 MIQ B 502     -24.093  -1.319  -2.481  1.00140.06     0.247 C 
HETATM   14  O25 MIQ B 502     -22.942  -1.131  -2.659  1.00143.95    -0.271 OA
HETATM   15  N20 MIQ B 502     -24.598  -1.347  -1.124  1.00140.02    -0.296 N 
HETATM   16  H13 MIQ B 502     -23.985  -1.220  -0.342  1.00142.77     0.171 HD
HETATM   17  C21 MIQ B 502     -26.005  -1.589  -0.932  1.00142.22     0.224 C 
HETATM   18  C22 MIQ B 502     -26.679  -2.512  -1.929  1.00139.52     0.106 C 
HETATM   19  O24 MIQ B 502     -26.603  -1.087  -0.045  1.00146.13    -0.273 OA
HETATM   20  C23 MIQ B 502     -26.439  -1.912  -3.303  1.00139.15     0.045 C 
ENDBRANCH  10  12
BRANCH   5  21
HETATM   21  N6  MIQ B 502     -21.871  -7.630  -6.841  1.00140.95    -0.377 N 
HETATM   22  C7  MIQ B 502     -20.549  -7.771  -7.427  1.00142.12     0.149 C 
HETATM   23  C8  MIQ B 502     -20.365  -9.129  -8.094  1.00144.10     0.187 C 
HETATM   24  O9  MIQ B 502     -20.777 -10.191  -7.287  1.00148.65    -0.388 OA
HETATM   25  C10 MIQ B 502     -21.489  -9.950  -6.108  1.00147.44     0.187 C 
HETATM   26  C11 MIQ B 502     -22.392  -8.723  -6.040  1.00144.08     0.149 C 
ENDBRANCH   5  21
TORSDOF 2
ENDMDL
MODEL 3
REMARK VINA RESULT:      -6.5      1.343      1.585
REMARK  2 active torsions:
REMARK  status: ('A' for Active; 'I' for Inactive)
REMARK    1  A    between atoms: C5_5  and  N6_21 
REMARK    2  A    between atoms: C18_14  and  N17_19 
ROOT
HETATM    1  O1  MIQ B 502     -25.521  -5.895  -6.994  1.00142.91    -0.171 OA
HETATM    2  C2  MIQ B 502     -24.305  -5.461  -6.461  1.00141.17     0.195 A 
HETATM    3  C3  MIQ B 502     -22.910  -6.128  -6.683  1.00141.71     0.035 A 
HETATM    4  C4  MIQ B 502     -22.458  -7.312  -7.452  1.00142.86     0.046 A 
HETATM    5  C5  MIQ B 502     -21.088  -7.678  -7.464  1.00139.53     0.031 A 
HETATM    6  C12 MIQ B 502     -20.122  -6.885  -6.718  1.00139.38     0.030 A 
HETATM    7  C13 MIQ B 502     -20.555  -5.749  -5.982  1.00141.18     0.019 A 
HETATM    8  C14 MIQ B 502     -21.994  -5.369  -5.975  1.00138.77     0.033 A 
HETATM    9  C15 MIQ B 502     -22.824  -4.223  -5.309  1.00142.10     0.195 A 
HETATM   10  N17 MIQ B 502     -24.079  -4.419  -5.680  1.00139.42    -0.288 N 
HETATM   11  O16 MIQ B 502     -22.336  -3.205  -4.489  1.00148.93    -0.171 OA
ENDROOT
BRANCH  10  12
HETATM   12  C18 MIQ B 502     -25.146  -3.544  -5.232  1.00139.82     0.187 C 
HETATM   13  C19 MIQ B 502     -24.733  -2.101  -5.550  1.00140.06     0.247 C 
HETATM   14  O25 MIQ B 502     -24.372  -1.833  -6.640  1.00143.95    -0.271 OA
HETATM   15  N20 MIQ B 502     -24.779  -1.055  -4.549  1.00140.02    -0.296 N 
HETATM   16  H13 MIQ B 502     -24.501  -0.119  -4.767  1.00142.77     0.171 HD
HETATM   17  C21 MIQ B 502     -25.213  -1.410  -3.222  1.00142.22     0.224 C 
HETATM   18  C22 MIQ B 502     -24.855  -2.802  -2.737  1.00139.52     0.106 C 
HETATM   19  O24 MIQ B 502     -25.823  -0.654  -2.549  1.00146.13    -0.273 OA
HETATM   20  C23 MIQ B 502     -25.435  -3.774  -3.749  1.00139.15     0.045 C 
ENDBRANCH  10  12
BRANCH   5  21
HETATM   21  N6  MIQ B 502     -20.662  -8.849  -8.209  1.00140.95    -0.377 N 
HETATM   22  C7  MIQ B 502     -19.303  -9.330  -8.028  1.00142.12     0.149 C 
HETATM   23  C8  MIQ B 502     -18.797 -10.080  -9.254  1.00144.10     0.187 C 
HETATM   24  O9  MIQ B 502     -19.708 -11.028  -9.725  1.00148.65    -0.388 OA
HETATM   25  C10 MIQ B 502     -21.012 -11.065  -9.226  1.00147.44     0.187 C 
HETATM   26  C11 MIQ B 502     -21.650  -9.762  -8.755  1.00144.08     0.149 C 
ENDBRANCH   5  21
TORSDOF 2
ENDMDL
MODEL 4
REMARK VINA RESULT:      -6.3      2.322      8.503
REMARK  2 active torsions:
REMARK  status: ('A' for Active; 'I' for Inactive)
REMARK    1  A    between atoms: C5_5  and  N6_21 
REMARK    2  A    between atoms: C18_14  and  N17_19 
ROOT
HETATM    1  O1  MIQ B 502     -22.597  -6.231  -4.669  1.00142.91    -0.171 OA
HETATM    2  C2  MIQ B 502     -23.117  -5.048  -5.198  1.00141.17     0.195 A 
HETATM    3  C3  MIQ B 502     -23.844  -3.921  -4.397  1.00141.71     0.035 A 
HETATM    4  C4  MIQ B 502     -24.185  -3.746  -2.965  1.00142.86     0.046 A 
HETATM    5  C5  MIQ B 502     -24.866  -2.582  -2.527  1.00139.53     0.031 A 
HETATM    6  C12 MIQ B 502     -25.231  -1.553  -3.491  1.00139.38     0.030 A 
HETATM    7  C13 MIQ B 502     -24.903  -1.720  -4.863  1.00141.18     0.019 A 
HETATM    8  C14 MIQ B 502     -24.186  -2.943  -5.317  1.00138.77     0.033 A 
HETATM    9  C15 MIQ B 502     -23.668  -3.466  -6.696  1.00142.10     0.195 A 
HETATM   10  N17 MIQ B 502     -23.102  -4.636  -6.454  1.00139.42    -0.288 N 
HETATM   11  O16 MIQ B 502     -23.785  -2.824  -7.930  1.00148.93    -0.171 OA
ENDROOT
BRANCH  10  12
HETATM   12  C18 MIQ B 502     -22.517  -5.430  -7.519  1.00139.82     0.187 C 
HETATM   13  C19 MIQ B 502     -23.176  -6.814  -7.486  1.00140.06     0.247 C 
HETATM   14  O25 MIQ B 502     -24.353  -6.892  -7.475  1.00143.95    -0.271 OA
HETATM   15  N20 MIQ B 502     -22.392  -8.033  -7.475  1.00140.02    -0.296 N 
HETATM   16  H13 MIQ B 502     -22.834  -8.930  -7.447  1.00142.77     0.171 HD
HETATM   17  C21 MIQ B 502     -20.957  -7.912  -7.479  1.00142.22     0.224 C 
HETATM   18  C22 MIQ B 502     -20.372  -6.719  -6.748  1.00139.52     0.106 C 
HETATM   19  O24 MIQ B 502     -20.272  -8.702  -8.030  1.00146.13    -0.273 OA
HETATM   20  C23 MIQ B 502     -20.997  -5.483  -7.369  1.00139.15     0.045 C 
ENDBRANCH  10  12
BRANCH   5  21
HETATM   21  N6  MIQ B 502     -25.207  -2.430  -1.125  1.00140.95    -0.377 N 
HETATM   22  C7  MIQ B 502     -26.049  -1.314  -0.731  1.00142.12     0.149 C 
HETATM   23  C8  MIQ B 502     -25.804  -0.899   0.714  1.00144.10     0.187 C 
HETATM   24  O9  MIQ B 502     -25.797  -1.981   1.597  1.00148.65    -0.388 OA
HETATM   25  C10 MIQ B 502     -25.784  -3.291   1.110  1.00147.44     0.187 C 
HETATM   26  C11 MIQ B 502     -25.101  -3.566  -0.226  1.00144.08     0.149 C 
ENDBRANCH   5  21
TORSDOF 2
ENDMDL
MODEL 5
REMARK VINA RESULT:      -6.1     11.098     13.970
REMARK  2 active torsions:
REMARK  status: ('A' for Active; 'I' for Inactive)
REMARK    1  A    between atoms: C5_5  and  N6_21 
REMARK    2  A    between atoms: C18_14  and  N17_19 
ROOT
HETATM    1  O1  MIQ B 502     -27.861  -3.545 -15.489  1.00142.91    -0.171 OA
HETATM    2  C2  MIQ B 502     -29.223  -3.435 -15.775  1.00141.17     0.195 A 
HETATM    3  C3  MIQ B 502     -30.383  -3.370 -14.730  1.00141.71     0.035 A 
HETATM    4  C4  MIQ B 502     -30.422  -3.397 -13.249  1.00142.86     0.046 A 
HETATM    5  C5  MIQ B 502     -31.661  -3.317 -12.563  1.00139.53     0.031 A 
HETATM    6  C12 MIQ B 502     -32.900  -3.207 -13.320  1.00139.38     0.030 A 
HETATM    7  C13 MIQ B 502     -32.862  -3.180 -14.740  1.00141.18     0.019 A 
HETATM    8  C14 MIQ B 502     -31.559  -3.262 -15.454  1.00138.77     0.033 A 
HETATM    9  C15 MIQ B 502     -31.127  -3.259 -16.957  1.00142.10     0.195 A 
HETATM   10  N17 MIQ B 502     -29.808  -3.358 -16.958  1.00139.42    -0.288 N 
HETATM   11  O16 MIQ B 502     -31.967  -3.171 -18.068  1.00148.93    -0.171 OA
ENDROOT
BRANCH  10  12
HETATM   12  C18 MIQ B 502     -29.052  -3.402 -18.196  1.00139.82     0.187 C 
HETATM   13  C19 MIQ B 502     -28.196  -4.674 -18.178  1.00140.06     0.247 C 
HETATM   14  O25 MIQ B 502     -28.709  -5.709 -17.938  1.00143.95    -0.271 OA
HETATM   15  N20 MIQ B 502     -26.775  -4.642 -18.452  1.00140.02    -0.296 N 
HETATM   16  H13 MIQ B 502     -26.226  -5.479 -18.431  1.00142.77     0.171 HD
HETATM   17  C21 MIQ B 502     -26.170  -3.365 -18.732  1.00142.22     0.224 C 
HETATM   18  C22 MIQ B 502     -26.752  -2.164 -18.013  1.00139.52     0.106 C 
HETATM   19  O24 MIQ B 502     -25.269  -3.261 -19.490  1.00146.13    -0.273 OA
HETATM   20  C23 MIQ B 502     -28.229  -2.126 -18.362  1.00139.15     0.045 C 
ENDBRANCH  10  12
BRANCH   5  21
HETATM   21  N6  MIQ B 502     -31.686  -3.360 -11.113  1.00140.95    -0.377 N 
HETATM   22  C7  MIQ B 502     -32.632  -2.511 -10.409  1.00142.12     0.149 C 
HETATM   23  C8  MIQ B 502     -32.149  -2.162  -9.007  1.00144.10     0.187 C 
HETATM   24  O9  MIQ B 502     -31.701  -3.276  -8.293  1.00148.65    -0.388 OA
HETATM   25  C10 MIQ B 502     -31.521  -4.503  -8.937  1.00147.44     0.187 C 
HETATM   26  C11 MIQ B 502     -31.129  -4.504 -10.411  1.00144.08     0.149 C 
ENDBRANCH   5  21
TORSDOF 2
ENDMDL
MODEL 6
REMARK VINA RESULT:      -6.1      3.248      8.970
REMARK  2 active torsions:
REMARK  status: ('A' for Active; 'I' for Inactive)
REMARK    1  A    between atoms: C5_5  and  N6_21 
REMARK    2  A    between atoms: C18_14  and  N17_19 
ROOT
HETATM    1  O1  MIQ B 502     -22.763  -5.164  -3.309  1.00142.91    -0.171 OA
HETATM    2  C2  MIQ B 502     -23.355  -3.956  -3.684  1.00141.17     0.195 A 
HETATM    3  C3  MIQ B 502     -24.267  -3.059  -2.788  1.00141.71     0.035 A 
HETATM    4  C4  MIQ B 502     -24.753  -3.172  -1.393  1.00142.86     0.046 A 
HETATM    5  C5  MIQ B 502     -25.590  -2.169  -0.841  1.00139.53     0.031 A 
HETATM    6  C12 MIQ B 502     -25.972  -1.022  -1.651  1.00139.38     0.030 A 
HETATM    7  C13 MIQ B 502     -25.505  -0.912  -2.989  1.00141.18     0.019 A 
HETATM    8  C14 MIQ B 502     -24.625  -1.967  -3.562  1.00138.77     0.033 A 
HETATM    9  C15 MIQ B 502     -23.932  -2.188  -4.946  1.00142.10     0.195 A 
HETATM   10  N17 MIQ B 502     -23.269  -3.328  -4.844  1.00139.42    -0.288 N 
HETATM   11  O16 MIQ B 502     -24.003  -1.349  -6.059  1.00148.93    -0.171 OA
ENDROOT
BRANCH  10  12
HETATM   12  C18 MIQ B 502     -22.510  -3.865  -5.958  1.00139.82     0.187 C 
HETATM   13  C19 MIQ B 502     -22.961  -5.314  -6.178  1.00140.06     0.247 C 
HETATM   14  O25 MIQ B 502     -24.113  -5.550  -6.276  1.00143.95    -0.271 OA
HETATM   15  N20 MIQ B 502     -22.012  -6.403  -6.274  1.00140.02    -0.296 N 
HETATM   16  H13 MIQ B 502     -22.319  -7.346  -6.411  1.00142.77     0.171 HD
HETATM   17  C21 MIQ B 502     -20.612  -6.091  -6.141  1.00142.22     0.224 C 
HETATM   18  C22 MIQ B 502     -20.253  -4.956  -5.202  1.00139.52     0.106 C 
HETATM   19  O24 MIQ B 502     -19.786  -6.689  -6.739  1.00146.13    -0.273 OA
HETATM   20  C23 MIQ B 502     -21.011  -3.736  -5.691  1.00139.15     0.045 C 
ENDBRANCH  10  12
BRANCH   5  21
HETATM   21  N6  MIQ B 502     -26.070  -2.301   0.522  1.00140.95    -0.377 N 
HETATM   22  C7  MIQ B 502     -25.560  -3.390   1.336  1.00142.12     0.149 C 
HETATM   23  C8  MIQ B 502     -26.549  -3.802   2.420  1.00144.10     0.187 C 
HETATM   24  O9  MIQ B 502     -27.060  -2.714   3.131  1.00148.65    -0.388 OA
HETATM   25  C10 MIQ B 502     -26.830  -1.409   2.689  1.00147.44     0.187 C 
HETATM   26  C11 MIQ B 502     -26.674  -1.162   1.192  1.00144.08     0.149 C 
ENDBRANCH   5  21
TORSDOF 2
ENDMDL
MODEL 7
REMARK VINA RESULT:      -6.1     10.609     12.175
REMARK  2 active torsions:
REMARK  status: ('A' for Active; 'I' for Inactive)
REMARK    1  A    between atoms: C5_5  and  N6_21 
REMARK    2  A    between atoms: C18_14  and  N17_19 
ROOT
HETATM    1  O1  MIQ B 502     -26.363  -5.934 -18.134  1.00142.91    -0.171 OA
HETATM    2  C2  MIQ B 502     -27.341  -5.586 -17.199  1.00141.17     0.195 A 
HETATM    3  C3  MIQ B 502     -27.715  -6.391 -15.914  1.00141.71     0.035 A 
HETATM    4  C4  MIQ B 502     -27.212  -7.651 -15.318  1.00142.86     0.046 A 
HETATM    5  C5  MIQ B 502     -27.765  -8.143 -14.108  1.00139.53     0.031 A 
HETATM    6  C12 MIQ B 502     -28.831  -7.404 -13.448  1.00139.38     0.030 A 
HETATM    7  C13 MIQ B 502     -29.313  -6.195 -14.018  1.00141.18     0.019 A 
HETATM    8  C14 MIQ B 502     -28.728  -5.682 -15.288  1.00138.77     0.033 A 
HETATM    9  C15 MIQ B 502     -28.983  -4.431 -16.189  1.00142.10     0.195 A 
HETATM   10  N17 MIQ B 502     -28.134  -4.529 -17.199  1.00139.42    -0.288 N 
HETATM   11  O16 MIQ B 502     -29.920  -3.419 -15.969  1.00148.93    -0.171 OA
ENDROOT
BRANCH  10  12
HETATM   12  C18 MIQ B 502     -28.098  -3.536 -18.257  1.00139.82     0.187 C 
HETATM   13  C19 MIQ B 502     -28.043  -2.152 -17.598  1.00140.06     0.247 C 
HETATM   14  O25 MIQ B 502     -27.232  -1.941 -16.767  1.00143.95    -0.271 OA
HETATM   15  N20 MIQ B 502     -28.957  -1.092 -17.970  1.00140.02    -0.296 N 
HETATM   16  H13 MIQ B 502     -28.915  -0.195 -17.528  1.00142.77     0.171 HD
HETATM   17  C21 MIQ B 502     -29.945  -1.377 -18.979  1.00142.22     0.224 C 
HETATM   18  C22 MIQ B 502     -30.490  -2.792 -19.018  1.00139.52     0.106 C 
HETATM   19  O24 MIQ B 502     -30.308  -0.549 -19.740  1.00146.13    -0.273 OA
HETATM   20  C23 MIQ B 502     -29.294  -3.710 -19.191  1.00139.15     0.045 C 
ENDBRANCH  10  12
BRANCH   5  21
HETATM   21  N6  MIQ B 502     -27.272  -9.386 -13.544  1.00140.95    -0.377 N 
HETATM   22  C7  MIQ B 502     -26.628 -10.343 -14.427  1.00142.12     0.149 C 
HETATM   23  C8  MIQ B 502     -26.751 -11.770 -13.908  1.00144.10     0.187 C 
HETATM   24  O9  MIQ B 502     -26.419 -11.886 -12.557  1.00148.65    -0.388 OA
HETATM   25  C10 MIQ B 502     -26.233 -10.745 -11.772  1.00147.44     0.187 C 
HETATM   26  C11 MIQ B 502     -27.022  -9.487 -12.117  1.00144.08     0.149 C 
ENDBRANCH   5  21
TORSDOF 2
ENDMDL
MODEL 8
REMARK VINA RESULT:      -6.1     10.412     12.092
REMARK  2 active torsions:
REMARK  status: ('A' for Active; 'I' for Inactive)
REMARK    1  A    between atoms: C5_5  and  N6_21 
REMARK    2  A    between atoms: C18_14  and  N17_19 
ROOT
HETATM    1  O1  MIQ B 502     -29.891  -4.073 -13.830  1.00142.91    -0.171 OA
HETATM    2  C2  MIQ B 502     -29.146  -4.566 -14.904  1.00141.17     0.195 A 
HETATM    3  C3  MIQ B 502     -28.515  -5.991 -15.012  1.00141.71     0.035 A 
HETATM    4  C4  MIQ B 502     -28.499  -7.169 -14.112  1.00142.86     0.046 A 
HETATM    5  C5  MIQ B 502     -27.824  -8.355 -14.497  1.00139.53     0.031 A 
HETATM    6  C12 MIQ B 502     -27.145  -8.415 -15.783  1.00139.38     0.030 A 
HETATM    7  C13 MIQ B 502     -27.161  -7.287 -16.646  1.00141.18     0.019 A 
HETATM    8  C14 MIQ B 502     -27.873  -6.045 -16.238  1.00138.77     0.033 A 
HETATM    9  C15 MIQ B 502     -28.107  -4.646 -16.896  1.00142.10     0.195 A 
HETATM   10  N17 MIQ B 502     -28.829  -3.952 -16.031  1.00139.42    -0.288 N 
HETATM   11  O16 MIQ B 502     -27.644  -4.220 -18.142  1.00148.93    -0.171 OA
ENDROOT
BRANCH  10  12
HETATM   12  C18 MIQ B 502     -29.228  -2.583 -16.303  1.00139.82     0.187 C 
HETATM   13  C19 MIQ B 502     -29.904  -2.558 -17.680  1.00140.06     0.247 C 
HETATM   14  O25 MIQ B 502     -30.772  -3.324 -17.909  1.00143.95    -0.271 OA
HETATM   15  N20 MIQ B 502     -29.511  -1.615 -18.707  1.00140.02    -0.296 N 
HETATM   16  H13 MIQ B 502     -29.956  -1.614 -19.603  1.00142.77     0.171 HD
HETATM   17  C21 MIQ B 502     -28.442  -0.698 -18.406  1.00142.22     0.224 C 
HETATM   18  C22 MIQ B 502     -27.344  -1.207 -17.492  1.00139.52     0.106 C 
HETATM   19  O24 MIQ B 502     -28.427   0.398 -18.848  1.00146.13    -0.273 OA
HETATM   20  C23 MIQ B 502     -28.022  -1.649 -16.209  1.00139.15     0.045 C 
ENDBRANCH  10  12
BRANCH   5  21
HETATM   21  N6  MIQ B 502     -27.804  -9.496 -13.599  1.00140.95    -0.377 N 
HETATM   22  C7  MIQ B 502     -26.643  -9.689 -12.748  1.00142.12     0.149 C 
HETATM   23  C8  MIQ B 502     -26.446 -11.153 -12.378  1.00144.10     0.187 C 
HETATM   24  O9  MIQ B 502     -27.620 -11.764 -11.934  1.00148.65    -0.388 OA
HETATM   25  C10 MIQ B 502     -28.850 -11.113 -12.065  1.00147.44     0.187 C 
HETATM   26  C11 MIQ B 502     -29.046 -10.153 -13.233  1.00144.08     0.149 C 
ENDBRANCH   5  21
TORSDOF 2
ENDMDL
MODEL 9
REMARK VINA RESULT:      -6.0     13.721     16.225
REMARK  2 active torsions:
REMARK  status: ('A' for Active; 'I' for Inactive)
REMARK    1  A    between atoms: C5_5  and  N6_21 
REMARK    2  A    between atoms: C18_14  and  N17_19 
ROOT
HETATM    1  O1  MIQ B 502     -29.255  -2.073 -18.920  1.00142.91    -0.171 OA
HETATM    2  C2  MIQ B 502     -29.805  -2.574 -17.738  1.00141.17     0.195 A 
HETATM    3  C3  MIQ B 502     -31.287  -2.416 -17.271  1.00141.71     0.035 A 
HETATM    4  C4  MIQ B 502     -32.477  -1.758 -17.861  1.00142.86     0.046 A 
HETATM    5  C5  MIQ B 502     -33.721  -1.785 -17.183  1.00139.53     0.031 A 
HETATM    6  C12 MIQ B 502     -33.830  -2.464 -15.899  1.00139.38     0.030 A 
HETATM    7  C13 MIQ B 502     -32.690  -3.096 -15.334  1.00141.18     0.019 A 
HETATM    8  C14 MIQ B 502     -31.386  -3.066 -16.052  1.00138.77     0.033 A 
HETATM    9  C15 MIQ B 502     -29.958  -3.632 -15.761  1.00142.10     0.195 A 
HETATM   10  N17 MIQ B 502     -29.207  -3.274 -16.789  1.00139.42    -0.288 N 
HETATM   11  O16 MIQ B 502     -29.561  -4.363 -14.640  1.00148.93    -0.171 OA
ENDROOT
BRANCH  10  12
HETATM   12  C18 MIQ B 502     -27.799  -3.618 -16.854  1.00139.82     0.187 C 
HETATM   13  C19 MIQ B 502     -27.015  -2.328 -17.124  1.00140.06     0.247 C 
HETATM   14  O25 MIQ B 502     -27.206  -1.384 -16.442  1.00143.95    -0.271 OA
HETATM   15  N20 MIQ B 502     -26.038  -2.236 -18.190  1.00140.02    -0.296 N 
HETATM   16  H13 MIQ B 502     -25.538  -1.386 -18.360  1.00142.77     0.171 HD
HETATM   17  C21 MIQ B 502     -25.829  -3.398 -19.015  1.00142.22     0.224 C 
HETATM   18  C22 MIQ B 502     -27.038  -4.277 -19.272  1.00139.52     0.106 C 
HETATM   19  O24 MIQ B 502     -24.766  -3.654 -19.464  1.00146.13    -0.273 OA
HETATM   20  C23 MIQ B 502     -27.563  -4.696 -17.911  1.00139.15     0.045 C 
ENDBRANCH  10  12
BRANCH   5  21
HETATM   21  N6  MIQ B 502     -34.874  -1.123 -17.765  1.00140.95    -0.377 N 
HETATM   22  C7  MIQ B 502     -34.653   0.008 -18.649  1.00142.12     0.149 C 
HETATM   23  C8  MIQ B 502     -35.840   0.963 -18.659  1.00144.10     0.187 C 
HETATM   24  O9  MIQ B 502     -37.063   0.308 -18.823  1.00148.65    -0.388 OA
HETATM   25  C10 MIQ B 502     -37.135  -1.085 -18.741  1.00147.44     0.187 C 
HETATM   26  C11 MIQ B 502     -36.149  -1.816 -17.836  1.00144.08     0.149 C 
ENDBRANCH   5  21
TORSDOF 2
ENDMDL
