MODEL 1
REMARK VINA RESULT:      -6.0      0.000      0.000
REMARK  2 active torsions:
REMARK  status: ('A' for Active; 'I' for Inactive)
REMARK    1  A    between atoms: C5_5  and  N6_21 
REMARK    2  A    between atoms: C18_14  and  N17_19 
ROOT
HETATM    1  O1  MIQ B 502     -16.539 -20.271  11.939  1.00142.91    -0.171 OA
HETATM    2  C2  MIQ B 502     -17.817 -20.835  11.954  1.00141.17     0.195 A 
HETATM    3  C3  MIQ B 502     -18.223 -22.217  11.349  1.00141.71     0.035 A 
HETATM    4  C4  MIQ B 502     -17.471 -23.278  10.638  1.00142.86     0.046 A 
HETATM    5  C5  MIQ B 502     -18.132 -24.453  10.199  1.00139.53     0.031 A 
HETATM    6  C12 MIQ B 502     -19.557 -24.617  10.449  1.00139.38     0.030 A 
HETATM    7  C13 MIQ B 502     -20.278 -23.600  11.132  1.00141.18     0.019 A 
HETATM    8  C14 MIQ B 502     -19.578 -22.370  11.593  1.00138.77     0.033 A 
HETATM    9  C15 MIQ B 502     -20.016 -21.076  12.354  1.00142.10     0.195 A 
HETATM   10  N17 MIQ B 502     -18.925 -20.336  12.474  1.00139.42    -0.288 N 
HETATM   11  O16 MIQ B 502     -21.299 -20.768  12.810  1.00148.93    -0.171 OA
ENDROOT
BRANCH  10  12
HETATM   12  C18 MIQ B 502     -18.958 -19.039  13.123  1.00139.82     0.187 C 
HETATM   13  C19 MIQ B 502     -18.341 -18.018  12.160  1.00140.06     0.247 C 
HETATM   14  O25 MIQ B 502     -18.733 -17.964  11.049  1.00143.95    -0.271 OA
HETATM   15  N20 MIQ B 502     -17.291 -17.111  12.577  1.00140.02    -0.296 N 
HETATM   16  H13 MIQ B 502     -16.892 -16.454  11.937  1.00142.77     0.171 HD
HETATM   17  C21 MIQ B 502     -16.821 -17.203  13.936  1.00142.22     0.224 C 
HETATM   18  C22 MIQ B 502     -16.819 -18.584  14.564  1.00139.52     0.106 C 
HETATM   19  O24 MIQ B 502     -16.461 -16.248  14.531  1.00146.13    -0.273 OA
HETATM   20  C23 MIQ B 502     -18.243 -19.101  14.472  1.00139.15     0.045 C 
ENDBRANCH  10  12
BRANCH   5  21
HETATM   21  N6  MIQ B 502     -17.387 -25.477   9.491  1.00140.95    -0.377 N 
HETATM   22  C7  MIQ B 502     -17.584 -25.614   8.058  1.00142.12     0.149 C 
HETATM   23  C8  MIQ B 502     -17.296 -27.030   7.577  1.00144.10     0.187 C 
HETATM   24  O9  MIQ B 502     -16.088 -27.534   8.064  1.00148.65    -0.388 OA
HETATM   25  C10 MIQ B 502     -15.390 -26.854   9.064  1.00147.44     0.187 C 
HETATM   26  C11 MIQ B 502     -16.181 -26.034  10.078  1.00144.08     0.149 C 
ENDBRANCH   5  21
TORSDOF 2
ENDMDL
MODEL 2
REMARK VINA RESULT:      -6.0     21.472     23.689
REMARK  2 active torsions:
REMARK  status: ('A' for Active; 'I' for Inactive)
REMARK    1  A    between atoms: C5_5  and  N6_21 
REMARK    2  A    between atoms: C18_14  and  N17_19 
ROOT
HETATM    1  O1  MIQ B 502       4.581 -11.922   9.682  1.00142.91    -0.171 OA
HETATM    2  C2  MIQ B 502       4.326 -13.015   8.851  1.00141.17     0.195 A 
HETATM    3  C3  MIQ B 502       3.129 -14.011   8.978  1.00141.71     0.035 A 
HETATM    4  C4  MIQ B 502       1.987 -14.117   9.917  1.00142.86     0.046 A 
HETATM    5  C5  MIQ B 502       1.035 -15.158   9.773  1.00139.53     0.031 A 
HETATM    6  C12 MIQ B 502       1.181 -16.127   8.696  1.00139.38     0.030 A 
HETATM    7  C13 MIQ B 502       2.276 -16.025   7.796  1.00141.18     0.019 A 
HETATM    8  C14 MIQ B 502       3.270 -14.929   7.950  1.00138.77     0.033 A 
HETATM    9  C15 MIQ B 502       4.562 -14.500   7.180  1.00142.10     0.195 A 
HETATM   10  N17 MIQ B 502       5.020 -13.427   7.804  1.00139.42    -0.288 N 
HETATM   11  O16 MIQ B 502       5.116 -15.128   6.063  1.00148.93    -0.171 OA
ENDROOT
BRANCH  10  12
HETATM   12  C18 MIQ B 502       6.231 -12.758   7.369  1.00139.82     0.187 C 
HETATM   13  C19 MIQ B 502       7.172 -12.662   8.576  1.00140.06     0.247 C 
HETATM   14  O25 MIQ B 502       7.407 -13.634   9.202  1.00143.95    -0.271 OA
HETATM   15  N20 MIQ B 502       7.787 -11.410   8.968  1.00140.02    -0.296 N 
HETATM   16  H13 MIQ B 502       8.394 -11.360   9.762  1.00142.77     0.171 HD
HETATM   17  C21 MIQ B 502       7.477 -10.235   8.195  1.00142.22     0.224 C 
HETATM   18  C22 MIQ B 502       6.081 -10.154   7.609  1.00139.52     0.106 C 
HETATM   19  O24 MIQ B 502       8.275  -9.381   8.022  1.00146.13    -0.273 OA
HETATM   20  C23 MIQ B 502       5.897 -11.398   6.758  1.00139.15     0.045 C 
ENDBRANCH  10  12
BRANCH   5  21
HETATM   21  N6  MIQ B 502      -0.070 -15.259  10.709  1.00140.95    -0.377 N 
HETATM   22  C7  MIQ B 502      -1.032 -16.333  10.534  1.00142.12     0.149 C 
HETATM   23  C8  MIQ B 502      -2.398 -15.972  11.105  1.00144.10     0.187 C 
HETATM   24  O9  MIQ B 502      -2.325 -15.440  12.393  1.00148.65    -0.388 OA
HETATM   25  C10 MIQ B 502      -1.090 -15.085  12.944  1.00147.44     0.187 C 
HETATM   26  C11 MIQ B 502       0.018 -14.614  12.007  1.00144.08     0.149 C 
ENDBRANCH   5  21
TORSDOF 2
ENDMDL
MODEL 3
REMARK VINA RESULT:      -5.8      1.958      7.971
REMARK  2 active torsions:
REMARK  status: ('A' for Active; 'I' for Inactive)
REMARK    1  A    between atoms: C5_5  and  N6_21 
REMARK    2  A    between atoms: C18_14  and  N17_19 
ROOT
HETATM    1  O1  MIQ B 502     -16.337 -24.798  10.053  1.00142.91    -0.171 OA
HETATM    2  C2  MIQ B 502     -17.608 -24.342  10.411  1.00141.17     0.195 A 
HETATM    3  C3  MIQ B 502     -17.933 -23.011  11.161  1.00141.71     0.035 A 
HETATM    4  C4  MIQ B 502     -17.095 -21.905  11.684  1.00142.86     0.046 A 
HETATM    5  C5  MIQ B 502     -17.695 -20.798  12.335  1.00139.53     0.031 A 
HETATM    6  C12 MIQ B 502     -19.142 -20.748  12.490  1.00139.38     0.030 A 
HETATM    7  C13 MIQ B 502     -19.945 -21.807  11.989  1.00141.18     0.019 A 
HETATM    8  C14 MIQ B 502     -19.310 -22.966  11.303  1.00138.77     0.033 A 
HETATM    9  C15 MIQ B 502     -19.843 -24.276  10.638  1.00142.10     0.195 A 
HETATM   10  N17 MIQ B 502     -18.777 -24.921  10.194  1.00139.42    -0.288 N 
HETATM   11  O16 MIQ B 502     -21.176 -24.680  10.537  1.00148.93    -0.171 OA
ENDROOT
BRANCH  10  12
HETATM   12  C18 MIQ B 502     -18.890 -26.203   9.525  1.00139.82     0.187 C 
HETATM   13  C19 MIQ B 502     -17.970 -27.192  10.250  1.00140.06     0.247 C 
HETATM   14  O25 MIQ B 502     -18.048 -27.299  11.422  1.00143.95    -0.271 OA
HETATM   15  N20 MIQ B 502     -17.009 -28.006   9.534  1.00140.02    -0.296 N 
HETATM   16  H13 MIQ B 502     -16.409 -28.644  10.020  1.00142.77     0.171 HD
HETATM   17  C21 MIQ B 502     -16.924 -27.851   8.105  1.00142.22     0.224 C 
HETATM   18  C22 MIQ B 502     -17.185 -26.462   7.554  1.00139.52     0.106 C 
HETATM   19  O24 MIQ B 502     -16.670 -28.763   7.398  1.00146.13    -0.273 OA
HETATM   20  C23 MIQ B 502     -18.566 -26.058   8.039  1.00139.15     0.045 C 
ENDBRANCH  10  12
BRANCH   5  21
HETATM   21  N6  MIQ B 502     -16.862 -19.729  12.855  1.00140.95    -0.377 N 
HETATM   22  C7  MIQ B 502     -17.507 -18.579  13.465  1.00142.12     0.149 C 
HETATM   23  C8  MIQ B 502     -16.645 -17.327  13.369  1.00144.10     0.187 C 
HETATM   24  O9  MIQ B 502     -15.323 -17.546  13.759  1.00148.65    -0.388 OA
HETATM   25  C10 MIQ B 502     -14.854 -18.844  13.974  1.00147.44     0.187 C 
HETATM   26  C11 MIQ B 502     -15.466 -19.984  13.166  1.00144.08     0.149 C 
ENDBRANCH   5  21
TORSDOF 2
ENDMDL
MODEL 4
REMARK VINA RESULT:      -5.7      1.844      7.896
REMARK  2 active torsions:
REMARK  status: ('A' for Active; 'I' for Inactive)
REMARK    1  A    between atoms: C5_5  and  N6_21 
REMARK    2  A    between atoms: C18_14  and  N17_19 
ROOT
HETATM    1  O1  MIQ B 502     -16.857 -23.793  10.034  1.00142.91    -0.171 OA
HETATM    2  C2  MIQ B 502     -18.141 -23.584  10.544  1.00141.17     0.195 A 
HETATM    3  C3  MIQ B 502     -18.629 -22.322  11.322  1.00141.71     0.035 A 
HETATM    4  C4  MIQ B 502     -17.970 -21.059  11.734  1.00142.86     0.046 A 
HETATM    5  C5  MIQ B 502     -18.694 -20.073  12.450  1.00139.53     0.031 A 
HETATM    6  C12 MIQ B 502     -20.093 -20.302  12.781  1.00139.38     0.030 A 
HETATM    7  C13 MIQ B 502     -20.726 -21.511  12.386  1.00141.18     0.019 A 
HETATM    8  C14 MIQ B 502     -19.961 -22.542  11.633  1.00138.77     0.033 A 
HETATM    9  C15 MIQ B 502     -20.302 -23.950  11.043  1.00142.10     0.195 A 
HETATM   10  N17 MIQ B 502     -19.190 -24.386  10.474  1.00139.42    -0.288 N 
HETATM   11  O16 MIQ B 502     -21.530 -24.609  11.109  1.00148.93    -0.171 OA
ENDROOT
BRANCH  10  12
HETATM   12  C18 MIQ B 502     -19.128 -25.684   9.829  1.00139.82     0.187 C 
HETATM   13  C19 MIQ B 502     -18.002 -26.484  10.495  1.00140.06     0.247 C 
HETATM   14  O25 MIQ B 502     -17.978 -26.575  11.671  1.00143.95    -0.271 OA
HETATM   15  N20 MIQ B 502     -16.968 -27.138   9.720  1.00140.02    -0.296 N 
HETATM   16  H13 MIQ B 502     -16.234 -27.652  10.167  1.00142.77     0.171 HD
HETATM   17  C21 MIQ B 502     -17.013 -27.004   8.286  1.00142.22     0.224 C 
HETATM   18  C22 MIQ B 502     -17.547 -25.693   7.741  1.00139.52     0.106 C 
HETATM   19  O24 MIQ B 502     -16.655 -27.875   7.573  1.00146.13    -0.273 OA
HETATM   20  C23 MIQ B 502     -18.939 -25.520   8.322  1.00139.15     0.045 C 
ENDBRANCH  10  12
BRANCH   5  21
HETATM   21  N6  MIQ B 502     -18.031 -18.848  12.859  1.00140.95    -0.377 N 
HETATM   22  C7  MIQ B 502     -16.619 -18.687  12.556  1.00142.12     0.149 C 
HETATM   23  C8  MIQ B 502     -15.930 -17.751  13.540  1.00144.10     0.187 C 
HETATM   24  O9  MIQ B 502     -16.635 -16.563  13.746  1.00148.65    -0.388 OA
HETATM   25  C10 MIQ B 502     -17.935 -16.419  13.256  1.00147.44     0.187 C 
HETATM   26  C11 MIQ B 502     -18.816 -17.660  13.146  1.00144.08     0.149 C 
ENDBRANCH   5  21
TORSDOF 2
ENDMDL
MODEL 5
REMARK VINA RESULT:      -5.7     21.231     23.853
REMARK  2 active torsions:
REMARK  status: ('A' for Active; 'I' for Inactive)
REMARK    1  A    between atoms: C5_5  and  N6_21 
REMARK    2  A    between atoms: C18_14  and  N17_19 
ROOT
HETATM    1  O1  MIQ B 502      -0.479 -26.491  -4.072  1.00142.91    -0.171 OA
HETATM    2  C2  MIQ B 502      -1.689 -25.800  -3.975  1.00141.17     0.195 A 
HETATM    3  C3  MIQ B 502      -1.889 -24.261  -4.154  1.00141.71     0.035 A 
HETATM    4  C4  MIQ B 502      -0.966 -23.142  -4.456  1.00142.86     0.046 A 
HETATM    5  C5  MIQ B 502      -1.458 -21.816  -4.561  1.00139.53     0.031 A 
HETATM    6  C12 MIQ B 502      -2.877 -21.554  -4.370  1.00139.38     0.030 A 
HETATM    7  C13 MIQ B 502      -3.763 -22.627  -4.081  1.00141.18     0.019 A 
HETATM    8  C14 MIQ B 502      -3.241 -24.017  -3.975  1.00138.77     0.033 A 
HETATM    9  C15 MIQ B 502      -3.884 -25.413  -3.684  1.00142.10     0.195 A 
HETATM   10  N17 MIQ B 502      -2.892 -26.287  -3.723  1.00139.42    -0.288 N 
HETATM   11  O16 MIQ B 502      -5.232 -25.676  -3.432  1.00148.93    -0.171 OA
ENDROOT
BRANCH  10  12
HETATM   12  C18 MIQ B 502      -3.117 -27.700  -3.480  1.00139.82     0.187 C 
HETATM   13  C19 MIQ B 502      -2.160 -28.141  -2.366  1.00140.06     0.247 C 
HETATM   14  O25 MIQ B 502      -2.119 -27.523  -1.363  1.00143.95    -0.271 OA
HETATM   15  N20 MIQ B 502      -1.305 -29.302  -2.509  1.00140.02    -0.296 N 
HETATM   16  H13 MIQ B 502      -0.680 -29.576  -1.778  1.00142.77     0.171 HD
HETATM   17  C21 MIQ B 502      -1.365 -30.035  -3.748  1.00142.22     0.224 C 
HETATM   18  C22 MIQ B 502      -1.636 -29.229  -5.004  1.00139.52     0.106 C 
HETATM   19  O24 MIQ B 502      -1.216 -31.207  -3.780  1.00146.13    -0.273 OA
HETATM   20  C23 MIQ B 502      -2.944 -28.496  -4.772  1.00139.15     0.045 C 
ENDBRANCH  10  12
BRANCH   5  21
HETATM   21  N6  MIQ B 502      -0.540 -20.727  -4.843  1.00140.95    -0.377 N 
HETATM   22  C7  MIQ B 502       0.455 -20.380  -3.842  1.00142.12     0.149 C 
HETATM   23  C8  MIQ B 502       0.879 -18.921  -3.944  1.00144.10     0.187 C 
HETATM   24  O9  MIQ B 502       1.185 -18.533  -5.250  1.00148.65    -0.388 OA
HETATM   25  C10 MIQ B 502       0.887 -19.373  -6.325  1.00147.44     0.187 C 
HETATM   26  C11 MIQ B 502      -0.318 -20.302  -6.214  1.00144.08     0.149 C 
ENDBRANCH   5  21
TORSDOF 2
ENDMDL
MODEL 6
REMARK VINA RESULT:      -5.7     21.284     23.368
REMARK  2 active torsions:
REMARK  status: ('A' for Active; 'I' for Inactive)
REMARK    1  A    between atoms: C5_5  and  N6_21 
REMARK    2  A    between atoms: C18_14  and  N17_19 
ROOT
HETATM    1  O1  MIQ B 502       4.467 -12.544  10.966  1.00142.91    -0.171 OA
HETATM    2  C2  MIQ B 502       4.167 -13.306   9.834  1.00141.17     0.195 A 
HETATM    3  C3  MIQ B 502       3.020 -14.358   9.707  1.00141.71     0.035 A 
HETATM    4  C4  MIQ B 502       1.978 -14.847  10.640  1.00142.86     0.046 A 
HETATM    5  C5  MIQ B 502       1.050 -15.835  10.225  1.00139.53     0.031 A 
HETATM    6  C12 MIQ B 502       1.123 -16.372   8.874  1.00139.38     0.030 A 
HETATM    7  C13 MIQ B 502       2.122 -15.903   7.978  1.00141.18     0.019 A 
HETATM    8  C14 MIQ B 502       3.091 -14.864   8.419  1.00138.77     0.033 A 
HETATM    9  C15 MIQ B 502       4.289 -14.120   7.742  1.00142.10     0.195 A 
HETATM   10  N17 MIQ B 502       4.770 -13.295   8.657  1.00139.42    -0.288 N 
HETATM   11  O16 MIQ B 502       4.753 -14.297   6.438  1.00148.93    -0.171 OA
ENDROOT
BRANCH  10  12
HETATM   12  C18 MIQ B 502       5.913 -12.443   8.383  1.00139.82     0.187 C 
HETATM   13  C19 MIQ B 502       5.569 -11.578   7.164  1.00140.06     0.247 C 
HETATM   14  O25 MIQ B 502       4.556 -10.973   7.154  1.00143.95    -0.271 OA
HETATM   15  N20 MIQ B 502       6.457 -11.477   6.024  1.00140.02    -0.296 N 
HETATM   16  H13 MIQ B 502       6.218 -10.914   5.232  1.00142.77     0.171 HD
HETATM   17  C21 MIQ B 502       7.682 -12.233   6.055  1.00142.22     0.224 C 
HETATM   18  C22 MIQ B 502       7.640 -13.570   6.770  1.00139.52     0.106 C 
HETATM   19  O24 MIQ B 502       8.672 -11.827   5.552  1.00146.13    -0.273 OA
HETATM   20  C23 MIQ B 502       7.170 -13.288   8.185  1.00139.15     0.045 C 
ENDBRANCH  10  12
BRANCH   5  21
HETATM   21  N6  MIQ B 502       0.044 -16.315  11.155  1.00140.95    -0.377 N 
HETATM   22  C7  MIQ B 502      -1.357 -16.180  10.793  1.00142.12     0.149 C 
HETATM   23  C8  MIQ B 502      -2.256 -16.099  12.020  1.00144.10     0.187 C 
HETATM   24  O9  MIQ B 502      -1.976 -17.089  12.964  1.00148.65    -0.388 OA
HETATM   25  C10 MIQ B 502      -0.833 -17.882  12.841  1.00147.44     0.187 C 
HETATM   26  C11 MIQ B 502       0.403 -17.283  12.177  1.00144.08     0.149 C 
ENDBRANCH   5  21
TORSDOF 2
ENDMDL
MODEL 7
REMARK VINA RESULT:      -5.7     21.244     23.222
REMARK  2 active torsions:
REMARK  status: ('A' for Active; 'I' for Inactive)
REMARK    1  A    between atoms: C5_5  and  N6_21 
REMARK    2  A    between atoms: C18_14  and  N17_19 
ROOT
HETATM    1  O1  MIQ B 502       0.806 -24.412  -5.623  1.00142.91    -0.171 OA
HETATM    2  C2  MIQ B 502      -0.229 -23.677  -5.041  1.00141.17     0.195 A 
HETATM    3  C3  MIQ B 502      -1.630 -24.228  -4.623  1.00141.71     0.035 A 
HETATM    4  C4  MIQ B 502      -2.260 -25.567  -4.692  1.00142.86     0.046 A 
HETATM    5  C5  MIQ B 502      -3.582 -25.763  -4.219  1.00139.53     0.031 A 
HETATM    6  C12 MIQ B 502      -4.324 -24.640  -3.662  1.00139.38     0.030 A 
HETATM    7  C13 MIQ B 502      -3.719 -23.356  -3.594  1.00141.18     0.019 A 
HETATM    8  C14 MIQ B 502      -2.330 -23.157  -4.090  1.00138.77     0.033 A 
HETATM    9  C15 MIQ B 502      -1.358 -21.936  -4.177  1.00142.10     0.195 A 
HETATM   10  N17 MIQ B 502      -0.244 -22.394  -4.723  1.00139.42    -0.288 N 
HETATM   11  O16 MIQ B 502      -1.620 -20.628  -3.764  1.00148.93    -0.171 OA
ENDROOT
BRANCH  10  12
HETATM   12  C18 MIQ B 502       0.890 -21.523  -4.975  1.00139.82     0.187 C 
HETATM   13  C19 MIQ B 502       1.106 -20.664  -3.724  1.00140.06     0.247 C 
HETATM   14  O25 MIQ B 502       1.181 -21.189  -2.670  1.00143.95    -0.271 OA
HETATM   15  N20 MIQ B 502       1.229 -19.222  -3.799  1.00140.02    -0.296 N 
HETATM   16  H13 MIQ B 502       1.364 -18.672  -2.974  1.00142.77     0.171 HD
HETATM   17  C21 MIQ B 502       1.125 -18.603  -5.095  1.00142.22     0.224 C 
HETATM   18  C22 MIQ B 502       0.188 -19.260  -6.090  1.00139.52     0.106 C 
HETATM   19  O24 MIQ B 502       1.744 -17.634  -5.369  1.00146.13    -0.273 OA
HETATM   20  C23 MIQ B 502       0.654 -20.697  -6.238  1.00139.15     0.045 C 
ENDBRANCH  10  12
BRANCH   5  21
HETATM   21  N6  MIQ B 502      -4.192 -27.077  -4.307  1.00140.95    -0.377 N 
HETATM   22  C7  MIQ B 502      -4.586 -27.574  -5.614  1.00142.12     0.149 C 
HETATM   23  C8  MIQ B 502      -5.729 -28.576  -5.521  1.00144.10     0.187 C 
HETATM   24  O9  MIQ B 502      -5.515 -29.556  -4.549  1.00148.65    -0.388 OA
HETATM   25  C10 MIQ B 502      -4.461 -29.433  -3.640  1.00147.44     0.187 C 
HETATM   26  C11 MIQ B 502      -4.012 -28.034  -3.230  1.00144.08     0.149 C 
ENDBRANCH   5  21
TORSDOF 2
ENDMDL
MODEL 8
REMARK VINA RESULT:      -5.7      2.077      8.520
REMARK  2 active torsions:
REMARK  status: ('A' for Active; 'I' for Inactive)
REMARK    1  A    between atoms: C5_5  and  N6_21 
REMARK    2  A    between atoms: C18_14  and  N17_19 
ROOT
HETATM    1  O1  MIQ B 502     -20.913 -24.565  10.587  1.00142.91    -0.171 OA
HETATM    2  C2  MIQ B 502     -19.532 -24.357  10.549  1.00141.17     0.195 A 
HETATM    3  C3  MIQ B 502     -18.781 -23.072  11.021  1.00141.71     0.035 A 
HETATM    4  C4  MIQ B 502     -19.229 -21.785  11.605  1.00142.86     0.046 A 
HETATM    5  C5  MIQ B 502     -18.285 -20.783  11.942  1.00139.53     0.031 A 
HETATM    6  C12 MIQ B 502     -16.867 -21.020  11.712  1.00139.38     0.030 A 
HETATM    7  C13 MIQ B 502     -16.436 -22.253  11.153  1.00141.18     0.019 A 
HETATM    8  C14 MIQ B 502     -17.432 -23.303  10.804  1.00138.77     0.033 A 
HETATM    9  C15 MIQ B 502     -17.346 -24.740  10.194  1.00142.10     0.195 A 
HETATM   10  N17 MIQ B 502     -18.591 -25.182  10.123  1.00139.42    -0.288 N 
HETATM   11  O16 MIQ B 502     -16.188 -25.415   9.804  1.00148.93    -0.171 OA
ENDROOT
BRANCH  10  12
HETATM   12  C18 MIQ B 502     -18.900 -26.494   9.585  1.00139.82     0.187 C 
HETATM   13  C19 MIQ B 502     -18.043 -27.521  10.336  1.00140.06     0.247 C 
HETATM   14  O25 MIQ B 502     -18.042 -27.518  11.515  1.00143.95    -0.271 OA
HETATM   15  N20 MIQ B 502     -17.238 -28.500   9.636  1.00140.02    -0.296 N 
HETATM   16  H13 MIQ B 502     -16.677 -29.161  10.137  1.00142.77     0.171 HD
HETATM   17  C21 MIQ B 502     -17.247 -28.477   8.196  1.00142.22     0.224 C 
HETATM   18  C22 MIQ B 502     -17.392 -27.119   7.537  1.00139.52     0.106 C 
HETATM   19  O24 MIQ B 502     -17.152 -29.469   7.561  1.00146.13    -0.273 OA
HETATM   20  C23 MIQ B 502     -18.677 -26.514   8.074  1.00139.15     0.045 C 
ENDBRANCH  10  12
BRANCH   5  21
HETATM   21  N6  MIQ B 502     -18.739 -19.522  12.499  1.00140.95    -0.377 N 
HETATM   22  C7  MIQ B 502     -18.411 -18.294  11.797  1.00142.12     0.149 C 
HETATM   23  C8  MIQ B 502     -18.353 -17.098  12.740  1.00144.10     0.187 C 
HETATM   24  O9  MIQ B 502     -19.459 -17.023  13.589  1.00148.65    -0.388 OA
HETATM   25  C10 MIQ B 502     -20.359 -18.087  13.675  1.00147.44     0.187 C 
HETATM   26  C11 MIQ B 502     -19.839 -19.503  13.447  1.00144.08     0.149 C 
ENDBRANCH   5  21
TORSDOF 2
ENDMDL
MODEL 9
REMARK VINA RESULT:      -5.6     19.969     22.762
REMARK  2 active torsions:
REMARK  status: ('A' for Active; 'I' for Inactive)
REMARK    1  A    between atoms: C5_5  and  N6_21 
REMARK    2  A    between atoms: C18_14  and  N17_19 
ROOT
HETATM    1  O1  MIQ B 502       1.236 -14.773  12.332  1.00142.91    -0.171 OA
HETATM    2  C2  MIQ B 502       1.460 -14.767  10.953  1.00141.17     0.195 A 
HETATM    3  C3  MIQ B 502       2.409 -13.799  10.177  1.00141.71     0.035 A 
HETATM    4  C4  MIQ B 502       3.295 -12.688  10.597  1.00142.86     0.046 A 
HETATM    5  C5  MIQ B 502       4.056 -11.976   9.635  1.00139.53     0.031 A 
HETATM    6  C12 MIQ B 502       3.966 -12.341   8.228  1.00139.38     0.030 A 
HETATM    7  C13 MIQ B 502       3.118 -13.407   7.826  1.00141.18     0.019 A 
HETATM    8  C14 MIQ B 502       2.323 -14.152   8.841  1.00138.77     0.033 A 
HETATM    9  C15 MIQ B 502       1.315 -15.347   8.786  1.00142.10     0.195 A 
HETATM   10  N17 MIQ B 502       0.936 -15.561  10.035  1.00139.42    -0.288 N 
HETATM   11  O16 MIQ B 502       0.902 -16.040   7.648  1.00148.93    -0.171 OA
ENDROOT
BRANCH  10  12
HETATM   12  C18 MIQ B 502      -0.022 -16.599  10.368  1.00139.82     0.187 C 
HETATM   13  C19 MIQ B 502      -1.097 -15.974  11.265  1.00140.06     0.247 C 
HETATM   14  O25 MIQ B 502      -1.629 -14.980  10.918  1.00143.95    -0.271 OA
HETATM   15  N20 MIQ B 502      -1.484 -16.573  12.525  1.00140.02    -0.296 N 
HETATM   16  H13 MIQ B 502      -2.184 -16.151  13.104  1.00142.77     0.171 HD
HETATM   17  C21 MIQ B 502      -0.814 -17.781  12.932  1.00142.22     0.224 C 
HETATM   18  C22 MIQ B 502       0.642 -17.920  12.530  1.00139.52     0.106 C 
HETATM   19  O24 MIQ B 502      -1.374 -18.623  13.544  1.00146.13    -0.273 OA
HETATM   20  C23 MIQ B 502       0.687 -17.787  11.019  1.00139.15     0.045 C 
ENDBRANCH  10  12
BRANCH   5  21
HETATM   21  N6  MIQ B 502       4.908 -10.880  10.058  1.00140.95    -0.377 N 
HETATM   22  C7  MIQ B 502       5.863 -10.335   9.107  1.00142.12     0.149 C 
HETATM   23  C8  MIQ B 502       7.063  -9.706   9.803  1.00144.10     0.187 C 
HETATM   24  O9  MIQ B 502       6.700  -8.848  10.843  1.00148.65    -0.388 OA
HETATM   25  C10 MIQ B 502       5.378  -8.802  11.294  1.00147.44     0.187 C 
HETATM   26  C11 MIQ B 502       4.531 -10.066  11.200  1.00144.08     0.149 C 
ENDBRANCH   5  21
TORSDOF 2
ENDMDL
