MODEL 1
REMARK VINA RESULT:      -6.8      0.000      0.000
REMARK  2 active torsions:
REMARK  status: ('A' for Active; 'I' for Inactive)
REMARK    1  A    between atoms: C5_5  and  N6_21 
REMARK    2  A    between atoms: C18_14  and  N17_19 
ROOT
HETATM    1  O1  MIQ B 502      17.173  -9.264   2.419  1.00142.91    -0.171 OA
HETATM    2  C2  MIQ B 502      15.865  -9.341   1.935  1.00141.17     0.195 A 
HETATM    3  C3  MIQ B 502      15.385  -8.937   0.504  1.00141.71     0.035 A 
HETATM    4  C4  MIQ B 502      16.080  -8.399  -0.689  1.00142.86     0.046 A 
HETATM    5  C5  MIQ B 502      15.356  -8.125  -1.877  1.00139.53     0.031 A 
HETATM    6  C12 MIQ B 502      13.922  -8.375  -1.923  1.00139.38     0.030 A 
HETATM    7  C13 MIQ B 502      13.256  -8.892  -0.779  1.00141.18     0.019 A 
HETATM    8  C14 MIQ B 502      14.022  -9.179   0.464  1.00138.77     0.033 A 
HETATM    9  C15 MIQ B 502      13.653  -9.738   1.877  1.00142.10     0.195 A 
HETATM   10  N17 MIQ B 502      14.783  -9.766   2.565  1.00139.42    -0.288 N 
HETATM   11  O16 MIQ B 502      12.386 -10.124   2.319  1.00148.93    -0.171 OA
ENDROOT
BRANCH  10  12
HETATM   12  C18 MIQ B 502      14.820 -10.219   3.943  1.00139.82     0.187 C 
HETATM   13  C19 MIQ B 502      15.573  -9.164   4.762  1.00140.06     0.247 C 
HETATM   14  O25 MIQ B 502      15.251  -8.032   4.680  1.00143.95    -0.271 OA
HETATM   15  N20 MIQ B 502      16.668  -9.519   5.642  1.00140.02    -0.296 N 
HETATM   16  H13 MIQ B 502      17.156  -8.820   6.166  1.00142.77     0.171 HD
HETATM   17  C21 MIQ B 502      17.050 -10.906   5.718  1.00142.22     0.224 C 
HETATM   18  C22 MIQ B 502      16.902 -11.723   4.449  1.00139.52     0.106 C 
HETATM   19  O24 MIQ B 502      17.453 -11.381   6.722  1.00146.13    -0.273 OA
HETATM   20  C23 MIQ B 502      15.448 -11.609   4.029  1.00139.15     0.045 C 
ENDBRANCH  10  12
BRANCH   5  21
HETATM   21  N6  MIQ B 502      16.046  -7.585  -3.034  1.00140.95    -0.377 N 
HETATM   22  C7  MIQ B 502      17.431  -7.170  -2.885  1.00142.12     0.149 C 
HETATM   23  C8  MIQ B 502      17.811  -6.088  -3.887  1.00144.10     0.187 C 
HETATM   24  O9  MIQ B 502      17.415  -6.391  -5.191  1.00148.65    -0.388 OA
HETATM   25  C10 MIQ B 502      16.563  -7.470  -5.439  1.00147.44     0.187 C 
HETATM   26  C11 MIQ B 502      15.546  -7.857  -4.370  1.00144.08     0.149 C 
ENDBRANCH   5  21
TORSDOF 2
ENDMDL
MODEL 2
REMARK VINA RESULT:      -6.7     13.459     15.585
REMARK  2 active torsions:
REMARK  status: ('A' for Active; 'I' for Inactive)
REMARK    1  A    between atoms: C5_5  and  N6_21 
REMARK    2  A    between atoms: C18_14  and  N17_19 
ROOT
HETATM    1  O1  MIQ B 502       8.302 -13.219  13.058  1.00142.91    -0.171 OA
HETATM    2  C2  MIQ B 502       9.515 -12.527  13.051  1.00141.17     0.195 A 
HETATM    3  C3  MIQ B 502      10.936 -13.155  13.218  1.00141.71     0.035 A 
HETATM    4  C4  MIQ B 502      11.420 -14.542  13.415  1.00142.86     0.046 A 
HETATM    5  C5  MIQ B 502      12.808 -14.807  13.535  1.00139.53     0.031 A 
HETATM    6  C12 MIQ B 502      13.761 -13.709  13.464  1.00139.38     0.030 A 
HETATM    7  C13 MIQ B 502      13.298 -12.379  13.275  1.00141.18     0.019 A 
HETATM    8  C14 MIQ B 502      11.840 -12.108  13.147  1.00138.77     0.033 A 
HETATM    9  C15 MIQ B 502      10.976 -10.822  12.934  1.00142.10     0.195 A 
HETATM   10  N17 MIQ B 502       9.717 -11.229  12.901  1.00139.42    -0.288 N 
HETATM   11  O16 MIQ B 502      11.442  -9.513  12.807  1.00148.93    -0.171 OA
ENDROOT
BRANCH  10  12
HETATM   12  C18 MIQ B 502       8.622 -10.292  12.732  1.00139.82     0.187 C 
HETATM   13  C19 MIQ B 502       7.628 -10.522  13.877  1.00140.06     0.247 C 
HETATM   14  O25 MIQ B 502       8.024 -10.540  14.988  1.00143.95    -0.271 OA
HETATM   15  N20 MIQ B 502       6.213 -10.712  13.633  1.00140.02    -0.296 N 
HETATM   16  H13 MIQ B 502       5.576 -10.868  14.389  1.00142.77     0.171 HD
HETATM   17  C21 MIQ B 502       5.756 -10.696  12.267  1.00142.22     0.224 C 
HETATM   18  C22 MIQ B 502       6.707 -11.250  11.224  1.00139.52     0.106 C 
HETATM   19  O24 MIQ B 502       4.693 -10.268  11.977  1.00146.13    -0.273 OA
HETATM   20  C23 MIQ B 502       7.994 -10.454  11.348  1.00139.15     0.045 C 
ENDBRANCH  10  12
BRANCH   5  21
HETATM   21  N6  MIQ B 502      13.267 -16.168  13.742  1.00140.95    -0.377 N 
HETATM   22  C7  MIQ B 502      14.693 -16.437  13.681  1.00142.12     0.149 C 
HETATM   23  C8  MIQ B 502      14.984 -17.875  13.272  1.00144.10     0.187 C 
HETATM   24  O9  MIQ B 502      14.231 -18.807  13.988  1.00148.65    -0.388 OA
HETATM   25  C10 MIQ B 502      13.178 -18.388  14.805  1.00147.44     0.187 C 
HETATM   26  C11 MIQ B 502      12.411 -17.128  14.418  1.00144.08     0.149 C 
ENDBRANCH   5  21
TORSDOF 2
ENDMDL
MODEL 3
REMARK VINA RESULT:      -6.1     12.958     14.484
REMARK  2 active torsions:
REMARK  status: ('A' for Active; 'I' for Inactive)
REMARK    1  A    between atoms: C5_5  and  N6_21 
REMARK    2  A    between atoms: C18_14  and  N17_19 
ROOT
HETATM    1  O1  MIQ B 502      12.414 -10.617  12.716  1.00142.91    -0.171 OA
HETATM    2  C2  MIQ B 502      11.927 -11.878  13.069  1.00141.17     0.195 A 
HETATM    3  C3  MIQ B 502      12.766 -13.190  13.191  1.00141.71     0.035 A 
HETATM    4  C4  MIQ B 502      14.202 -13.503  12.998  1.00142.86     0.046 A 
HETATM    5  C5  MIQ B 502      14.680 -14.824  13.189  1.00139.53     0.031 A 
HETATM    6  C12 MIQ B 502      13.754 -15.878  13.576  1.00139.38     0.030 A 
HETATM    7  C13 MIQ B 502      12.377 -15.578  13.762  1.00141.18     0.019 A 
HETATM    8  C14 MIQ B 502      11.882 -14.189  13.563  1.00138.77     0.033 A 
HETATM    9  C15 MIQ B 502      10.486 -13.493  13.673  1.00142.10     0.195 A 
HETATM   10  N17 MIQ B 502      10.687 -12.221  13.372  1.00139.42    -0.288 N 
HETATM   11  O16 MIQ B 502       9.276 -14.098  14.018  1.00148.93    -0.171 OA
ENDROOT
BRANCH  10  12
HETATM   12  C18 MIQ B 502       9.596 -11.265  13.355  1.00139.82     0.187 C 
HETATM   13  C19 MIQ B 502       9.609 -10.563  11.992  1.00140.06     0.247 C 
HETATM   14  O25 MIQ B 502       9.638 -11.214  11.009  1.00143.95    -0.271 OA
HETATM   15  N20 MIQ B 502       9.581  -9.119  11.876  1.00140.02    -0.296 N 
HETATM   16  H13 MIQ B 502       9.596  -8.673  10.980  1.00142.77     0.171 HD
HETATM   17  C21 MIQ B 502       9.556  -8.345  13.091  1.00142.22     0.224 C 
HETATM   18  C22 MIQ B 502      10.303  -8.919  14.279  1.00139.52     0.106 C 
HETATM   19  O24 MIQ B 502       8.977  -7.317  13.156  1.00146.13    -0.273 OA
HETATM   20  C23 MIQ B 502       9.719 -10.297  14.531  1.00139.15     0.045 C 
ENDBRANCH  10  12
BRANCH   5  21
HETATM   21  N6  MIQ B 502      16.086 -15.119  12.982  1.00140.95    -0.377 N 
HETATM   22  C7  MIQ B 502      16.540 -16.489  13.149  1.00142.12     0.149 C 
HETATM   23  C8  MIQ B 502      18.011 -16.557  13.541  1.00144.10     0.187 C 
HETATM   24  O9  MIQ B 502      18.824 -15.751  12.742  1.00148.65    -0.388 OA
HETATM   25  C10 MIQ B 502      18.257 -14.832  11.855  1.00147.44     0.187 C 
HETATM   26  C11 MIQ B 502      16.914 -14.206  12.214  1.00144.08     0.149 C 
ENDBRANCH   5  21
TORSDOF 2
ENDMDL
MODEL 4
REMARK VINA RESULT:      -6.1     14.379     17.950
REMARK  2 active torsions:
REMARK  status: ('A' for Active; 'I' for Inactive)
REMARK    1  A    between atoms: C5_5  and  N6_21 
REMARK    2  A    between atoms: C18_14  and  N17_19 
ROOT
HETATM    1  O1  MIQ B 502       5.598 -14.674  13.048  1.00142.91    -0.171 OA
HETATM    2  C2  MIQ B 502       5.470 -13.284  12.986  1.00141.17     0.195 A 
HETATM    3  C3  MIQ B 502       4.146 -12.472  13.147  1.00141.71     0.035 A 
HETATM    4  C4  MIQ B 502       2.737 -12.860  13.396  1.00142.86     0.046 A 
HETATM    5  C5  MIQ B 502       1.728 -11.868  13.498  1.00139.53     0.031 A 
HETATM    6  C12 MIQ B 502       2.080 -10.463  13.356  1.00139.38     0.030 A 
HETATM    7  C13 MIQ B 502       3.430 -10.091  13.118  1.00141.18     0.019 A 
HETATM    8  C14 MIQ B 502       4.485 -11.136  13.015  1.00138.77     0.033 A 
HETATM    9  C15 MIQ B 502       6.030 -11.118  12.771  1.00142.10     0.195 A 
HETATM   10  N17 MIQ B 502       6.417 -12.383  12.787  1.00139.42    -0.288 N 
HETATM   11  O16 MIQ B 502       6.832  -9.992  12.575  1.00148.93    -0.171 OA
ENDROOT
BRANCH  10  12
HETATM   12  C18 MIQ B 502       7.803 -12.753  12.575  1.00139.82     0.187 C 
HETATM   13  C19 MIQ B 502       8.650 -12.012  13.617  1.00140.06     0.247 C 
HETATM   14  O25 MIQ B 502       8.347 -12.074  14.756  1.00143.95    -0.271 OA
HETATM   15  N20 MIQ B 502       9.818 -11.241  13.244  1.00140.02    -0.296 N 
HETATM   16  H13 MIQ B 502      10.358 -10.756  13.933  1.00142.77     0.171 HD
HETATM   17  C21 MIQ B 502      10.162 -11.172  11.847  1.00142.22     0.224 C 
HETATM   18  C22 MIQ B 502       9.011 -11.185  10.860  1.00139.52     0.106 C 
HETATM   19  O24 MIQ B 502      11.287 -11.112  11.490  1.00146.13    -0.273 OA
HETATM   20  C23 MIQ B 502       8.221 -12.452  11.137  1.00139.15     0.045 C 
ENDBRANCH  10  12
BRANCH   5  21
HETATM   21  N6  MIQ B 502       0.350 -12.263  13.728  1.00140.95    -0.377 N 
HETATM   22  C7  MIQ B 502      -0.018 -13.652  13.519  1.00142.12     0.149 C 
HETATM   23  C8  MIQ B 502      -1.491 -13.802  13.161  1.00144.10     0.187 C 
HETATM   24  O9  MIQ B 502      -2.333 -13.083  14.011  1.00148.65    -0.388 OA
HETATM   25  C10 MIQ B 502      -1.803 -12.162  14.919  1.00147.44     0.187 C 
HETATM   26  C11 MIQ B 502      -0.514 -11.435  14.551  1.00144.08     0.149 C 
ENDBRANCH   5  21
TORSDOF 2
ENDMDL
MODEL 5
REMARK VINA RESULT:      -6.0      2.184      3.340
REMARK  2 active torsions:
REMARK  status: ('A' for Active; 'I' for Inactive)
REMARK    1  A    between atoms: C5_5  and  N6_21 
REMARK    2  A    between atoms: C18_14  and  N17_19 
ROOT
HETATM    1  O1  MIQ B 502      13.356  -9.706   3.399  1.00142.91    -0.171 OA
HETATM    2  C2  MIQ B 502      14.535  -9.271   2.791  1.00141.17     0.195 A 
HETATM    3  C3  MIQ B 502      14.693  -8.819   1.304  1.00141.71     0.035 A 
HETATM    4  C4  MIQ B 502      13.749  -8.709   0.166  1.00142.86     0.046 A 
HETATM    5  C5  MIQ B 502      14.200  -8.252  -1.098  1.00139.53     0.031 A 
HETATM    6  C12 MIQ B 502      15.599  -7.890  -1.278  1.00139.38     0.030 A 
HETATM    7  C13 MIQ B 502      16.504  -7.994  -0.187  1.00141.18     0.019 A 
HETATM    8  C14 MIQ B 502      16.024  -8.472   1.138  1.00138.77     0.033 A 
HETATM    9  C15 MIQ B 502      16.695  -8.709   2.530  1.00142.10     0.195 A 
HETATM   10  N17 MIQ B 502      15.736  -9.146   3.329  1.00139.42    -0.288 N 
HETATM   11  O16 MIQ B 502      18.037  -8.501   2.857  1.00148.93    -0.171 OA
ENDROOT
BRANCH  10  12
HETATM   12  C18 MIQ B 502      16.001  -9.490   4.713  1.00139.82     0.187 C 
HETATM   13  C19 MIQ B 502      16.697  -8.290   5.368  1.00140.06     0.247 C 
HETATM   14  O25 MIQ B 502      16.215  -7.218   5.264  1.00143.95    -0.271 OA
HETATM   15  N20 MIQ B 502      17.929  -8.436   6.116  1.00140.02    -0.296 N 
HETATM   16  H13 MIQ B 502      18.376  -7.644   6.533  1.00142.77     0.171 HD
HETATM   17  C21 MIQ B 502      18.503  -9.753   6.220  1.00142.22     0.224 C 
HETATM   18  C22 MIQ B 502      18.316 -10.673   5.029  1.00139.52     0.106 C 
HETATM   19  O24 MIQ B 502      19.085 -10.099   7.188  1.00146.13    -0.273 OA
HETATM   20  C23 MIQ B 502      16.820 -10.777   4.795  1.00139.15     0.045 C 
ENDBRANCH  10  12
BRANCH   5  21
HETATM   21  N6  MIQ B 502      13.268  -8.164  -2.207  1.00140.95    -0.377 N 
HETATM   22  C7  MIQ B 502      11.897  -8.597  -1.998  1.00142.12     0.149 C 
HETATM   23  C8  MIQ B 502      11.243  -9.058  -3.295  1.00144.10     0.187 C 
HETATM   24  O9  MIQ B 502      11.432  -8.160  -4.348  1.00148.65    -0.388 OA
HETATM   25  C10 MIQ B 502      12.330  -7.097  -4.219  1.00147.44     0.187 C 
HETATM   26  C11 MIQ B 502      13.550  -7.278  -3.323  1.00144.08     0.149 C 
ENDBRANCH   5  21
TORSDOF 2
ENDMDL
MODEL 6
REMARK VINA RESULT:      -5.8     13.524     16.293
REMARK  2 active torsions:
REMARK  status: ('A' for Active; 'I' for Inactive)
REMARK    1  A    between atoms: C5_5  and  N6_21 
REMARK    2  A    between atoms: C18_14  and  N17_19 
ROOT
HETATM    1  O1  MIQ B 502       5.354 -11.506  14.645  1.00142.91    -0.171 OA
HETATM    2  C2  MIQ B 502       6.051 -11.548  13.435  1.00141.17     0.195 A 
HETATM    3  C3  MIQ B 502       7.357 -10.763  13.095  1.00141.71     0.035 A 
HETATM    4  C4  MIQ B 502       8.205  -9.816  13.859  1.00142.86     0.046 A 
HETATM    5  C5  MIQ B 502       9.362  -9.252  13.265  1.00139.53     0.031 A 
HETATM    6  C12 MIQ B 502       9.719  -9.606  11.899  1.00139.38     0.030 A 
HETATM    7  C13 MIQ B 502       8.908 -10.514  11.167  1.00141.18     0.019 A 
HETATM    8  C14 MIQ B 502       7.695 -11.105  11.796  1.00138.77     0.033 A 
HETATM    9  C15 MIQ B 502       6.592 -12.109  11.327  1.00142.10     0.195 A 
HETATM   10  N17 MIQ B 502       5.765 -12.247  12.350  1.00139.42    -0.288 N 
HETATM   11  O16 MIQ B 502       6.503 -12.730  10.080  1.00148.93    -0.171 OA
ENDROOT
BRANCH  10  12
HETATM   12  C18 MIQ B 502       4.596 -13.104  12.269  1.00139.82     0.187 C 
HETATM   13  C19 MIQ B 502       3.379 -12.276  12.698  1.00140.06     0.247 C 
HETATM   14  O25 MIQ B 502       3.190 -11.226  12.195  1.00143.95    -0.271 OA
HETATM   15  N20 MIQ B 502       2.448 -12.750  13.701  1.00140.02    -0.296 N 
HETATM   16  H13 MIQ B 502       1.660 -12.197  13.977  1.00142.77     0.171 HD
HETATM   17  C21 MIQ B 502       2.705 -14.031  14.308  1.00142.22     0.224 C 
HETATM   18  C22 MIQ B 502       4.160 -14.418  14.492  1.00139.52     0.106 C 
HETATM   19  O24 MIQ B 502       1.824 -14.745  14.641  1.00146.13    -0.273 OA
HETATM   20  C23 MIQ B 502       4.798 -14.359  13.116  1.00139.15     0.045 C 
ENDBRANCH  10  12
BRANCH   5  21
HETATM   21  N6  MIQ B 502      10.175  -8.315  14.019  1.00140.95    -0.377 N 
HETATM   22  C7  MIQ B 502       9.691  -7.858  15.311  1.00142.12     0.149 C 
HETATM   23  C8  MIQ B 502      10.242  -6.484  15.671  1.00144.10     0.187 C 
HETATM   24  O9  MIQ B 502      11.622  -6.386  15.482  1.00148.65    -0.388 OA
HETATM   25  C10 MIQ B 502      12.318  -7.394  14.811  1.00147.44     0.187 C 
HETATM   26  C11 MIQ B 502      11.592  -8.185  13.728  1.00144.08     0.149 C 
ENDBRANCH   5  21
TORSDOF 2
ENDMDL
MODEL 7
REMARK VINA RESULT:      -5.8      4.503     10.332
REMARK  2 active torsions:
REMARK  status: ('A' for Active; 'I' for Inactive)
REMARK    1  A    between atoms: C5_5  and  N6_21 
REMARK    2  A    between atoms: C18_14  and  N17_19 
ROOT
HETATM    1  O1  MIQ B 502      15.194 -11.024   5.912  1.00142.91    -0.171 OA
HETATM    2  C2  MIQ B 502      16.584 -11.141   5.844  1.00141.17     0.195 A 
HETATM    3  C3  MIQ B 502      17.490 -11.954   6.823  1.00141.71     0.035 A 
HETATM    4  C4  MIQ B 502      17.210 -12.785   8.018  1.00142.86     0.046 A 
HETATM    5  C5  MIQ B 502      18.271 -13.416   8.716  1.00139.53     0.031 A 
HETATM    6  C12 MIQ B 502      19.641 -13.245   8.256  1.00139.38     0.030 A 
HETATM    7  C13 MIQ B 502      19.910 -12.449   7.110  1.00141.18     0.019 A 
HETATM    8  C14 MIQ B 502      18.792 -11.792   6.379  1.00138.77     0.033 A 
HETATM    9  C15 MIQ B 502      18.694 -10.873   5.117  1.00142.10     0.195 A 
HETATM   10  N17 MIQ B 502      17.408 -10.607   4.959  1.00139.42    -0.288 N 
HETATM   11  O16 MIQ B 502      19.753 -10.426   4.325  1.00148.93    -0.171 OA
ENDROOT
BRANCH  10  12
HETATM   12  C18 MIQ B 502      16.938  -9.757   3.881  1.00139.82     0.187 C 
HETATM   13  C19 MIQ B 502      16.068  -8.656   4.499  1.00140.06     0.247 C 
HETATM   14  O25 MIQ B 502      16.491  -8.027   5.403  1.00143.95    -0.271 OA
HETATM   15  N20 MIQ B 502      14.740  -8.361   4.000  1.00140.02    -0.296 N 
HETATM   16  H13 MIQ B 502      14.180  -7.644   4.417  1.00142.77     0.171 HD
HETATM   17  C21 MIQ B 502      14.242  -9.149   2.903  1.00142.22     0.224 C 
HETATM   18  C22 MIQ B 502      14.683 -10.599   2.850  1.00139.52     0.106 C 
HETATM   19  O24 MIQ B 502      13.529  -8.685   2.082  1.00146.13    -0.273 OA
HETATM   20  C23 MIQ B 502      16.200 -10.588   2.832  1.00139.15     0.045 C 
ENDBRANCH  10  12
BRANCH   5  21
HETATM   21  N6  MIQ B 502      17.984 -14.215   9.893  1.00140.95    -0.377 N 
HETATM   22  C7  MIQ B 502      18.588 -13.831  11.158  1.00142.12     0.149 C 
HETATM   23  C8  MIQ B 502      18.752 -15.022  12.094  1.00144.10     0.187 C 
HETATM   24  O9  MIQ B 502      17.594 -15.796  12.196  1.00148.65    -0.388 OA
HETATM   25  C10 MIQ B 502      16.521 -15.582  11.328  1.00147.44     0.187 C 
HETATM   26  C11 MIQ B 502      16.812 -15.072   9.920  1.00144.08     0.149 C 
ENDBRANCH   5  21
TORSDOF 2
ENDMDL
MODEL 8
REMARK VINA RESULT:      -5.8     18.646     21.596
REMARK  2 active torsions:
REMARK  status: ('A' for Active; 'I' for Inactive)
REMARK    1  A    between atoms: C5_5  and  N6_21 
REMARK    2  A    between atoms: C18_14  and  N17_19 
ROOT
HETATM    1  O1  MIQ B 502       7.986 -27.498  -0.973  1.00142.91    -0.171 OA
HETATM    2  C2  MIQ B 502       9.338 -27.718  -1.244  1.00141.17     0.195 A 
HETATM    3  C3  MIQ B 502      10.375 -28.381  -0.281  1.00141.71     0.035 A 
HETATM    4  C4  MIQ B 502      10.281 -28.940   1.088  1.00142.86     0.046 A 
HETATM    5  C5  MIQ B 502      11.427 -29.491   1.717  1.00139.53     0.031 A 
HETATM    6  C12 MIQ B 502      12.700 -29.507   1.012  1.00139.38     0.030 A 
HETATM    7  C13 MIQ B 502      12.790 -28.972  -0.301  1.00141.18     0.019 A 
HETATM    8  C14 MIQ B 502      11.584 -28.397  -0.957  1.00138.77     0.033 A 
HETATM    9  C15 MIQ B 502      11.296 -27.741  -2.347  1.00142.10     0.195 A 
HETATM   10  N17 MIQ B 502      10.011 -27.426  -2.343  1.00139.42    -0.288 N 
HETATM   11  O16 MIQ B 502      12.214 -27.530  -3.378  1.00148.93    -0.171 OA
ENDROOT
BRANCH  10  12
HETATM   12  C18 MIQ B 502       9.388 -26.775  -3.480  1.00139.82     0.187 C 
HETATM   13  C19 MIQ B 502       8.692 -25.508  -2.970  1.00140.06     0.247 C 
HETATM   14  O25 MIQ B 502       9.299 -24.745  -2.305  1.00143.95    -0.271 OA
HETATM   15  N20 MIQ B 502       7.309 -25.215  -3.287  1.00140.02    -0.296 N 
HETATM   16  H13 MIQ B 502       6.864 -24.388  -2.942  1.00142.77     0.171 HD
HETATM   17  C21 MIQ B 502       6.586 -26.166  -4.092  1.00142.22     0.224 C 
HETATM   18  C22 MIQ B 502       6.949 -27.627  -3.911  1.00139.52     0.106 C 
HETATM   19  O24 MIQ B 502       5.755 -25.822  -4.858  1.00146.13    -0.273 OA
HETATM   20  C23 MIQ B 502       8.437 -27.739  -4.189  1.00139.15     0.045 C 
ENDBRANCH  10  12
BRANCH   5  21
HETATM   21  N6  MIQ B 502      11.324 -30.021   3.064  1.00140.95    -0.377 N 
HETATM   22  C7  MIQ B 502      10.651 -31.294   3.260  1.00142.12     0.149 C 
HETATM   23  C8  MIQ B 502      10.056 -31.413   4.658  1.00144.10     0.187 C 
HETATM   24  O9  MIQ B 502      10.955 -31.052   5.663  1.00148.65    -0.388 OA
HETATM   25  C10 MIQ B 502      12.166 -30.434   5.342  1.00147.44     0.187 C 
HETATM   26  C11 MIQ B 502      12.227 -29.551   4.100  1.00144.08     0.149 C 
ENDBRANCH   5  21
TORSDOF 2
ENDMDL
MODEL 9
REMARK VINA RESULT:      -5.8     19.488     21.729
REMARK  2 active torsions:
REMARK  status: ('A' for Active; 'I' for Inactive)
REMARK    1  A    between atoms: C5_5  and  N6_21 
REMARK    2  A    between atoms: C18_14  and  N17_19 
ROOT
HETATM    1  O1  MIQ B 502      16.130 -25.505  13.600  1.00142.91    -0.171 OA
HETATM    2  C2  MIQ B 502      16.166 -26.856  13.249  1.00141.17     0.195 A 
HETATM    3  C3  MIQ B 502      16.913 -27.471  12.022  1.00141.71     0.035 A 
HETATM    4  C4  MIQ B 502      17.744 -26.891  10.940  1.00142.86     0.046 A 
HETATM    5  C5  MIQ B 502      18.304 -27.726   9.941  1.00139.53     0.031 A 
HETATM    6  C12 MIQ B 502      18.060 -29.161   9.978  1.00139.38     0.030 A 
HETATM    7  C13 MIQ B 502      17.264 -29.717  11.016  1.00141.18     0.019 A 
HETATM    8  C14 MIQ B 502      16.681 -28.836  12.064  1.00138.77     0.033 A 
HETATM    9  C15 MIQ B 502      15.786 -29.070  13.324  1.00142.10     0.195 A 
HETATM   10  N17 MIQ B 502      15.597 -27.878  13.865  1.00139.42    -0.288 N 
HETATM   11  O16 MIQ B 502      15.287 -30.292  13.779  1.00148.93    -0.171 OA
ENDROOT
BRANCH  10  12
HETATM   12  C18 MIQ B 502      14.789 -27.707  15.058  1.00139.82     0.187 C 
HETATM   13  C19 MIQ B 502      13.790 -26.576  14.788  1.00140.06     0.247 C 
HETATM   14  O25 MIQ B 502      13.130 -26.611  13.811  1.00143.95    -0.271 OA
HETATM   15  N20 MIQ B 502      13.628 -25.465  15.704  1.00140.02    -0.296 N 
HETATM   16  H13 MIQ B 502      12.977 -24.729  15.513  1.00142.77     0.171 HD
HETATM   17  C21 MIQ B 502      14.453 -25.438  16.885  1.00142.22     0.224 C 
HETATM   18  C22 MIQ B 502      15.849 -26.016  16.754  1.00139.52     0.106 C 
HETATM   19  O24 MIQ B 502      14.056 -24.993  17.905  1.00146.13    -0.273 OA
HETATM   20  C23 MIQ B 502      15.681 -27.445  16.271  1.00139.15     0.045 C 
ENDBRANCH  10  12
BRANCH   5  21
HETATM   21  N6  MIQ B 502      19.103 -27.143   8.879  1.00140.95    -0.377 N 
HETATM   22  C7  MIQ B 502      20.481 -26.782   9.165  1.00142.12     0.149 C 
HETATM   23  C8  MIQ B 502      20.974 -25.657   8.264  1.00144.10     0.187 C 
HETATM   24  O9  MIQ B 502      20.681 -25.874   6.916  1.00148.65    -0.388 OA
HETATM   25  C10 MIQ B 502      19.823 -26.909   6.535  1.00147.44     0.187 C 
HETATM   26  C11 MIQ B 502      18.711 -27.324   7.492  1.00144.08     0.149 C 
ENDBRANCH   5  21
TORSDOF 2
ENDMDL
