MODEL 1
REMARK VINA RESULT:      -7.3      0.000      0.000
REMARK  2 active torsions:
REMARK  status: ('A' for Active; 'I' for Inactive)
REMARK    1  A    between atoms: C5_5  and  N6_21 
REMARK    2  A    between atoms: C18_14  and  N17_19 
ROOT
HETATM    1  O1  MIQ B 502       8.458  13.797  12.947  1.00142.91    -0.171 OA
HETATM    2  C2  MIQ B 502       8.753  15.149  13.135  1.00141.17     0.195 A 
HETATM    3  C3  MIQ B 502       7.723  16.284  13.434  1.00141.71     0.035 A 
HETATM    4  C4  MIQ B 502       6.251  16.306  13.605  1.00142.86     0.046 A 
HETATM    5  C5  MIQ B 502       5.579  17.524  13.879  1.00139.53     0.031 A 
HETATM    6  C12 MIQ B 502       6.341  18.760  13.994  1.00139.38     0.030 A 
HETATM    7  C13 MIQ B 502       7.753  18.739  13.832  1.00141.18     0.019 A 
HETATM    8  C14 MIQ B 502       8.453  17.457  13.547  1.00138.77     0.033 A 
HETATM    9  C15 MIQ B 502       9.944  17.046  13.317  1.00142.10     0.195 A 
HETATM   10  N17 MIQ B 502       9.935  15.740  13.106  1.00139.42    -0.288 N 
HETATM   11  O16 MIQ B 502      11.055  17.891  13.329  1.00148.93    -0.171 OA
ENDROOT
BRANCH  10  12
HETATM   12  C18 MIQ B 502      11.158  15.008  12.836  1.00139.82     0.187 C 
HETATM   13  C19 MIQ B 502      12.147  15.318  13.966  1.00140.06     0.247 C 
HETATM   14  O25 MIQ B 502      11.798  15.195  15.087  1.00143.95    -0.271 OA
HETATM   15  N20 MIQ B 502      13.503  15.752  13.697  1.00140.02    -0.296 N 
HETATM   16  H13 MIQ B 502      14.137  15.958  14.444  1.00142.77     0.171 HD
HETATM   17  C21 MIQ B 502      13.902  15.905  12.322  1.00142.22     0.224 C 
HETATM   18  C22 MIQ B 502      12.833  16.365  11.350  1.00139.52     0.106 C 
HETATM   19  O24 MIQ B 502      15.007  15.676  11.970  1.00146.13    -0.273 OA
HETATM   20  C23 MIQ B 502      11.697  15.364  11.451  1.00139.15     0.045 C 
ENDBRANCH  10  12
BRANCH   5  21
HETATM   21  N6  MIQ B 502       4.135  17.533  14.028  1.00140.95    -0.377 N 
HETATM   22  C7  MIQ B 502       3.450  16.269  14.233  1.00142.12     0.149 C 
HETATM   23  C8  MIQ B 502       2.010  16.316  13.740  1.00144.10     0.187 C 
HETATM   24  O9  MIQ B 502       1.321  17.447  14.183  1.00148.65    -0.388 OA
HETATM   25  C10 MIQ B 502       2.005  18.493  14.807  1.00147.44     0.187 C 
HETATM   26  C11 MIQ B 502       3.453  18.758  14.408  1.00144.08     0.149 C 
ENDBRANCH   5  21
TORSDOF 2
ENDMDL
MODEL 2
REMARK VINA RESULT:      -7.3      2.301      8.296
REMARK  2 active torsions:
REMARK  status: ('A' for Active; 'I' for Inactive)
REMARK    1  A    between atoms: C5_5  and  N6_21 
REMARK    2  A    between atoms: C18_14  and  N17_19 
ROOT
HETATM    1  O1  MIQ B 502       8.104  18.510  14.805  1.00142.91    -0.171 OA
HETATM    2  C2  MIQ B 502       7.931  17.435  13.930  1.00141.17     0.195 A 
HETATM    3  C3  MIQ B 502       9.061  16.692  13.147  1.00141.71     0.035 A 
HETATM    4  C4  MIQ B 502      10.532  16.858  13.080  1.00142.86     0.046 A 
HETATM    5  C5  MIQ B 502      11.312  16.007  12.257  1.00139.53     0.031 A 
HETATM    6  C12 MIQ B 502      10.663  14.964  11.475  1.00139.38     0.030 A 
HETATM    7  C13 MIQ B 502       9.253  14.804  11.541  1.00141.18     0.019 A 
HETATM    8  C14 MIQ B 502       8.439  15.699  12.408  1.00138.77     0.033 A 
HETATM    9  C15 MIQ B 502       6.915  15.826  12.733  1.00142.10     0.195 A 
HETATM   10  N17 MIQ B 502       6.807  16.829  13.590  1.00139.42    -0.288 N 
HETATM   11  O16 MIQ B 502       5.883  15.040  12.220  1.00148.93    -0.171 OA
ENDROOT
BRANCH  10  12
HETATM   12  C18 MIQ B 502       5.517  17.248  14.106  1.00139.82     0.187 C 
HETATM   13  C19 MIQ B 502       5.363  18.746  13.820  1.00140.06     0.247 C 
HETATM   14  O25 MIQ B 502       5.551  19.146  12.726  1.00143.95    -0.271 OA
HETATM   15  N20 MIQ B 502       4.988  19.687  14.855  1.00140.02    -0.296 N 
HETATM   16  H13 MIQ B 502       4.897  20.664  14.657  1.00142.77     0.171 HD
HETATM   17  C21 MIQ B 502       4.775  19.177  16.185  1.00142.22     0.224 C 
HETATM   18  C22 MIQ B 502       5.636  18.003  16.610  1.00139.52     0.106 C 
HETATM   19  O24 MIQ B 502       3.965  19.648  16.905  1.00146.13    -0.273 OA
HETATM   20  C23 MIQ B 502       5.401  16.904  15.590  1.00139.15     0.045 C 
ENDBRANCH  10  12
BRANCH   5  21
HETATM   21  N6  MIQ B 502      12.751  16.190  12.190  1.00140.95    -0.377 N 
HETATM   22  C7  MIQ B 502      13.557  15.142  11.586  1.00142.12     0.149 C 
HETATM   23  C8  MIQ B 502      14.979  15.133  12.133  1.00144.10     0.187 C 
HETATM   24  O9  MIQ B 502      15.563  16.401  12.149  1.00148.65    -0.388 OA
HETATM   25  C10 MIQ B 502      14.791  17.539  11.901  1.00147.44     0.187 C 
HETATM   26  C11 MIQ B 502      13.319  17.522  12.298  1.00144.08     0.149 C 
ENDBRANCH   5  21
TORSDOF 2
ENDMDL
MODEL 3
REMARK VINA RESULT:      -7.2      1.951      8.322
REMARK  2 active torsions:
REMARK  status: ('A' for Active; 'I' for Inactive)
REMARK    1  A    between atoms: C5_5  and  N6_21 
REMARK    2  A    between atoms: C18_14  and  N17_19 
ROOT
HETATM    1  O1  MIQ B 502       8.510  17.901  15.737  1.00142.91    -0.171 OA
HETATM    2  C2  MIQ B 502       8.231  17.089  14.636  1.00141.17     0.195 A 
HETATM    3  C3  MIQ B 502       9.269  16.547  13.602  1.00141.71     0.035 A 
HETATM    4  C4  MIQ B 502      10.737  16.694  13.460  1.00142.86     0.046 A 
HETATM    5  C5  MIQ B 502      11.420  16.065  12.389  1.00139.53     0.031 A 
HETATM    6  C12 MIQ B 502      10.674  15.271  11.423  1.00139.38     0.030 A 
HETATM    7  C13 MIQ B 502       9.266  15.129  11.560  1.00141.18     0.019 A 
HETATM    8  C14 MIQ B 502       8.555  15.790  12.688  1.00138.77     0.033 A 
HETATM    9  C15 MIQ B 502       7.065  15.861  13.157  1.00142.10     0.195 A 
HETATM   10  N17 MIQ B 502       7.061  16.613  14.245  1.00139.42    -0.288 N 
HETATM   11  O16 MIQ B 502       5.967  15.253  12.546  1.00148.93    -0.171 OA
ENDROOT
BRANCH  10  12
HETATM   12  C18 MIQ B 502       5.830  16.913  14.953  1.00139.82     0.187 C 
HETATM   13  C19 MIQ B 502       5.260  15.591  15.481  1.00140.06     0.247 C 
HETATM   14  O25 MIQ B 502       5.958  14.868  16.098  1.00143.95    -0.271 OA
HETATM   15  N20 MIQ B 502       3.883  15.205  15.247  1.00140.02    -0.296 N 
HETATM   16  H13 MIQ B 502       3.525  14.336  15.591  1.00142.77     0.171 HD
HETATM   17  C21 MIQ B 502       3.053  16.100  14.481  1.00142.22     0.224 C 
HETATM   18  C22 MIQ B 502       3.736  16.889  13.381  1.00139.52     0.106 C 
HETATM   19  O24 MIQ B 502       1.898  16.215  14.705  1.00146.13    -0.273 OA
HETATM   20  C23 MIQ B 502       4.861  17.664  14.041  1.00139.15     0.045 C 
ENDBRANCH  10  12
BRANCH   5  21
HETATM   21  N6  MIQ B 502      12.856  16.229  12.253  1.00140.95    -0.377 N 
HETATM   22  C7  MIQ B 502      13.621  15.164  11.630  1.00142.12     0.149 C 
HETATM   23  C8  MIQ B 502      15.066  15.144  12.111  1.00144.10     0.187 C 
HETATM   24  O9  MIQ B 502      15.665  16.405  12.082  1.00148.65    -0.388 OA
HETATM   25  C10 MIQ B 502      14.897  17.549  11.853  1.00147.44     0.187 C 
HETATM   26  C11 MIQ B 502      13.443  17.556  12.316  1.00144.08     0.149 C 
ENDBRANCH   5  21
TORSDOF 2
ENDMDL
MODEL 4
REMARK VINA RESULT:      -7.2      1.553      2.673
REMARK  2 active torsions:
REMARK  status: ('A' for Active; 'I' for Inactive)
REMARK    1  A    between atoms: C5_5  and  N6_21 
REMARK    2  A    between atoms: C18_14  and  N17_19 
ROOT
HETATM    1  O1  MIQ B 502      10.880  18.788  14.237  1.00142.91    -0.171 OA
HETATM    2  C2  MIQ B 502      10.486  17.631  13.561  1.00141.17     0.195 A 
HETATM    3  C3  MIQ B 502       9.017  17.157  13.323  1.00141.71     0.035 A 
HETATM    4  C4  MIQ B 502       7.694  17.715  13.691  1.00142.86     0.046 A 
HETATM    5  C5  MIQ B 502       6.504  17.038  13.324  1.00139.53     0.031 A 
HETATM    6  C12 MIQ B 502       6.583  15.789  12.580  1.00139.38     0.030 A 
HETATM    7  C13 MIQ B 502       7.851  15.255  12.226  1.00141.18     0.019 A 
HETATM    8  C14 MIQ B 502       9.097  15.971  12.613  1.00138.77     0.033 A 
HETATM    9  C15 MIQ B 502      10.625  15.707  12.407  1.00142.10     0.195 A 
HETATM   10  N17 MIQ B 502      11.251  16.717  12.988  1.00139.42    -0.288 N 
HETATM   11  O16 MIQ B 502      11.205  14.622  11.747  1.00148.93    -0.171 OA
ENDROOT
BRANCH  10  12
HETATM   12  C18 MIQ B 502      12.700  16.799  13.009  1.00139.82     0.187 C 
HETATM   13  C19 MIQ B 502      13.202  16.574  11.578  1.00140.06     0.247 C 
HETATM   14  O25 MIQ B 502      12.738  17.209  10.698  1.00143.95    -0.271 OA
HETATM   15  N20 MIQ B 502      14.236  15.607  11.275  1.00140.02    -0.296 N 
HETATM   16  H13 MIQ B 502      14.551  15.465  10.335  1.00142.77     0.171 HD
HETATM   17  C21 MIQ B 502      14.780  14.837  12.364  1.00142.22     0.224 C 
HETATM   18  C22 MIQ B 502      13.829  14.486  13.491  1.00139.52     0.106 C 
HETATM   19  O24 MIQ B 502      15.913  14.501  12.378  1.00146.13    -0.273 OA
HETATM   20  C23 MIQ B 502      13.274  15.800  14.012  1.00139.15     0.045 C 
ENDBRANCH  10  12
BRANCH   5  21
HETATM   21  N6  MIQ B 502       5.215  17.588  13.704  1.00140.95    -0.377 N 
HETATM   22  C7  MIQ B 502       4.272  16.730  14.399  1.00142.12     0.149 C 
HETATM   23  C8  MIQ B 502       2.830  17.163  14.165  1.00144.10     0.187 C 
HETATM   24  O9  MIQ B 502       2.638  18.533  14.349  1.00148.65    -0.388 OA
HETATM   25  C10 MIQ B 502       3.733  19.388  14.496  1.00147.44     0.187 C 
HETATM   26  C11 MIQ B 502       5.040  19.027  13.798  1.00144.08     0.149 C 
ENDBRANCH   5  21
TORSDOF 2
ENDMDL
MODEL 5
REMARK VINA RESULT:      -7.0      2.002      8.378
REMARK  2 active torsions:
REMARK  status: ('A' for Active; 'I' for Inactive)
REMARK    1  A    between atoms: C5_5  and  N6_21 
REMARK    2  A    between atoms: C18_14  and  N17_19 
ROOT
HETATM    1  O1  MIQ B 502       8.016  18.165  15.678  1.00142.91    -0.171 OA
HETATM    2  C2  MIQ B 502       7.718  17.179  14.735  1.00141.17     0.195 A 
HETATM    3  C3  MIQ B 502       8.729  16.505  13.754  1.00141.71     0.035 A 
HETATM    4  C4  MIQ B 502      10.184  16.665  13.521  1.00142.86     0.046 A 
HETATM    5  C5  MIQ B 502      10.842  15.890  12.533  1.00139.53     0.031 A 
HETATM    6  C12 MIQ B 502      10.083  14.931  11.744  1.00139.38     0.030 A 
HETATM    7  C13 MIQ B 502       8.688  14.776  11.967  1.00141.18     0.019 A 
HETATM    8  C14 MIQ B 502       8.003  15.591  13.007  1.00138.77     0.033 A 
HETATM    9  C15 MIQ B 502       6.533  15.698  13.528  1.00142.10     0.195 A 
HETATM   10  N17 MIQ B 502       6.549  16.616  14.481  1.00139.42    -0.288 N 
HETATM   11  O16 MIQ B 502       5.431  14.971  13.075  1.00148.93    -0.171 OA
ENDROOT
BRANCH  10  12
HETATM   12  C18 MIQ B 502       5.340  16.994  15.189  1.00139.82     0.187 C 
HETATM   13  C19 MIQ B 502       4.757  15.727  15.828  1.00140.06     0.247 C 
HETATM   14  O25 MIQ B 502       5.455  15.040  16.485  1.00143.95    -0.271 OA
HETATM   15  N20 MIQ B 502       3.369  15.353  15.653  1.00140.02    -0.296 N 
HETATM   16  H13 MIQ B 502       3.002  14.520  16.070  1.00142.77     0.171 HD
HETATM   17  C21 MIQ B 502       2.539  16.202  14.838  1.00142.22     0.224 C 
HETATM   18  C22 MIQ B 502       3.212  16.890  13.666  1.00139.52     0.106 C 
HETATM   19  O24 MIQ B 502       1.392  16.357  15.076  1.00146.13    -0.273 OA
HETATM   20  C23 MIQ B 502       4.365  17.692  14.241  1.00139.15     0.045 C 
ENDBRANCH  10  12
BRANCH   5  21
HETATM   21  N6  MIQ B 502      12.265  16.068  12.306  1.00140.95    -0.377 N 
HETATM   22  C7  MIQ B 502      12.980  17.044  13.111  1.00142.12     0.149 C 
HETATM   23  C8  MIQ B 502      14.207  17.585  12.390  1.00144.10     0.187 C 
HETATM   24  O9  MIQ B 502      14.997  16.579  11.831  1.00148.65    -0.388 OA
HETATM   25  C10 MIQ B 502      14.531  15.263  11.773  1.00147.44     0.187 C 
HETATM   26  C11 MIQ B 502      13.029  15.027  11.643  1.00144.08     0.149 C 
ENDBRANCH   5  21
TORSDOF 2
ENDMDL
MODEL 6
REMARK VINA RESULT:      -7.0      2.091      3.296
REMARK  2 active torsions:
REMARK  status: ('A' for Active; 'I' for Inactive)
REMARK    1  A    between atoms: C5_5  and  N6_21 
REMARK    2  A    between atoms: C18_14  and  N17_19 
ROOT
HETATM    1  O1  MIQ B 502       8.927  16.708  14.335  1.00142.91    -0.171 OA
HETATM    2  C2  MIQ B 502       7.776  16.078  13.855  1.00141.17     0.195 A 
HETATM    3  C3  MIQ B 502       6.302  16.478  14.183  1.00141.71     0.035 A 
HETATM    4  C4  MIQ B 502       5.697  17.543  15.017  1.00142.86     0.046 A 
HETATM    5  C5  MIQ B 502       4.287  17.658  15.121  1.00139.53     0.031 A 
HETATM    6  C12 MIQ B 502       3.432  16.724  14.403  1.00139.38     0.030 A 
HETATM    7  C13 MIQ B 502       4.012  15.704  13.602  1.00141.18     0.019 A 
HETATM    8  C14 MIQ B 502       5.492  15.589  13.495  1.00138.77     0.033 A 
HETATM    9  C15 MIQ B 502       6.469  14.633  12.736  1.00142.10     0.195 A 
HETATM   10  N17 MIQ B 502       7.690  15.042  13.040  1.00139.42    -0.288 N 
HETATM   11  O16 MIQ B 502       6.118  13.565  11.908  1.00148.93    -0.171 OA
ENDROOT
BRANCH  10  12
HETATM   12  C18 MIQ B 502       8.865  14.368  12.520  1.00139.82     0.187 C 
HETATM   13  C19 MIQ B 502       9.783  14.047  13.705  1.00140.06     0.247 C 
HETATM   14  O25 MIQ B 502       9.337  13.491  14.645  1.00143.95    -0.271 OA
HETATM   15  N20 MIQ B 502      11.188  14.402  13.702  1.00140.02    -0.296 N 
HETATM   16  H13 MIQ B 502      11.775  14.193  14.485  1.00142.77     0.171 HD
HETATM   17  C21 MIQ B 502      11.706  15.090  12.548  1.00142.22     0.224 C 
HETATM   18  C22 MIQ B 502      10.761  16.042  11.839  1.00139.52     0.106 C 
HETATM   19  O24 MIQ B 502      12.813  14.916  12.170  1.00146.13    -0.273 OA
HETATM   20  C23 MIQ B 502       9.540  15.227  11.452  1.00139.15     0.045 C 
ENDBRANCH  10  12
BRANCH   5  21
HETATM   21  N6  MIQ B 502       3.708  18.696  15.953  1.00140.95    -0.377 N 
HETATM   22  C7  MIQ B 502       2.884  18.302  17.083  1.00142.12     0.149 C 
HETATM   23  C8  MIQ B 502       1.866  19.375  17.446  1.00144.10     0.187 C 
HETATM   24  O9  MIQ B 502       2.427  20.650  17.533  1.00148.65    -0.388 OA
HETATM   25  C10 MIQ B 502       3.733  20.880  17.092  1.00147.44     0.187 C 
HETATM   26  C11 MIQ B 502       4.275  20.033  15.945  1.00144.08     0.149 C 
ENDBRANCH   5  21
TORSDOF 2
ENDMDL
MODEL 7
REMARK VINA RESULT:      -6.9     20.516     21.362
REMARK  2 active torsions:
REMARK  status: ('A' for Active; 'I' for Inactive)
REMARK    1  A    between atoms: C5_5  and  N6_21 
REMARK    2  A    between atoms: C18_14  and  N17_19 
ROOT
HETATM    1  O1  MIQ B 502       4.407  21.402  -7.164  1.00142.91    -0.171 OA
HETATM    2  C2  MIQ B 502       3.134  20.849  -7.009  1.00141.17     0.195 A 
HETATM    3  C3  MIQ B 502       2.554  20.223  -5.700  1.00141.71     0.035 A 
HETATM    4  C4  MIQ B 502       3.098  20.030  -4.335  1.00142.86     0.046 A 
HETATM    5  C5  MIQ B 502       2.309  19.414  -3.330  1.00139.53     0.031 A 
HETATM    6  C12 MIQ B 502       0.958  18.970  -3.643  1.00139.38     0.030 A 
HETATM    7  C13 MIQ B 502       0.436  19.156  -4.951  1.00141.18     0.019 A 
HETATM    8  C14 MIQ B 502       1.268  19.805  -6.001  1.00138.77     0.033 A 
HETATM    9  C15 MIQ B 502       1.048  20.175  -7.505  1.00142.10     0.195 A 
HETATM   10  N17 MIQ B 502       2.171  20.744  -7.909  1.00139.42    -0.288 N 
HETATM   11  O16 MIQ B 502      -0.101  19.945  -8.262  1.00148.93    -0.171 OA
ENDROOT
BRANCH  10  12
HETATM   12  C18 MIQ B 502       2.338  21.207  -9.274  1.00139.82     0.187 C 
HETATM   13  C19 MIQ B 502       3.612  20.564  -9.834  1.00140.06     0.247 C 
HETATM   14  O25 MIQ B 502       3.755  19.397  -9.745  1.00143.95    -0.271 OA
HETATM   15  N20 MIQ B 502       4.645  21.350 -10.477  1.00140.02    -0.296 N 
HETATM   16  H13 MIQ B 502       5.476  20.919 -10.833  1.00142.77     0.171 HD
HETATM   17  C21 MIQ B 502       4.452  22.775 -10.565  1.00142.22     0.224 C 
HETATM   18  C22 MIQ B 502       3.709  23.434  -9.419  1.00139.52     0.106 C 
HETATM   19  O24 MIQ B 502       4.850  23.396 -11.488  1.00146.13    -0.273 OA
HETATM   20  C23 MIQ B 502       2.365  22.734  -9.318  1.00139.15     0.045 C 
ENDBRANCH  10  12
BRANCH   5  21
HETATM   21  N6  MIQ B 502       2.860  19.218  -2.002  1.00140.95    -0.377 N 
HETATM   22  C7  MIQ B 502       2.626  20.239  -0.995  1.00142.12     0.149 C 
HETATM   23  C8  MIQ B 502       3.721  20.255   0.064  1.00144.10     0.187 C 
HETATM   24  O9  MIQ B 502       4.015  18.983   0.561  1.00148.65    -0.388 OA
HETATM   25  C10 MIQ B 502       3.494  17.844  -0.058  1.00147.44     0.187 C 
HETATM   26  C11 MIQ B 502       3.232  17.885  -1.560  1.00144.08     0.149 C 
ENDBRANCH   5  21
TORSDOF 2
ENDMDL
MODEL 8
REMARK VINA RESULT:      -6.9      2.069      8.020
REMARK  2 active torsions:
REMARK  status: ('A' for Active; 'I' for Inactive)
REMARK    1  A    between atoms: C5_5  and  N6_21 
REMARK    2  A    between atoms: C18_14  and  N17_19 
ROOT
HETATM    1  O1  MIQ B 502       7.318  15.591  13.426  1.00142.91    -0.171 OA
HETATM    2  C2  MIQ B 502       7.878  16.811  13.812  1.00141.17     0.195 A 
HETATM    3  C3  MIQ B 502       9.386  17.207  13.710  1.00141.71     0.035 A 
HETATM    4  C4  MIQ B 502      10.594  16.500  13.221  1.00142.86     0.046 A 
HETATM    5  C5  MIQ B 502      11.860  17.138  13.256  1.00139.53     0.031 A 
HETATM    6  C12 MIQ B 502      11.972  18.494  13.773  1.00139.38     0.030 A 
HETATM    7  C13 MIQ B 502      10.814  19.172  14.241  1.00141.18     0.019 A 
HETATM    8  C14 MIQ B 502       9.487  18.498  14.200  1.00138.77     0.033 A 
HETATM    9  C15 MIQ B 502       8.034  18.907  14.608  1.00142.10     0.195 A 
HETATM   10  N17 MIQ B 502       7.269  17.866  14.326  1.00139.42    -0.288 N 
HETATM   11  O16 MIQ B 502       7.632  20.125  15.159  1.00148.93    -0.171 OA
ENDROOT
BRANCH  10  12
HETATM   12  C18 MIQ B 502       5.842  17.880  14.591  1.00139.82     0.187 C 
HETATM   13  C19 MIQ B 502       5.510  16.642  15.433  1.00140.06     0.247 C 
HETATM   14  O25 MIQ B 502       6.137  16.424  16.408  1.00143.95    -0.271 OA
HETATM   15  N20 MIQ B 502       4.443  15.734  15.067  1.00140.02    -0.296 N 
HETATM   16  H13 MIQ B 502       4.240  14.926  15.622  1.00142.77     0.171 HD
HETATM   17  C21 MIQ B 502       3.699  16.016  13.867  1.00142.22     0.224 C 
HETATM   18  C22 MIQ B 502       4.463  16.662  12.728  1.00139.52     0.106 C 
HETATM   19  O24 MIQ B 502       2.548  15.760  13.778  1.00146.13    -0.273 OA
HETATM   20  C23 MIQ B 502       5.059  17.944  13.281  1.00139.15     0.045 C 
ENDBRANCH  10  12
BRANCH   5  21
HETATM   21  N6  MIQ B 502      13.037  16.429  12.788  1.00140.95    -0.377 N 
HETATM   22  C7  MIQ B 502      12.982  15.771  11.494  1.00142.12     0.149 C 
HETATM   23  C8  MIQ B 502      13.946  14.594  11.413  1.00144.10     0.187 C 
HETATM   24  O9  MIQ B 502      15.228  14.909  11.869  1.00148.65    -0.388 OA
HETATM   25  C10 MIQ B 502      15.466  16.116  12.532  1.00147.44     0.187 C 
HETATM   26  C11 MIQ B 502      14.339  16.731  13.354  1.00144.08     0.149 C 
ENDBRANCH   5  21
TORSDOF 2
ENDMDL
MODEL 9
REMARK VINA RESULT:      -6.9      2.150      8.314
REMARK  2 active torsions:
REMARK  status: ('A' for Active; 'I' for Inactive)
REMARK    1  A    between atoms: C5_5  and  N6_21 
REMARK    2  A    between atoms: C18_14  and  N17_19 
ROOT
HETATM    1  O1  MIQ B 502       7.277  15.296  12.913  1.00142.91    -0.171 OA
HETATM    2  C2  MIQ B 502       7.742  16.514  13.416  1.00141.17     0.195 A 
HETATM    3  C3  MIQ B 502       9.229  16.991  13.448  1.00141.71     0.035 A 
HETATM    4  C4  MIQ B 502      10.504  16.381  13.002  1.00142.86     0.046 A 
HETATM    5  C5  MIQ B 502      11.728  17.078  13.168  1.00139.53     0.031 A 
HETATM    6  C12 MIQ B 502      11.730  18.399  13.779  1.00139.38     0.030 A 
HETATM    7  C13 MIQ B 502      10.507  18.984  14.206  1.00141.18     0.019 A 
HETATM    8  C14 MIQ B 502       9.225  18.249  14.027  1.00138.77     0.033 A 
HETATM    9  C15 MIQ B 502       7.728  18.555  14.356  1.00142.10     0.195 A 
HETATM   10  N17 MIQ B 502       7.042  17.498  13.953  1.00139.42    -0.288 N 
HETATM   11  O16 MIQ B 502       7.223  19.710  14.956  1.00148.93    -0.171 OA
ENDROOT
BRANCH  10  12
HETATM   12  C18 MIQ B 502       5.602  17.423  14.116  1.00139.82     0.187 C 
HETATM   13  C19 MIQ B 502       4.999  18.714  13.550  1.00140.06     0.247 C 
HETATM   14  O25 MIQ B 502       5.301  19.064  12.465  1.00143.95    -0.271 OA
HETATM   15  N20 MIQ B 502       4.061  19.516  14.310  1.00140.02    -0.296 N 
HETATM   16  H13 MIQ B 502       3.680  20.361  13.932  1.00142.77     0.171 HD
HETATM   17  C21 MIQ B 502       3.715  19.074  15.636  1.00142.22     0.224 C 
HETATM   18  C22 MIQ B 502       4.802  18.367  16.424  1.00139.52     0.106 C 
HETATM   19  O24 MIQ B 502       2.636  19.249  16.084  1.00146.13    -0.273 OA
HETATM   20  C23 MIQ B 502       5.244  17.184  15.582  1.00139.15     0.045 C 
ENDBRANCH  10  12
BRANCH   5  21
HETATM   21  N6  MIQ B 502      12.971  16.463  12.740  1.00140.95    -0.377 N 
HETATM   22  C7  MIQ B 502      12.973  15.680  11.517  1.00142.12     0.149 C 
HETATM   23  C8  MIQ B 502      14.064  14.616  11.524  1.00144.10     0.187 C 
HETATM   24  O9  MIQ B 502      15.308  15.116  11.915  1.00148.65    -0.388 OA
HETATM   25  C10 MIQ B 502      15.416  16.401  12.453  1.00147.44     0.187 C 
HETATM   26  C11 MIQ B 502      14.239  16.964  13.242  1.00144.08     0.149 C 
ENDBRANCH   5  21
TORSDOF 2
ENDMDL
