MODEL 1
REMARK VINA RESULT:      -6.8      0.000      0.000
REMARK  2 active torsions:
REMARK  status: ('A' for Active; 'I' for Inactive)
REMARK    1  A    between atoms: C5_5  and  N6_21 
REMARK    2  A    between atoms: C18_14  and  N17_19 
ROOT
HETATM    1  O1  MIQ B 502      11.849 -11.465   3.094  1.00142.91    -0.171 OA
HETATM    2  C2  MIQ B 502      12.992 -11.490   3.896  1.00141.17     0.195 A 
HETATM    3  C3  MIQ B 502      14.278 -12.340   3.643  1.00141.71     0.035 A 
HETATM    4  C4  MIQ B 502      14.675 -13.297   2.583  1.00142.86     0.046 A 
HETATM    5  C5  MIQ B 502      15.944 -13.927   2.625  1.00139.53     0.031 A 
HETATM    6  C12 MIQ B 502      16.862 -13.631   3.716  1.00139.38     0.030 A 
HETATM    7  C13 MIQ B 502      16.482 -12.713   4.732  1.00141.18     0.019 A 
HETATM    8  C14 MIQ B 502      15.150 -12.053   4.681  1.00138.77     0.033 A 
HETATM    9  C15 MIQ B 502      14.401 -11.018   5.583  1.00142.10     0.195 A 
HETATM   10  N17 MIQ B 502      13.227 -10.814   5.008  1.00139.42    -0.288 N 
HETATM   11  O16 MIQ B 502      14.878 -10.434   6.757  1.00148.93    -0.171 OA
ENDROOT
BRANCH  10  12
HETATM   12  C18 MIQ B 502      12.247  -9.912   5.584  1.00139.82     0.187 C 
HETATM   13  C19 MIQ B 502      10.943 -10.697   5.773  1.00140.06     0.247 C 
HETATM   14  O25 MIQ B 502      10.971 -11.734   6.335  1.00143.95    -0.271 OA
HETATM   15  N20 MIQ B 502       9.674 -10.197   5.286  1.00140.02    -0.296 N 
HETATM   16  H13 MIQ B 502       8.831 -10.722   5.410  1.00142.77     0.171 HD
HETATM   17  C21 MIQ B 502       9.667  -8.934   4.594  1.00142.22     0.224 C 
HETATM   18  C22 MIQ B 502      10.893  -8.605   3.763  1.00139.52     0.106 C 
HETATM   19  O24 MIQ B 502       8.752  -8.190   4.675  1.00146.13    -0.273 OA
HETATM   20  C23 MIQ B 502      12.082  -8.674   4.704  1.00139.15     0.045 C 
ENDBRANCH  10  12
BRANCH   5  21
HETATM   21  N6  MIQ B 502      16.314 -14.873   1.588  1.00140.95    -0.377 N 
HETATM   22  C7  MIQ B 502      15.272 -15.397   0.722  1.00142.12     0.149 C 
HETATM   23  C8  MIQ B 502      15.630 -16.770   0.167  1.00144.10     0.187 C 
HETATM   24  O9  MIQ B 502      16.924 -16.824  -0.356  1.00148.65    -0.388 OA
HETATM   25  C10 MIQ B 502      17.816 -15.770  -0.146  1.00147.44     0.187 C 
HETATM   26  C11 MIQ B 502      17.692 -14.953   1.136  1.00144.08     0.149 C 
ENDBRANCH   5  21
TORSDOF 2
ENDMDL
MODEL 2
REMARK VINA RESULT:      -6.4     21.250     23.393
REMARK  2 active torsions:
REMARK  status: ('A' for Active; 'I' for Inactive)
REMARK    1  A    between atoms: C5_5  and  N6_21 
REMARK    2  A    between atoms: C18_14  and  N17_19 
ROOT
HETATM    1  O1  MIQ B 502      21.261   8.788   0.873  1.00142.91    -0.171 OA
HETATM    2  C2  MIQ B 502      22.593   8.981   1.244  1.00141.17     0.195 A 
HETATM    3  C3  MIQ B 502      23.290   8.400   2.515  1.00141.71     0.035 A 
HETATM    4  C4  MIQ B 502      22.825   7.541   3.629  1.00142.86     0.046 A 
HETATM    5  C5  MIQ B 502      23.716   7.169   4.668  1.00139.53     0.031 A 
HETATM    6  C12 MIQ B 502      25.095   7.634   4.637  1.00139.38     0.030 A 
HETATM    7  C13 MIQ B 502      25.542   8.457   3.569  1.00141.18     0.019 A 
HETATM    8  C14 MIQ B 502      24.603   8.842   2.480  1.00138.77     0.033 A 
HETATM    9  C15 MIQ B 502      24.721   9.702   1.179  1.00142.10     0.195 A 
HETATM   10  N17 MIQ B 502      23.526   9.674   0.613  1.00139.42    -0.288 N 
HETATM   11  O16 MIQ B 502      25.859  10.364   0.716  1.00148.93    -0.171 OA
ENDROOT
BRANCH  10  12
HETATM   12  C18 MIQ B 502      23.256  10.387  -0.622  1.00139.82     0.187 C 
HETATM   13  C19 MIQ B 502      22.025  11.273  -0.391  1.00140.06     0.247 C 
HETATM   14  O25 MIQ B 502      21.998  11.989   0.545  1.00143.95    -0.271 OA
HETATM   15  N20 MIQ B 502      20.894  11.259  -1.296  1.00140.02    -0.296 N 
HETATM   16  H13 MIQ B 502      20.094  11.837  -1.131  1.00142.77     0.171 HD
HETATM   17  C21 MIQ B 502      20.946  10.368  -2.427  1.00142.22     0.224 C 
HETATM   18  C22 MIQ B 502      21.673   9.053  -2.225  1.00139.52     0.106 C 
HETATM   19  O24 MIQ B 502      20.450  10.653  -3.461  1.00146.13    -0.273 OA
HETATM   20  C23 MIQ B 502      23.081   9.402  -1.776  1.00139.15     0.045 C 
ENDBRANCH  10  12
BRANCH   5  21
HETATM   21  N6  MIQ B 502      23.243   6.339   5.760  1.00140.95    -0.377 N 
HETATM   22  C7  MIQ B 502      24.221   5.741   6.653  1.00142.12     0.149 C 
HETATM   23  C8  MIQ B 502      23.701   4.459   7.290  1.00144.10     0.187 C 
HETATM   24  O9  MIQ B 502      22.416   4.598   7.820  1.00148.65    -0.388 OA
HETATM   25  C10 MIQ B 502      21.659   5.741   7.550  1.00147.44     0.187 C 
HETATM   26  C11 MIQ B 502      21.870   6.459   6.221  1.00144.08     0.149 C 
ENDBRANCH   5  21
TORSDOF 2
ENDMDL
MODEL 3
REMARK VINA RESULT:      -6.4      2.319      2.898
REMARK  2 active torsions:
REMARK  status: ('A' for Active; 'I' for Inactive)
REMARK    1  A    between atoms: C5_5  and  N6_21 
REMARK    2  A    between atoms: C18_14  and  N17_19 
ROOT
HETATM    1  O1  MIQ B 502      14.185 -11.111   1.849  1.00142.91    -0.171 OA
HETATM    2  C2  MIQ B 502      14.394 -11.167   3.228  1.00141.17     0.195 A 
HETATM    3  C3  MIQ B 502      15.515 -11.971   3.960  1.00141.71     0.035 A 
HETATM    4  C4  MIQ B 502      16.614 -12.846   3.488  1.00142.86     0.046 A 
HETATM    5  C5  MIQ B 502      17.497 -13.452   4.417  1.00139.53     0.031 A 
HETATM    6  C12 MIQ B 502      17.323 -13.212   5.842  1.00139.38     0.030 A 
HETATM    7  C13 MIQ B 502      16.270 -12.372   6.295  1.00141.18     0.019 A 
HETATM    8  C14 MIQ B 502      15.347 -11.737   5.315  1.00138.77     0.033 A 
HETATM    9  C15 MIQ B 502      14.115 -10.781   5.425  1.00142.10     0.195 A 
HETATM   10  N17 MIQ B 502      13.709 -10.563   4.185  1.00139.42    -0.288 N 
HETATM   11  O16 MIQ B 502      13.558 -10.267   6.597  1.00148.93    -0.171 OA
ENDROOT
BRANCH  10  12
HETATM   12  C18 MIQ B 502      12.562  -9.722   3.900  1.00139.82     0.187 C 
HETATM   13  C19 MIQ B 502      12.740  -8.409   4.673  1.00140.06     0.247 C 
HETATM   14  O25 MIQ B 502      13.755  -7.817   4.575  1.00143.95    -0.271 OA
HETATM   15  N20 MIQ B 502      11.693  -7.872   5.518  1.00140.02    -0.296 N 
HETATM   16  H13 MIQ B 502      11.824  -7.018   6.022  1.00142.77     0.171 HD
HETATM   17  C21 MIQ B 502      10.467  -8.619   5.629  1.00142.22     0.224 C 
HETATM   18  C22 MIQ B 502      10.581 -10.130   5.563  1.00139.52     0.106 C 
HETATM   19  O24 MIQ B 502       9.424  -8.079   5.760  1.00146.13    -0.273 OA
HETATM   20  C23 MIQ B 502      11.267 -10.453   4.248  1.00139.15     0.045 C 
ENDBRANCH  10  12
BRANCH   5  21
HETATM   21  N6  MIQ B 502      18.560 -14.319   3.942  1.00140.95    -0.377 N 
HETATM   22  C7  MIQ B 502      18.795 -14.410   2.511  1.00142.12     0.149 C 
HETATM   23  C8  MIQ B 502      19.422 -15.742   2.121  1.00144.10     0.187 C 
HETATM   24  O9  MIQ B 502      20.508 -16.088   2.927  1.00148.65    -0.388 OA
HETATM   25  C10 MIQ B 502      20.786 -15.364   4.090  1.00147.44     0.187 C 
HETATM   26  C11 MIQ B 502      19.625 -14.722   4.843  1.00144.08     0.149 C 
ENDBRANCH   5  21
TORSDOF 2
ENDMDL
MODEL 4
REMARK VINA RESULT:      -6.4      2.253      3.754
REMARK  2 active torsions:
REMARK  status: ('A' for Active; 'I' for Inactive)
REMARK    1  A    between atoms: C5_5  and  N6_21 
REMARK    2  A    between atoms: C18_14  and  N17_19 
ROOT
HETATM    1  O1  MIQ B 502      14.983 -11.178   3.938  1.00142.91    -0.171 OA
HETATM    2  C2  MIQ B 502      14.503 -12.262   3.199  1.00141.17     0.195 A 
HETATM    3  C3  MIQ B 502      15.366 -13.393   2.554  1.00141.71     0.035 A 
HETATM    4  C4  MIQ B 502      16.822 -13.667   2.515  1.00142.86     0.046 A 
HETATM    5  C5  MIQ B 502      17.319 -14.806   1.832  1.00139.53     0.031 A 
HETATM    6  C12 MIQ B 502      16.393 -15.710   1.166  1.00139.38     0.030 A 
HETATM    7  C13 MIQ B 502      14.996 -15.448   1.204  1.00141.18     0.019 A 
HETATM    8  C14 MIQ B 502      14.480 -14.253   1.925  1.00138.77     0.033 A 
HETATM    9  C15 MIQ B 502      13.059 -13.653   2.182  1.00142.10     0.195 A 
HETATM   10  N17 MIQ B 502      13.250 -12.559   2.901  1.00139.42    -0.288 N 
HETATM   11  O16 MIQ B 502      11.841 -14.169   1.737  1.00148.93    -0.171 OA
ENDROOT
BRANCH  10  12
HETATM   12  C18 MIQ B 502      12.138 -11.724   3.318  1.00139.82     0.187 C 
HETATM   13  C19 MIQ B 502      12.411 -10.300   2.819  1.00140.06     0.247 C 
HETATM   14  O25 MIQ B 502      12.688 -10.130   1.685  1.00143.95    -0.271 OA
HETATM   15  N20 MIQ B 502      12.331  -9.153   3.700  1.00140.02    -0.296 N 
HETATM   16  H13 MIQ B 502      12.518  -8.229   3.364  1.00142.77     0.171 HD
HETATM   17  C21 MIQ B 502      12.002  -9.387   5.083  1.00142.22     0.224 C 
HETATM   18  C22 MIQ B 502      12.502 -10.682   5.693  1.00139.52     0.106 C 
HETATM   19  O24 MIQ B 502      11.368  -8.609   5.707  1.00146.13    -0.273 OA
HETATM   20  C23 MIQ B 502      11.952 -11.805   4.832  1.00139.15     0.045 C 
ENDBRANCH  10  12
BRANCH   5  21
HETATM   21  N6  MIQ B 502      18.748 -15.054   1.789  1.00140.95    -0.377 N 
HETATM   22  C7  MIQ B 502      19.581 -14.502   2.844  1.00142.12     0.149 C 
HETATM   23  C8  MIQ B 502      21.011 -14.267   2.375  1.00144.10     0.187 C 
HETATM   24  O9  MIQ B 502      21.550 -15.366   1.703  1.00148.65    -0.388 OA
HETATM   25  C10 MIQ B 502      20.734 -16.437   1.330  1.00147.44     0.187 C 
HETATM   26  C11 MIQ B 502      19.270 -16.160   1.005  1.00144.08     0.149 C 
ENDBRANCH   5  21
TORSDOF 2
ENDMDL
MODEL 5
REMARK VINA RESULT:      -6.4      1.548      2.731
REMARK  2 active torsions:
REMARK  status: ('A' for Active; 'I' for Inactive)
REMARK    1  A    between atoms: C5_5  and  N6_21 
REMARK    2  A    between atoms: C18_14  and  N17_19 
ROOT
HETATM    1  O1  MIQ B 502      14.994 -10.794   6.550  1.00142.91    -0.171 OA
HETATM    2  C2  MIQ B 502      14.458 -11.213   5.330  1.00141.17     0.195 A 
HETATM    3  C3  MIQ B 502      15.157 -12.142   4.287  1.00141.71     0.035 A 
HETATM    4  C4  MIQ B 502      16.475 -12.819   4.248  1.00142.86     0.046 A 
HETATM    5  C5  MIQ B 502      16.836 -13.621   3.135  1.00139.53     0.031 A 
HETATM    6  C12 MIQ B 502      15.905 -13.780   2.027  1.00139.38     0.030 A 
HETATM    7  C13 MIQ B 502      14.641 -13.132   2.065  1.00141.18     0.019 A 
HETATM    8  C14 MIQ B 502      14.267 -12.293   3.237  1.00138.77     0.033 A 
HETATM    9  C15 MIQ B 502      13.008 -11.454   3.630  1.00142.10     0.195 A 
HETATM   10  N17 MIQ B 502      13.276 -10.925   4.813  1.00139.42    -0.288 N 
HETATM   11  O16 MIQ B 502      11.842 -11.295   2.880  1.00148.93    -0.171 OA
ENDROOT
BRANCH  10  12
HETATM   12  C18 MIQ B 502      12.327 -10.061   5.489  1.00139.82     0.187 C 
HETATM   13  C19 MIQ B 502      11.013 -10.836   5.639  1.00140.06     0.247 C 
HETATM   14  O25 MIQ B 502      11.033 -11.919   6.107  1.00143.95    -0.271 OA
HETATM   15  N20 MIQ B 502       9.743 -10.274   5.227  1.00140.02    -0.296 N 
HETATM   16  H13 MIQ B 502       8.893 -10.793   5.324  1.00142.77     0.171 HD
HETATM   17  C21 MIQ B 502       9.745  -8.954   4.649  1.00142.22     0.224 C 
HETATM   18  C22 MIQ B 502      10.959  -8.575   3.822  1.00139.52     0.106 C 
HETATM   19  O24 MIQ B 502       8.847  -8.205   4.817  1.00146.13    -0.273 OA
HETATM   20  C23 MIQ B 502      12.167  -8.747   4.725  1.00139.15     0.045 C 
ENDBRANCH  10  12
BRANCH   5  21
HETATM   21  N6  MIQ B 502      18.136 -14.266   3.103  1.00140.95    -0.377 N 
HETATM   22  C7  MIQ B 502      18.726 -14.575   1.812  1.00142.12     0.149 C 
HETATM   23  C8  MIQ B 502      19.686 -15.755   1.893  1.00144.10     0.187 C 
HETATM   24  O9  MIQ B 502      20.590 -15.648   2.952  1.00148.65    -0.388 OA
HETATM   25  C10 MIQ B 502      20.422 -14.663   3.929  1.00147.44     0.187 C 
HETATM   26  C11 MIQ B 502      19.008 -14.200   4.263  1.00144.08     0.149 C 
ENDBRANCH   5  21
TORSDOF 2
ENDMDL
MODEL 6
REMARK VINA RESULT:      -6.3      1.499      2.705
REMARK  2 active torsions:
REMARK  status: ('A' for Active; 'I' for Inactive)
REMARK    1  A    between atoms: C5_5  and  N6_21 
REMARK    2  A    between atoms: C18_14  and  N17_19 
ROOT
HETATM    1  O1  MIQ B 502      15.948 -11.821   4.911  1.00142.91    -0.171 OA
HETATM    2  C2  MIQ B 502      15.071 -12.178   3.884  1.00141.17     0.195 A 
HETATM    3  C3  MIQ B 502      15.357 -13.202   2.740  1.00141.71     0.035 A 
HETATM    4  C4  MIQ B 502      16.525 -14.049   2.400  1.00142.86     0.046 A 
HETATM    5  C5  MIQ B 502      16.486 -14.903   1.269  1.00139.53     0.031 A 
HETATM    6  C12 MIQ B 502      15.291 -14.948   0.439  1.00139.38     0.030 A 
HETATM    7  C13 MIQ B 502      14.170 -14.137   0.766  1.00141.18     0.019 A 
HETATM    8  C14 MIQ B 502      14.217 -13.244   1.956  1.00138.77     0.033 A 
HETATM    9  C15 MIQ B 502      13.216 -12.240   2.616  1.00142.10     0.195 A 
HETATM   10  N17 MIQ B 502      13.842 -11.740   3.669  1.00139.42    -0.288 N 
HETATM   11  O16 MIQ B 502      11.927 -11.935   2.178  1.00148.93    -0.171 OA
ENDROOT
BRANCH  10  12
HETATM   12  C18 MIQ B 502      13.214 -10.750   4.524  1.00139.82     0.187 C 
HETATM   13  C19 MIQ B 502      11.863 -11.315   4.979  1.00140.06     0.247 C 
HETATM   14  O25 MIQ B 502      11.819 -12.395   5.451  1.00143.95    -0.271 OA
HETATM   15  N20 MIQ B 502      10.636 -10.555   4.851  1.00140.02    -0.296 N 
HETATM   16  H13 MIQ B 502       9.759 -10.938   5.145  1.00142.77     0.171 HD
HETATM   17  C21 MIQ B 502      10.713  -9.243   4.262  1.00142.22     0.224 C 
HETATM   18  C22 MIQ B 502      11.754  -9.043   3.177  1.00139.52     0.106 C 
HETATM   19  O24 MIQ B 502      10.003  -8.366   4.612  1.00146.13    -0.273 OA
HETATM   20  C23 MIQ B 502      13.092  -9.415   3.790  1.00139.15     0.045 C 
ENDBRANCH  10  12
BRANCH   5  21
HETATM   21  N6  MIQ B 502      17.642 -15.716   0.938  1.00140.95    -0.377 N 
HETATM   22  C7  MIQ B 502      17.833 -16.124  -0.443  1.00142.12     0.149 C 
HETATM   23  C8  MIQ B 502      18.627 -17.419  -0.549  1.00144.10     0.187 C 
HETATM   24  O9  MIQ B 502      19.782 -17.414   0.237  1.00148.65    -0.388 OA
HETATM   25  C10 MIQ B 502      19.997 -16.398   1.172  1.00147.44     0.187 C 
HETATM   26  C11 MIQ B 502      18.787 -15.745   1.832  1.00144.08     0.149 C 
ENDBRANCH   5  21
TORSDOF 2
ENDMDL
MODEL 7
REMARK VINA RESULT:      -6.2      1.591      1.971
REMARK  2 active torsions:
REMARK  status: ('A' for Active; 'I' for Inactive)
REMARK    1  A    between atoms: C5_5  and  N6_21 
REMARK    2  A    between atoms: C18_14  and  N17_19 
ROOT
HETATM    1  O1  MIQ B 502      13.123 -11.284   3.598  1.00142.91    -0.171 OA
HETATM    2  C2  MIQ B 502      13.967 -11.272   4.711  1.00141.17     0.195 A 
HETATM    3  C3  MIQ B 502      15.365 -11.960   4.816  1.00141.71     0.035 A 
HETATM    4  C4  MIQ B 502      16.178 -12.764   3.873  1.00142.86     0.046 A 
HETATM    5  C5  MIQ B 502      17.445 -13.265   4.266  1.00139.53     0.031 A 
HETATM    6  C12 MIQ B 502      17.949 -12.988   5.603  1.00139.38     0.030 A 
HETATM    7  C13 MIQ B 502      17.170 -12.216   6.507  1.00141.18     0.019 A 
HETATM    8  C14 MIQ B 502      15.842 -11.691   6.088  1.00138.77     0.033 A 
HETATM    9  C15 MIQ B 502      14.733 -10.830   6.777  1.00142.10     0.195 A 
HETATM   10  N17 MIQ B 502      13.770 -10.689   5.881  1.00139.42    -0.288 N 
HETATM   11  O16 MIQ B 502      14.758 -10.318   8.076  1.00148.93    -0.171 OA
ENDROOT
BRANCH  10  12
HETATM   12  C18 MIQ B 502      12.558  -9.950   6.182  1.00139.82     0.187 C 
HETATM   13  C19 MIQ B 502      11.365 -10.863   5.871  1.00140.06     0.247 C 
HETATM   14  O25 MIQ B 502      11.341 -11.952   6.323  1.00143.95    -0.271 OA
HETATM   15  N20 MIQ B 502      10.262 -10.422   5.041  1.00140.02    -0.296 N 
HETATM   16  H13 MIQ B 502       9.493 -11.030   4.841  1.00142.77     0.171 HD
HETATM   17  C21 MIQ B 502      10.320  -9.092   4.493  1.00142.22     0.224 C 
HETATM   18  C22 MIQ B 502      11.696  -8.562   4.136  1.00139.52     0.106 C 
HETATM   19  O24 MIQ B 502       9.344  -8.446   4.335  1.00146.13    -0.273 OA
HETATM   20  C23 MIQ B 502      12.529  -8.636   5.402  1.00139.15     0.045 C 
ENDBRANCH  10  12
BRANCH   5  21
HETATM   21  N6  MIQ B 502      18.224 -14.064   3.337  1.00140.95    -0.377 N 
HETATM   22  C7  MIQ B 502      17.720 -14.249   1.988  1.00142.12     0.149 C 
HETATM   23  C8  MIQ B 502      18.226 -15.543   1.364  1.00144.10     0.187 C 
HETATM   24  O9  MIQ B 502      19.603 -15.718   1.516  1.00148.65    -0.388 OA
HETATM   25  C10 MIQ B 502      20.333 -14.879   2.361  1.00147.44     0.187 C 
HETATM   26  C11 MIQ B 502      19.638 -14.289   3.583  1.00144.08     0.149 C 
ENDBRANCH   5  21
TORSDOF 2
ENDMDL
MODEL 8
REMARK VINA RESULT:      -6.2     12.867     14.517
REMARK  2 active torsions:
REMARK  status: ('A' for Active; 'I' for Inactive)
REMARK    1  A    between atoms: C5_5  and  N6_21 
REMARK    2  A    between atoms: C18_14  and  N17_19 
ROOT
HETATM    1  O1  MIQ B 502      18.312 -14.199 -10.514  1.00142.91    -0.171 OA
HETATM    2  C2  MIQ B 502      18.259 -14.950  -9.337  1.00141.17     0.195 A 
HETATM    3  C3  MIQ B 502      19.452 -15.237  -8.371  1.00141.71     0.035 A 
HETATM    4  C4  MIQ B 502      20.883 -14.850  -8.376  1.00142.86     0.046 A 
HETATM    5  C5  MIQ B 502      21.743 -15.274  -7.332  1.00139.53     0.031 A 
HETATM    6  C12 MIQ B 502      21.217 -16.093  -6.250  1.00139.38     0.030 A 
HETATM    7  C13 MIQ B 502      19.846 -16.463  -6.244  1.00141.18     0.019 A 
HETATM    8  C14 MIQ B 502      18.946 -16.013  -7.342  1.00138.77     0.033 A 
HETATM    9  C15 MIQ B 502      17.430 -16.209  -7.670  1.00142.10     0.195 A 
HETATM   10  N17 MIQ B 502      17.214 -15.557  -8.800  1.00139.42    -0.288 N 
HETATM   11  O16 MIQ B 502      16.498 -16.928  -6.919  1.00148.93    -0.171 OA
ENDROOT
BRANCH  10  12
HETATM   12  C18 MIQ B 502      15.903 -15.533  -9.422  1.00139.82     0.187 C 
HETATM   13  C19 MIQ B 502      16.079 -15.906 -10.899  1.00140.06     0.247 C 
HETATM   14  O25 MIQ B 502      16.682 -16.881 -11.179  1.00143.95    -0.271 OA
HETATM   15  N20 MIQ B 502      15.521 -15.097 -11.963  1.00140.02    -0.296 N 
HETATM   16  H13 MIQ B 502      15.649 -15.348 -12.924  1.00142.77     0.171 HD
HETATM   17  C21 MIQ B 502      14.799 -13.906 -11.597  1.00142.22     0.224 C 
HETATM   18  C22 MIQ B 502      15.282 -13.169 -10.362  1.00139.52     0.106 C 
HETATM   19  O24 MIQ B 502      13.873 -13.527 -12.226  1.00146.13    -0.273 OA
HETATM   20  C23 MIQ B 502      15.244 -14.169  -9.221  1.00139.15     0.045 C 
ENDBRANCH  10  12
BRANCH   5  21
HETATM   21  N6  MIQ B 502      23.146 -14.900  -7.358  1.00140.95    -0.377 N 
HETATM   22  C7  MIQ B 502      23.692 -14.175  -6.223  1.00142.12     0.149 C 
HETATM   23  C8  MIQ B 502      24.887 -13.317  -6.618  1.00144.10     0.187 C 
HETATM   24  O9  MIQ B 502      25.822 -14.010  -7.390  1.00148.65    -0.388 OA
HETATM   25  C10 MIQ B 502      25.518 -15.273  -7.905  1.00147.44     0.187 C 
HETATM   26  C11 MIQ B 502      24.066 -15.593  -8.242  1.00144.08     0.149 C 
ENDBRANCH   5  21
TORSDOF 2
ENDMDL
MODEL 9
REMARK VINA RESULT:      -6.2      1.899      2.834
REMARK  2 active torsions:
REMARK  status: ('A' for Active; 'I' for Inactive)
REMARK    1  A    between atoms: C5_5  and  N6_21 
REMARK    2  A    between atoms: C18_14  and  N17_19 
ROOT
HETATM    1  O1  MIQ B 502      11.845 -13.970   1.596  1.00142.91    -0.171 OA
HETATM    2  C2  MIQ B 502      13.052 -13.491   2.111  1.00141.17     0.195 A 
HETATM    3  C3  MIQ B 502      14.473 -14.069   1.818  1.00141.71     0.035 A 
HETATM    4  C4  MIQ B 502      14.964 -15.193   0.986  1.00142.86     0.046 A 
HETATM    5  C5  MIQ B 502      16.351 -15.481   0.917  1.00139.53     0.031 A 
HETATM    6  C12 MIQ B 502      17.296 -14.666   1.667  1.00139.38     0.030 A 
HETATM    7  C13 MIQ B 502      16.825 -13.587   2.464  1.00141.18     0.019 A 
HETATM    8  C14 MIQ B 502      15.369 -13.289   2.531  1.00138.77     0.033 A 
HETATM    9  C15 MIQ B 502      14.499 -12.220   3.269  1.00142.10     0.195 A 
HETATM   10  N17 MIQ B 502      13.246 -12.470   2.928  1.00139.42    -0.288 N 
HETATM   11  O16 MIQ B 502      14.957 -11.211   4.118  1.00148.93    -0.171 OA
ENDROOT
BRANCH  10  12
HETATM   12  C18 MIQ B 502      12.147 -11.676   3.445  1.00139.82     0.187 C 
HETATM   13  C19 MIQ B 502      12.407 -10.213   3.063  1.00140.06     0.247 C 
HETATM   14  O25 MIQ B 502      12.653  -9.946   1.941  1.00143.95    -0.271 OA
HETATM   15  N20 MIQ B 502      12.352  -9.147   4.042  1.00140.02    -0.296 N 
HETATM   16  H13 MIQ B 502      12.531  -8.197   3.781  1.00142.77     0.171 HD
HETATM   17  C21 MIQ B 502      12.060  -9.499   5.408  1.00142.22     0.224 C 
HETATM   18  C22 MIQ B 502      12.575 -10.841   5.890  1.00139.52     0.106 C 
HETATM   19  O24 MIQ B 502      11.444  -8.778   6.114  1.00146.13    -0.273 OA
HETATM   20  C23 MIQ B 502      12.001 -11.887   4.951  1.00139.15     0.045 C 
ENDBRANCH  10  12
BRANCH   5  21
HETATM   21  N6  MIQ B 502      16.817 -16.594   0.111  1.00140.95    -0.377 N 
HETATM   22  C7  MIQ B 502      15.937 -17.735  -0.073  1.00142.12     0.149 C 
HETATM   23  C8  MIQ B 502      16.716 -19.016  -0.343  1.00144.10     0.187 C 
HETATM   24  O9  MIQ B 502      17.700 -18.858  -1.321  1.00148.65    -0.388 OA
HETATM   25  C10 MIQ B 502      18.036 -17.585  -1.786  1.00147.44     0.187 C 
HETATM   26  C11 MIQ B 502      17.903 -16.401  -0.834  1.00144.08     0.149 C 
ENDBRANCH   5  21
TORSDOF 2
ENDMDL
