MODEL 1
REMARK VINA RESULT:      -6.6      0.000      0.000
REMARK  2 active torsions:
REMARK  status: ('A' for Active; 'I' for Inactive)
REMARK    1  A    between atoms: C5_5  and  N6_21 
REMARK    2  A    between atoms: C18_14  and  N17_19 
ROOT
HETATM    1  O1  MIQ B 502       6.302  -8.932   8.226  1.00142.91    -0.171 OA
HETATM    2  C2  MIQ B 502       7.228  -9.849   7.723  1.00141.17     0.195 A 
HETATM    3  C3  MIQ B 502       6.895 -11.211   7.033  1.00141.71     0.035 A 
HETATM    4  C4  MIQ B 502       5.627 -11.907   6.711  1.00142.86     0.046 A 
HETATM    5  C5  MIQ B 502       5.646 -13.167   6.061  1.00139.53     0.031 A 
HETATM    6  C12 MIQ B 502       6.919 -13.778   5.707  1.00139.38     0.030 A 
HETATM    7  C13 MIQ B 502       8.135 -13.110   6.014  1.00141.18     0.019 A 
HETATM    8  C14 MIQ B 502       8.109 -11.786   6.695  1.00138.77     0.033 A 
HETATM    9  C15 MIQ B 502       9.201 -10.777   7.177  1.00142.10     0.195 A 
HETATM   10  N17 MIQ B 502       8.547  -9.763   7.719  1.00139.42    -0.288 N 
HETATM   11  O16 MIQ B 502      10.584 -10.923   7.060  1.00148.93    -0.171 OA
ENDROOT
BRANCH  10  12
HETATM   12  C18 MIQ B 502       9.248  -8.631   8.296  1.00139.82     0.187 C 
HETATM   13  C19 MIQ B 502       8.736  -8.444   9.729  1.00140.06     0.247 C 
HETATM   14  O25 MIQ B 502       8.719  -9.369  10.460  1.00143.95    -0.271 OA
HETATM   15  N20 MIQ B 502       8.276  -7.158  10.214  1.00140.02    -0.296 N 
HETATM   16  H13 MIQ B 502       7.938  -7.051  11.150  1.00142.77     0.171 HD
HETATM   17  C21 MIQ B 502       8.297  -6.046   9.300  1.00142.22     0.224 C 
HETATM   18  C22 MIQ B 502       8.029  -6.358   7.841  1.00139.52     0.106 C 
HETATM   19  O24 MIQ B 502       8.517  -4.945   9.671  1.00146.13    -0.273 OA
HETATM   20  C23 MIQ B 502       9.061  -7.390   7.424  1.00139.15     0.045 C 
ENDBRANCH  10  12
BRANCH   5  21
HETATM   21  N6  MIQ B 502       4.397 -13.845   5.766  1.00140.95    -0.377 N 
HETATM   22  C7  MIQ B 502       4.444 -15.230   5.331  1.00142.12     0.149 C 
HETATM   23  C8  MIQ B 502       3.241 -15.599   4.473  1.00144.10     0.187 C 
HETATM   24  O9  MIQ B 502       2.029 -15.190   5.033  1.00148.65    -0.388 OA
HETATM   25  C10 MIQ B 502       2.012 -14.336   6.139  1.00147.44     0.187 C 
HETATM   26  C11 MIQ B 502       3.149 -13.331   6.301  1.00144.08     0.149 C 
ENDBRANCH   5  21
TORSDOF 2
ENDMDL
MODEL 2
REMARK VINA RESULT:      -6.4     17.800     20.127
REMARK  2 active torsions:
REMARK  status: ('A' for Active; 'I' for Inactive)
REMARK    1  A    between atoms: C5_5  and  N6_21 
REMARK    2  A    between atoms: C18_14  and  N17_19 
ROOT
HETATM    1  O1  MIQ B 502      19.267 -14.223  24.432  1.00142.91    -0.171 OA
HETATM    2  C2  MIQ B 502      18.143 -13.401  24.326  1.00141.17     0.195 A 
HETATM    3  C3  MIQ B 502      16.706 -13.853  23.912  1.00141.71     0.035 A 
HETATM    4  C4  MIQ B 502      16.117 -15.160  23.539  1.00142.86     0.046 A 
HETATM    5  C5  MIQ B 502      14.742 -15.258  23.206  1.00139.53     0.031 A 
HETATM    6  C12 MIQ B 502      13.906 -14.067  23.232  1.00139.38     0.030 A 
HETATM    7  C13 MIQ B 502      14.470 -12.813  23.590  1.00141.18     0.019 A 
HETATM    8  C14 MIQ B 502      15.913 -12.717  23.941  1.00138.77     0.033 A 
HETATM    9  C15 MIQ B 502      16.863 -11.553  24.376  1.00142.10     0.195 A 
HETATM   10  N17 MIQ B 502      18.055 -12.101  24.550  1.00139.42    -0.288 N 
HETATM   11  O16 MIQ B 502      16.519 -10.211  24.542  1.00148.93    -0.171 OA
ENDROOT
BRANCH  10  12
HETATM   12  C18 MIQ B 502      19.203 -11.307  24.946  1.00139.82     0.187 C 
HETATM   13  C19 MIQ B 502      20.325 -11.571  23.935  1.00140.06     0.247 C 
HETATM   14  O25 MIQ B 502      20.097 -11.471  22.782  1.00143.95    -0.271 OA
HETATM   15  N20 MIQ B 502      21.662 -11.935  24.356  1.00140.02    -0.296 N 
HETATM   16  H13 MIQ B 502      22.385 -12.111  23.686  1.00142.77     0.171 HD
HETATM   17  C21 MIQ B 502      21.914 -12.060  25.769  1.00142.22     0.224 C 
HETATM   18  C22 MIQ B 502      20.768 -12.570  26.622  1.00139.52     0.106 C 
HETATM   19  O24 MIQ B 502      22.960 -11.774  26.238  1.00146.13    -0.273 OA
HETATM   20  C23 MIQ B 502      19.602 -11.629  26.385  1.00139.15     0.045 C 
ENDBRANCH  10  12
BRANCH   5  21
HETATM   21  N6  MIQ B 502      14.182 -16.543  22.828  1.00140.95    -0.377 N 
HETATM   22  C7  MIQ B 502      14.279 -17.647  23.767  1.00142.12     0.149 C 
HETATM   23  C8  MIQ B 502      14.269 -18.997  23.062  1.00144.10     0.187 C 
HETATM   24  O9  MIQ B 502      13.248 -19.107  22.115  1.00148.65    -0.388 OA
HETATM   25  C10 MIQ B 502      12.506 -17.984  21.740  1.00147.44     0.187 C 
HETATM   26  C11 MIQ B 502      13.183 -16.618  21.776  1.00144.08     0.149 C 
ENDBRANCH   5  21
TORSDOF 2
ENDMDL
MODEL 3
REMARK VINA RESULT:      -6.3      5.444      7.175
REMARK  2 active torsions:
REMARK  status: ('A' for Active; 'I' for Inactive)
REMARK    1  A    between atoms: C5_5  and  N6_21 
REMARK    2  A    between atoms: C18_14  and  N17_19 
ROOT
HETATM    1  O1  MIQ B 502      11.672  -5.347   9.634  1.00142.91    -0.171 OA
HETATM    2  C2  MIQ B 502      10.304  -5.221   9.383  1.00141.17     0.195 A 
HETATM    3  C3  MIQ B 502       9.210  -6.298   9.674  1.00141.71     0.035 A 
HETATM    4  C4  MIQ B 502       9.251  -7.661  10.254  1.00142.86     0.046 A 
HETATM    5  C5  MIQ B 502       8.059  -8.415  10.397  1.00139.53     0.031 A 
HETATM    6  C12 MIQ B 502       6.788  -7.846   9.973  1.00139.38     0.030 A 
HETATM    7  C13 MIQ B 502       6.748  -6.538   9.418  1.00141.18     0.019 A 
HETATM    8  C14 MIQ B 502       8.003  -5.750   9.272  1.00138.77     0.033 A 
HETATM    9  C15 MIQ B 502       8.349  -4.325   8.729  1.00142.10     0.195 A 
HETATM   10  N17 MIQ B 502       9.658  -4.191   8.864  1.00139.42    -0.288 N 
HETATM   11  O16 MIQ B 502       7.454  -3.390   8.206  1.00148.93    -0.171 OA
ENDROOT
BRANCH  10  12
HETATM   12  C18 MIQ B 502      10.343  -2.983   8.444  1.00139.82     0.187 C 
HETATM   13  C19 MIQ B 502      11.573  -3.402   7.629  1.00140.06     0.247 C 
HETATM   14  O25 MIQ B 502      11.442  -4.166   6.740  1.00143.95    -0.271 OA
HETATM   15  N20 MIQ B 502      12.894  -2.881   7.917  1.00140.02    -0.296 N 
HETATM   16  H13 MIQ B 502      13.689  -3.168   7.382  1.00142.77     0.171 HD
HETATM   17  C21 MIQ B 502      13.030  -1.958   9.014  1.00142.22     0.224 C 
HETATM   18  C22 MIQ B 502      12.107  -2.166  10.199  1.00139.52     0.106 C 
HETATM   19  O24 MIQ B 502      13.819  -1.078   8.987  1.00146.13    -0.273 OA
HETATM   20  C23 MIQ B 502      10.690  -2.119   9.655  1.00139.15     0.045 C 
ENDBRANCH  10  12
BRANCH   5  21
HETATM   21  N6  MIQ B 502       8.116  -9.755  10.952  1.00140.95    -0.377 N 
HETATM   22  C7  MIQ B 502       9.383 -10.238  11.474  1.00142.12     0.149 C 
HETATM   23  C8  MIQ B 502       9.482 -11.757  11.413  1.00144.10     0.187 C 
HETATM   24  O9  MIQ B 502       8.348 -12.396  11.916  1.00148.65    -0.388 OA
HETATM   25  C10 MIQ B 502       7.193 -11.664  12.206  1.00147.44     0.187 C 
HETATM   26  C11 MIQ B 502       6.896 -10.414  11.384  1.00144.08     0.149 C 
ENDBRANCH   5  21
TORSDOF 2
ENDMDL
MODEL 4
REMARK VINA RESULT:      -6.3      3.933      9.595
REMARK  2 active torsions:
REMARK  status: ('A' for Active; 'I' for Inactive)
REMARK    1  A    between atoms: C5_5  and  N6_21 
REMARK    2  A    between atoms: C18_14  and  N17_19 
ROOT
HETATM    1  O1  MIQ B 502      10.031  -8.322   8.381  1.00142.91    -0.171 OA
HETATM    2  C2  MIQ B 502       9.134  -7.299   8.699  1.00141.17     0.195 A 
HETATM    3  C3  MIQ B 502       9.381  -5.767   8.521  1.00141.71     0.035 A 
HETATM    4  C4  MIQ B 502      10.522  -4.972   8.008  1.00142.86     0.046 A 
HETATM    5  C5  MIQ B 502      10.448  -3.557   7.967  1.00139.53     0.031 A 
HETATM    6  C12 MIQ B 502       9.244  -2.882   8.431  1.00139.38     0.030 A 
HETATM    7  C13 MIQ B 502       8.150  -3.645   8.922  1.00141.18     0.019 A 
HETATM    8  C14 MIQ B 502       8.232  -5.130   8.961  1.00138.77     0.033 A 
HETATM    9  C15 MIQ B 502       7.266  -6.273   9.414  1.00142.10     0.195 A 
HETATM   10  N17 MIQ B 502       7.916  -7.406   9.201  1.00139.42    -0.288 N 
HETATM   11  O16 MIQ B 502       5.982  -6.123   9.939  1.00148.93    -0.171 OA
ENDROOT
BRANCH  10  12
HETATM   12  C18 MIQ B 502       7.324  -8.691   9.524  1.00139.82     0.187 C 
HETATM   13  C19 MIQ B 502       8.316  -9.453  10.411  1.00140.06     0.247 C 
HETATM   14  O25 MIQ B 502       8.762  -8.921  11.365  1.00143.95    -0.271 OA
HETATM   15  N20 MIQ B 502       8.717 -10.813  10.114  1.00140.02    -0.296 N 
HETATM   16  H13 MIQ B 502       9.371 -11.297  10.697  1.00142.77     0.171 HD
HETATM   17  C21 MIQ B 502       8.167 -11.437   8.938  1.00142.22     0.224 C 
HETATM   18  C22 MIQ B 502       7.893 -10.532   7.752  1.00139.52     0.106 C 
HETATM   19  O24 MIQ B 502       7.937 -12.595   8.904  1.00146.13    -0.273 OA
HETATM   20  C23 MIQ B 502       6.958  -9.444   8.247  1.00139.15     0.045 C 
ENDBRANCH  10  12
BRANCH   5  21
HETATM   21  N6  MIQ B 502      11.578  -2.790   7.476  1.00140.95    -0.377 N 
HETATM   22  C7  MIQ B 502      12.581  -2.344   8.427  1.00142.12     0.149 C 
HETATM   23  C8  MIQ B 502      13.296  -1.086   7.952  1.00144.10     0.187 C 
HETATM   24  O9  MIQ B 502      13.728  -1.173   6.627  1.00148.65    -0.388 OA
HETATM   25  C10 MIQ B 502      13.308  -2.229   5.815  1.00147.44     0.187 C 
HETATM   26  C11 MIQ B 502      11.937  -2.846   6.069  1.00144.08     0.149 C 
ENDBRANCH   5  21
TORSDOF 2
ENDMDL
MODEL 5
REMARK VINA RESULT:      -6.2      1.931      2.779
REMARK  2 active torsions:
REMARK  status: ('A' for Active; 'I' for Inactive)
REMARK    1  A    between atoms: C5_5  and  N6_21 
REMARK    2  A    between atoms: C18_14  and  N17_19 
ROOT
HETATM    1  O1  MIQ B 502       7.045  -8.431   7.883  1.00142.91    -0.171 OA
HETATM    2  C2  MIQ B 502       7.222  -9.383   8.889  1.00141.17     0.195 A 
HETATM    3  C3  MIQ B 502       6.889 -10.906   8.787  1.00141.71     0.035 A 
HETATM    4  C4  MIQ B 502       6.337 -11.758   7.707  1.00142.86     0.046 A 
HETATM    5  C5  MIQ B 502       6.143 -13.146   7.918  1.00139.53     0.031 A 
HETATM    6  C12 MIQ B 502       6.489 -13.737   9.202  1.00139.38     0.030 A 
HETATM    7  C13 MIQ B 502       7.019 -12.921  10.237  1.00141.18     0.019 A 
HETATM    8  C14 MIQ B 502       7.223 -11.464  10.010  1.00138.77     0.033 A 
HETATM    9  C15 MIQ B 502       7.768 -10.282  10.876  1.00142.10     0.195 A 
HETATM   10  N17 MIQ B 502       7.702  -9.206  10.108  1.00139.42    -0.288 N 
HETATM   11  O16 MIQ B 502       8.226 -10.352  12.192  1.00148.93    -0.171 OA
ENDROOT
BRANCH  10  12
HETATM   12  C18 MIQ B 502       8.116  -7.903  10.593  1.00139.82     0.187 C 
HETATM   13  C19 MIQ B 502       6.942  -6.936  10.397  1.00140.06     0.247 C 
HETATM   14  O25 MIQ B 502       5.874  -7.237  10.799  1.00143.95    -0.271 OA
HETATM   15  N20 MIQ B 502       7.107  -5.658   9.735  1.00140.02    -0.296 N 
HETATM   16  H13 MIQ B 502       6.331  -5.039   9.607  1.00142.77     0.171 HD
HETATM   17  C21 MIQ B 502       8.417  -5.318   9.244  1.00142.22     0.224 C 
HETATM   18  C22 MIQ B 502       9.274  -6.463   8.738  1.00139.52     0.106 C 
HETATM   19  O24 MIQ B 502       8.805  -4.202   9.240  1.00146.13    -0.273 OA
HETATM   20  C23 MIQ B 502       9.391  -7.452   9.884  1.00139.15     0.045 C 
ENDBRANCH  10  12
BRANCH   5  21
HETATM   21  N6  MIQ B 502       5.588 -13.966   6.856  1.00140.95    -0.377 N 
HETATM   22  C7  MIQ B 502       4.606 -13.375   5.963  1.00142.12     0.149 C 
HETATM   23  C8  MIQ B 502       3.673 -14.423   5.370  1.00144.10     0.187 C 
HETATM   24  O9  MIQ B 502       4.354 -15.530   4.860  1.00148.65    -0.388 OA
HETATM   25  C10 MIQ B 502       5.717 -15.700   5.112  1.00147.44     0.187 C 
HETATM   26  C11 MIQ B 502       6.291 -15.158   6.417  1.00144.08     0.149 C 
ENDBRANCH   5  21
TORSDOF 2
ENDMDL
MODEL 6
REMARK VINA RESULT:      -6.1     22.505     24.955
REMARK  2 active torsions:
REMARK  status: ('A' for Active; 'I' for Inactive)
REMARK    1  A    between atoms: C5_5  and  N6_21 
REMARK    2  A    between atoms: C18_14  and  N17_19 
ROOT
HETATM    1  O1  MIQ B 502      13.140   5.464  24.403  1.00142.91    -0.171 OA
HETATM    2  C2  MIQ B 502      11.830   5.948  24.434  1.00141.17     0.195 A 
HETATM    3  C3  MIQ B 502      11.105   6.716  23.283  1.00141.71     0.035 A 
HETATM    4  C4  MIQ B 502      11.514   7.139  21.923  1.00142.86     0.046 A 
HETATM    5  C5  MIQ B 502      10.609   7.840  21.087  1.00139.53     0.031 A 
HETATM    6  C12 MIQ B 502       9.269   8.145  21.568  1.00139.38     0.030 A 
HETATM    7  C13 MIQ B 502       8.876   7.739  22.872  1.00141.18     0.019 A 
HETATM    8  C14 MIQ B 502       9.830   7.001  23.744  1.00138.77     0.033 A 
HETATM    9  C15 MIQ B 502       9.764   6.406  25.189  1.00142.10     0.195 A 
HETATM   10  N17 MIQ B 502      10.947   5.859  25.413  1.00139.42    -0.288 N 
HETATM   11  O16 MIQ B 502       8.675   6.450  26.062  1.00148.93    -0.171 OA
ENDROOT
BRANCH  10  12
HETATM   12  C18 MIQ B 502      11.257   5.217  26.677  1.00139.82     0.187 C 
HETATM   13  C19 MIQ B 502      12.558   5.833  27.207  1.00140.06     0.247 C 
HETATM   14  O25 MIQ B 502      12.654   7.006  27.275  1.00143.95    -0.271 OA
HETATM   15  N20 MIQ B 502      13.673   5.012  27.635  1.00140.02    -0.296 N 
HETATM   16  H13 MIQ B 502      14.519   5.426  27.973  1.00142.77     0.171 HD
HETATM   17  C21 MIQ B 502      13.535   3.582  27.533  1.00142.22     0.224 C 
HETATM   18  C22 MIQ B 502      12.707   3.058  26.375  1.00139.52     0.106 C 
HETATM   19  O24 MIQ B 502      14.039   2.855  28.317  1.00146.13    -0.273 OA
HETATM   20  C23 MIQ B 502      11.339   3.702  26.497  1.00139.15     0.045 C 
ENDBRANCH  10  12
BRANCH   5  21
HETATM   21  N6  MIQ B 502      11.029   8.260  19.763  1.00140.95    -0.377 N 
HETATM   22  C7  MIQ B 502      10.039   8.297  18.699  1.00142.12     0.149 C 
HETATM   23  C8  MIQ B 502      10.673   8.113  17.326  1.00144.10     0.187 C 
HETATM   24  O9  MIQ B 502      11.791   8.926  17.130  1.00148.65    -0.388 OA
HETATM   25  C10 MIQ B 502      12.350   9.630  18.199  1.00147.44     0.187 C 
HETATM   26  C11 MIQ B 502      12.247   9.033  19.599  1.00144.08     0.149 C 
ENDBRANCH   5  21
TORSDOF 2
ENDMDL
MODEL 7
REMARK VINA RESULT:      -6.0      6.776     12.614
REMARK  2 active torsions:
REMARK  status: ('A' for Active; 'I' for Inactive)
REMARK    1  A    between atoms: C5_5  and  N6_21 
REMARK    2  A    between atoms: C18_14  and  N17_19 
ROOT
HETATM    1  O1  MIQ B 502      10.280  -3.743  10.712  1.00142.91    -0.171 OA
HETATM    2  C2  MIQ B 502      11.052  -3.423   9.593  1.00141.17     0.195 A 
HETATM    3  C3  MIQ B 502      12.371  -2.586   9.590  1.00141.71     0.035 A 
HETATM    4  C4  MIQ B 502      13.161  -1.926  10.657  1.00142.86     0.046 A 
HETATM    5  C5  MIQ B 502      14.349  -1.222  10.337  1.00139.53     0.031 A 
HETATM    6  C12 MIQ B 502      14.794  -1.147   8.953  1.00139.38     0.030 A 
HETATM    7  C13 MIQ B 502      14.038  -1.780   7.930  1.00141.18     0.019 A 
HETATM    8  C14 MIQ B 502      12.793  -2.521   8.272  1.00138.77     0.033 A 
HETATM    9  C15 MIQ B 502      11.730  -3.322   7.452  1.00142.10     0.195 A 
HETATM   10  N17 MIQ B 502      10.841  -3.755   8.330  1.00139.42    -0.288 N 
HETATM   11  O16 MIQ B 502      11.724  -3.533   6.072  1.00148.93    -0.171 OA
ENDROOT
BRANCH  10  12
HETATM   12  C18 MIQ B 502       9.687  -4.533   7.920  1.00139.82     0.187 C 
HETATM   13  C19 MIQ B 502       8.436  -3.846   8.480  1.00140.06     0.247 C 
HETATM   14  O25 MIQ B 502       8.279  -2.693   8.290  1.00143.95    -0.271 OA
HETATM   15  N20 MIQ B 502       7.436  -4.576   9.232  1.00140.02    -0.296 N 
HETATM   16  H13 MIQ B 502       6.626  -4.114   9.598  1.00142.77     0.171 HD
HETATM   17  C21 MIQ B 502       7.655  -5.981   9.459  1.00142.22     0.224 C 
HETATM   18  C22 MIQ B 502       9.094  -6.428   9.628  1.00139.52     0.106 C 
HETATM   19  O24 MIQ B 502       6.756  -6.747   9.505  1.00146.13    -0.273 OA
HETATM   20  C23 MIQ B 502       9.833  -5.983   8.378  1.00139.15     0.045 C 
ENDBRANCH  10  12
BRANCH   5  21
HETATM   21  N6  MIQ B 502      15.104  -0.568  11.390  1.00140.95    -0.377 N 
HETATM   22  C7  MIQ B 502      14.406  -0.165  12.599  1.00142.12     0.149 C 
HETATM   23  C8  MIQ B 502      15.088   1.012  13.284  1.00144.10     0.187 C 
HETATM   24  O9  MIQ B 502      16.467   0.837  13.421  1.00148.65    -0.388 OA
HETATM   25  C10 MIQ B 502      17.115  -0.215  12.769  1.00147.44     0.187 C 
HETATM   26  C11 MIQ B 502      16.549  -0.709  11.441  1.00144.08     0.149 C 
ENDBRANCH   5  21
TORSDOF 2
ENDMDL
MODEL 8
REMARK VINA RESULT:      -6.0      4.959      9.195
REMARK  2 active torsions:
REMARK  status: ('A' for Active; 'I' for Inactive)
REMARK    1  A    between atoms: C5_5  and  N6_21 
REMARK    2  A    between atoms: C18_14  and  N17_19 
ROOT
HETATM    1  O1  MIQ B 502       9.068  -8.136  11.125  1.00142.91    -0.171 OA
HETATM    2  C2  MIQ B 502       9.561  -9.433  10.963  1.00141.17     0.195 A 
HETATM    3  C3  MIQ B 502      10.936  -9.968  11.477  1.00141.71     0.035 A 
HETATM    4  C4  MIQ B 502      12.053  -9.349  12.229  1.00142.86     0.046 A 
HETATM    5  C5  MIQ B 502      13.202 -10.110  12.561  1.00139.53     0.031 A 
HETATM    6  C12 MIQ B 502      13.283 -11.508  12.161  1.00139.38     0.030 A 
HETATM    7  C13 MIQ B 502      12.212 -12.102  11.441  1.00141.18     0.019 A 
HETATM    8  C14 MIQ B 502      11.007 -11.298  11.098  1.00138.77     0.033 A 
HETATM    9  C15 MIQ B 502       9.668 -11.591  10.344  1.00142.10     0.195 A 
HETATM   10  N17 MIQ B 502       8.984 -10.459  10.362  1.00139.42    -0.288 N 
HETATM   11  O16 MIQ B 502       9.281 -12.803   9.770  1.00148.93    -0.171 OA
ENDROOT
BRANCH  10  12
HETATM   12  C18 MIQ B 502       7.681 -10.352   9.733  1.00139.82     0.187 C 
HETATM   13  C19 MIQ B 502       7.741  -9.199   8.724  1.00140.06     0.247 C 
HETATM   14  O25 MIQ B 502       8.616  -9.171   7.932  1.00143.95    -0.271 OA
HETATM   15  N20 MIQ B 502       6.750  -8.142   8.711  1.00140.02    -0.296 N 
HETATM   16  H13 MIQ B 502       6.805  -7.391   8.051  1.00142.77     0.171 HD
HETATM   17  C21 MIQ B 502       5.699  -8.192   9.694  1.00142.22     0.224 C 
HETATM   18  C22 MIQ B 502       6.059  -8.772  11.048  1.00139.52     0.106 C 
HETATM   19  O24 MIQ B 502       4.609  -7.805   9.452  1.00146.13    -0.273 OA
HETATM   20  C23 MIQ B 502       6.594 -10.169  10.791  1.00139.15     0.045 C 
ENDBRANCH  10  12
BRANCH   5  21
HETATM   21  N6  MIQ B 502      14.296  -9.487  13.284  1.00140.95    -0.377 N 
HETATM   22  C7  MIQ B 502      14.205  -9.390  14.731  1.00142.12     0.149 C 
HETATM   23  C8  MIQ B 502      15.014  -8.219  15.274  1.00144.10     0.187 C 
HETATM   24  O9  MIQ B 502      16.308  -8.163  14.752  1.00148.65    -0.388 OA
HETATM   25  C10 MIQ B 502      16.674  -8.980  13.679  1.00147.44     0.187 C 
HETATM   26  C11 MIQ B 502      15.605  -9.375  12.665  1.00144.08     0.149 C 
ENDBRANCH   5  21
TORSDOF 2
ENDMDL
MODEL 9
REMARK VINA RESULT:      -5.9     24.070     25.734
REMARK  2 active torsions:
REMARK  status: ('A' for Active; 'I' for Inactive)
REMARK    1  A    between atoms: C5_5  and  N6_21 
REMARK    2  A    between atoms: C18_14  and  N17_19 
ROOT
HETATM    1  O1  MIQ B 502      13.012   5.726  24.608  1.00142.91    -0.171 OA
HETATM    2  C2  MIQ B 502      13.573   4.821  25.511  1.00141.17     0.195 A 
HETATM    3  C3  MIQ B 502      15.037   4.279  25.486  1.00141.71     0.035 A 
HETATM    4  C4  MIQ B 502      16.197   4.518  24.594  1.00142.86     0.046 A 
HETATM    5  C5  MIQ B 502      17.432   3.864  24.833  1.00139.53     0.031 A 
HETATM    6  C12 MIQ B 502      17.560   2.951  25.960  1.00139.38     0.030 A 
HETATM    7  C13 MIQ B 502      16.449   2.722  26.815  1.00141.18     0.019 A 
HETATM    8  C14 MIQ B 502      15.156   3.414  26.562  1.00138.77     0.033 A 
HETATM    9  C15 MIQ B 502      13.756   3.420  27.260  1.00142.10     0.195 A 
HETATM   10  N17 MIQ B 502      13.001   4.248  26.557  1.00139.42    -0.288 N 
HETATM   11  O16 MIQ B 502      13.385   2.694  28.393  1.00148.93    -0.171 OA
ENDROOT
BRANCH  10  12
HETATM   12  C18 MIQ B 502      11.615   4.493  26.909  1.00139.82     0.187 C 
HETATM   13  C19 MIQ B 502      10.752   4.122  25.697  1.00140.06     0.247 C 
HETATM   14  O25 MIQ B 502      10.897   3.069  25.187  1.00143.95    -0.271 OA
HETATM   15  N20 MIQ B 502       9.757   5.029  25.162  1.00140.02    -0.296 N 
HETATM   16  H13 MIQ B 502       9.204   4.778  24.366  1.00142.77     0.171 HD
HETATM   17  C21 MIQ B 502       9.605   6.313  25.796  1.00142.22     0.224 C 
HETATM   18  C22 MIQ B 502      10.860   6.942  26.372  1.00139.52     0.106 C 
HETATM   19  O24 MIQ B 502       8.553   6.847  25.867  1.00146.13    -0.273 OA
HETATM   20  C23 MIQ B 502      11.428   5.940  27.361  1.00139.15     0.045 C 
ENDBRANCH  10  12
BRANCH   5  21
HETATM   21  N6  MIQ B 502      18.555   4.097  23.943  1.00140.95    -0.377 N 
HETATM   22  C7  MIQ B 502      18.405   3.770  22.535  1.00142.12     0.149 C 
HETATM   23  C8  MIQ B 502      19.742   3.444  21.882  1.00144.10     0.187 C 
HETATM   24  O9  MIQ B 502      20.733   4.382  22.175  1.00148.65    -0.388 OA
HETATM   25  C10 MIQ B 502      20.520   5.355  23.154  1.00147.44     0.187 C 
HETATM   26  C11 MIQ B 502      19.608   5.019  24.330  1.00144.08     0.149 C 
ENDBRANCH   5  21
TORSDOF 2
ENDMDL
