MODEL 1
REMARK VINA RESULT:      -6.5      0.000      0.000
REMARK  2 active torsions:
REMARK  status: ('A' for Active; 'I' for Inactive)
REMARK    1  A    between atoms: C5_5  and  N6_21 
REMARK    2  A    between atoms: C18_14  and  N17_19 
ROOT
HETATM    1  O1  MIQ B 502      -6.552 -14.720   6.733  1.00142.91    -0.171 OA
HETATM    2  C2  MIQ B 502      -6.184 -14.711   5.386  1.00141.17     0.195 A 
HETATM    3  C3  MIQ B 502      -5.460 -15.864   4.620  1.00141.71     0.035 A 
HETATM    4  C4  MIQ B 502      -4.977 -17.207   5.020  1.00142.86     0.046 A 
HETATM    5  C5  MIQ B 502      -4.341 -18.051   4.074  1.00139.53     0.031 A 
HETATM    6  C12 MIQ B 502      -4.164 -17.594   2.703  1.00139.38     0.030 A 
HETATM    7  C13 MIQ B 502      -4.628 -16.307   2.319  1.00141.18     0.019 A 
HETATM    8  C14 MIQ B 502      -5.296 -15.427   3.316  1.00138.77     0.033 A 
HETATM    9  C15 MIQ B 502      -5.923 -13.995   3.272  1.00142.10     0.195 A 
HETATM   10  N17 MIQ B 502      -6.369 -13.754   4.493  1.00139.42    -0.288 N 
HETATM   11  O16 MIQ B 502      -5.992 -13.146   2.165  1.00148.93    -0.171 OA
ENDROOT
BRANCH  10  12
HETATM   12  C18 MIQ B 502      -7.006 -12.495   4.832  1.00139.82     0.187 C 
HETATM   13  C19 MIQ B 502      -6.263 -11.903   6.036  1.00140.06     0.247 C 
HETATM   14  O25 MIQ B 502      -5.088 -11.805   5.996  1.00143.95    -0.271 OA
HETATM   15  N20 MIQ B 502      -6.964 -11.455   7.222  1.00140.02    -0.296 N 
HETATM   16  H13 MIQ B 502      -6.467 -11.077   8.004  1.00142.77     0.171 HD
HETATM   17  C21 MIQ B 502      -8.398 -11.595   7.251  1.00142.22     0.224 C 
HETATM   18  C22 MIQ B 502      -8.980 -12.793   6.527  1.00139.52     0.106 C 
HETATM   19  O24 MIQ B 502      -9.084 -10.810   7.807  1.00146.13    -0.273 OA
HETATM   20  C23 MIQ B 502      -8.497 -12.706   5.090  1.00139.15     0.045 C 
ENDBRANCH  10  12
BRANCH   5  21
HETATM   21  N6  MIQ B 502      -3.860 -19.357   4.483  1.00140.95    -0.377 N 
HETATM   22  C7  MIQ B 502      -4.135 -19.807   5.837  1.00142.12     0.149 C 
HETATM   23  C8  MIQ B 502      -3.095 -20.805   6.328  1.00144.10     0.187 C 
HETATM   24  O9  MIQ B 502      -2.837 -21.819   5.403  1.00148.65    -0.388 OA
HETATM   25  C10 MIQ B 502      -3.336 -21.734   4.101  1.00147.44     0.187 C 
HETATM   26  C11 MIQ B 502      -3.522 -20.353   3.481  1.00144.08     0.149 C 
ENDBRANCH   5  21
TORSDOF 2
ENDMDL
MODEL 2
REMARK VINA RESULT:      -6.5      3.721      4.471
REMARK  2 active torsions:
REMARK  status: ('A' for Active; 'I' for Inactive)
REMARK    1  A    between atoms: C5_5  and  N6_21 
REMARK    2  A    between atoms: C18_14  and  N17_19 
ROOT
HETATM    1  O1  MIQ B 502      -8.429 -14.487   8.698  1.00142.91    -0.171 OA
HETATM    2  C2  MIQ B 502      -7.853 -14.623   7.433  1.00141.17     0.195 A 
HETATM    3  C3  MIQ B 502      -8.008 -15.849   6.477  1.00141.71     0.035 A 
HETATM    4  C4  MIQ B 502      -8.738 -17.135   6.579  1.00142.86     0.046 A 
HETATM    5  C5  MIQ B 502      -8.688 -18.073   5.517  1.00139.53     0.031 A 
HETATM    6  C12 MIQ B 502      -7.915 -17.770   4.321  1.00139.38     0.030 A 
HETATM    7  C13 MIQ B 502      -7.216 -16.537   4.223  1.00141.18     0.019 A 
HETATM    8  C14 MIQ B 502      -7.274 -15.555   5.340  1.00138.77     0.033 A 
HETATM    9  C15 MIQ B 502      -6.661 -14.139   5.590  1.00142.10     0.195 A 
HETATM   10  N17 MIQ B 502      -7.080 -13.766   6.789  1.00139.42    -0.288 N 
HETATM   11  O16 MIQ B 502      -5.837 -13.419   4.723  1.00148.93    -0.171 OA
ENDROOT
BRANCH  10  12
HETATM   12  C18 MIQ B 502      -6.690 -12.493   7.366  1.00139.82     0.187 C 
HETATM   13  C19 MIQ B 502      -7.038 -11.395   6.354  1.00140.06     0.247 C 
HETATM   14  O25 MIQ B 502      -8.125 -11.356   5.896  1.00143.95    -0.271 OA
HETATM   15  N20 MIQ B 502      -6.070 -10.397   5.947  1.00140.02    -0.296 N 
HETATM   16  H13 MIQ B 502      -6.307  -9.689   5.280  1.00142.77     0.171 HD
HETATM   17  C21 MIQ B 502      -4.747 -10.471   6.512  1.00142.22     0.224 C 
HETATM   18  C22 MIQ B 502      -4.211 -11.858   6.812  1.00139.52     0.106 C 
HETATM   19  O24 MIQ B 502      -4.115  -9.498   6.734  1.00146.13    -0.273 OA
HETATM   20  C23 MIQ B 502      -5.211 -12.513   7.747  1.00139.15     0.045 C 
ENDBRANCH  10  12
BRANCH   5  21
HETATM   21  N6  MIQ B 502      -9.396 -19.335   5.636  1.00140.95    -0.377 N 
HETATM   22  C7  MIQ B 502      -9.065 -20.215   6.743  1.00142.12     0.149 C 
HETATM   23  C8  MIQ B 502      -9.354 -21.675   6.415  1.00144.10     0.187 C 
HETATM   24  O9  MIQ B 502     -10.620 -21.866   5.858  1.00148.65    -0.388 OA
HETATM   25  C10 MIQ B 502     -11.389 -20.771   5.455  1.00147.44     0.187 C 
HETATM   26  C11 MIQ B 502     -10.672 -19.516   4.966  1.00144.08     0.149 C 
ENDBRANCH   5  21
TORSDOF 2
ENDMDL
MODEL 3
REMARK VINA RESULT:      -6.5      3.429      8.422
REMARK  2 active torsions:
REMARK  status: ('A' for Active; 'I' for Inactive)
REMARK    1  A    between atoms: C5_5  and  N6_21 
REMARK    2  A    between atoms: C18_14  and  N17_19 
ROOT
HETATM    1  O1  MIQ B 502      -8.262 -16.454   7.406  1.00142.91    -0.171 OA
HETATM    2  C2  MIQ B 502      -8.239 -15.207   6.777  1.00141.17     0.195 A 
HETATM    3  C3  MIQ B 502      -9.193 -14.007   7.074  1.00141.71     0.035 A 
HETATM    4  C4  MIQ B 502     -10.317 -13.808   8.020  1.00142.86     0.046 A 
HETATM    5  C5  MIQ B 502     -11.010 -12.572   8.060  1.00139.53     0.031 A 
HETATM    6  C12 MIQ B 502     -10.615 -11.493   7.166  1.00139.38     0.030 A 
HETATM    7  C13 MIQ B 502      -9.538 -11.683   6.259  1.00141.18     0.019 A 
HETATM    8  C14 MIQ B 502      -8.812 -12.982   6.224  1.00138.77     0.033 A 
HETATM    9  C15 MIQ B 502      -7.614 -13.549   5.395  1.00142.10     0.195 A 
HETATM   10  N17 MIQ B 502      -7.425 -14.785   5.825  1.00139.42    -0.288 N 
HETATM   11  O16 MIQ B 502      -6.895 -12.882   4.401  1.00148.93    -0.171 OA
ENDROOT
BRANCH  10  12
HETATM   12  C18 MIQ B 502      -6.391 -15.633   5.262  1.00139.82     0.187 C 
HETATM   13  C19 MIQ B 502      -5.054 -14.893   5.395  1.00140.06     0.247 C 
HETATM   14  O25 MIQ B 502      -4.741 -14.455   6.445  1.00143.95    -0.271 OA
HETATM   15  N20 MIQ B 502      -4.160 -14.721   4.269  1.00140.02    -0.296 N 
HETATM   16  H13 MIQ B 502      -3.294 -14.230   4.368  1.00142.77     0.171 HD
HETATM   17  C21 MIQ B 502      -4.569 -15.256   2.995  1.00142.22     0.224 C 
HETATM   18  C22 MIQ B 502      -6.056 -15.238   2.695  1.00139.52     0.106 C 
HETATM   19  O24 MIQ B 502      -3.784 -15.691   2.227  1.00146.13    -0.273 OA
HETATM   20  C23 MIQ B 502      -6.732 -16.002   3.819  1.00139.15     0.045 C 
ENDBRANCH  10  12
BRANCH   5  21
HETATM   21  N6  MIQ B 502     -12.118 -12.396   8.982  1.00140.95    -0.377 N 
HETATM   22  C7  MIQ B 502     -12.571 -13.543   9.750  1.00142.12     0.149 C 
HETATM   23  C8  MIQ B 502     -14.038 -13.422  10.140  1.00144.10     0.187 C 
HETATM   24  O9  MIQ B 502     -14.354 -12.176  10.686  1.00148.65    -0.388 OA
HETATM   25  C10 MIQ B 502     -13.435 -11.125  10.630  1.00147.44     0.187 C 
HETATM   26  C11 MIQ B 502     -12.464 -11.067   9.455  1.00144.08     0.149 C 
ENDBRANCH   5  21
TORSDOF 2
ENDMDL
MODEL 4
REMARK VINA RESULT:      -6.4      2.728      7.873
REMARK  2 active torsions:
REMARK  status: ('A' for Active; 'I' for Inactive)
REMARK    1  A    between atoms: C5_5  and  N6_21 
REMARK    2  A    between atoms: C18_14  and  N17_19 
ROOT
HETATM    1  O1  MIQ B 502      -7.377 -15.682   4.386  1.00142.91    -0.171 OA
HETATM    2  C2  MIQ B 502      -6.873 -14.623   5.145  1.00141.17     0.195 A 
HETATM    3  C3  MIQ B 502      -7.647 -13.822   6.239  1.00141.71     0.035 A 
HETATM    4  C4  MIQ B 502      -9.024 -13.907   6.782  1.00142.86     0.046 A 
HETATM    5  C5  MIQ B 502      -9.449 -13.018   7.801  1.00139.53     0.031 A 
HETATM    6  C12 MIQ B 502      -8.526 -12.017   8.318  1.00139.38     0.030 A 
HETATM    7  C13 MIQ B 502      -7.206 -11.935   7.799  1.00141.18     0.019 A 
HETATM    8  C14 MIQ B 502      -6.765 -12.873   6.730  1.00138.77     0.033 A 
HETATM    9  C15 MIQ B 502      -5.435 -13.088   5.936  1.00142.10     0.195 A 
HETATM   10  N17 MIQ B 502      -5.663 -14.091   5.106  1.00139.42    -0.288 N 
HETATM   11  O16 MIQ B 502      -4.251 -12.362   6.078  1.00148.93    -0.171 OA
ENDROOT
BRANCH  10  12
HETATM   12  C18 MIQ B 502      -4.642 -14.563   4.189  1.00139.82     0.187 C 
HETATM   13  C19 MIQ B 502      -5.260 -14.612   2.786  1.00140.06     0.247 C 
HETATM   14  O25 MIQ B 502      -5.820 -13.661   2.370  1.00143.95    -0.271 OA
HETATM   15  N20 MIQ B 502      -5.170 -15.794   1.953  1.00140.02    -0.296 N 
HETATM   16  H13 MIQ B 502      -5.583 -15.816   1.042  1.00142.77     0.171 HD
HETATM   17  C21 MIQ B 502      -4.489 -16.946   2.487  1.00142.22     0.224 C 
HETATM   18  C22 MIQ B 502      -4.607 -17.173   3.982  1.00139.52     0.106 C 
HETATM   19  O24 MIQ B 502      -3.867 -17.673   1.794  1.00146.13    -0.273 OA
HETATM   20  C23 MIQ B 502      -4.093 -15.912   4.652  1.00139.15     0.045 C 
ENDBRANCH  10  12
BRANCH   5  21
HETATM   21  N6  MIQ B 502     -10.804 -13.103   8.313  1.00140.95    -0.377 N 
HETATM   22  C7  MIQ B 502     -11.473 -11.877   8.715  1.00142.12     0.149 C 
HETATM   23  C8  MIQ B 502     -12.537 -12.132   9.775  1.00144.10     0.187 C 
HETATM   24  O9  MIQ B 502     -13.383 -13.194   9.452  1.00148.65    -0.388 OA
HETATM   25  C10 MIQ B 502     -13.083 -14.037   8.378  1.00147.44     0.187 C 
HETATM   26  C11 MIQ B 502     -11.618 -14.270   8.021  1.00144.08     0.149 C 
ENDBRANCH   5  21
TORSDOF 2
ENDMDL
MODEL 5
REMARK VINA RESULT:      -6.4      2.613      7.972
REMARK  2 active torsions:
REMARK  status: ('A' for Active; 'I' for Inactive)
REMARK    1  A    between atoms: C5_5  and  N6_21 
REMARK    2  A    between atoms: C18_14  and  N17_19 
ROOT
HETATM    1  O1  MIQ B 502      -4.378 -12.930   6.100  1.00142.91    -0.171 OA
HETATM    2  C2  MIQ B 502      -5.431 -13.823   5.891  1.00141.17     0.195 A 
HETATM    3  C3  MIQ B 502      -6.790 -13.844   6.661  1.00141.71     0.035 A 
HETATM    4  C4  MIQ B 502      -7.357 -13.014   7.749  1.00142.86     0.046 A 
HETATM    5  C5  MIQ B 502      -8.654 -13.283   8.255  1.00139.53     0.031 A 
HETATM    6  C12 MIQ B 502      -9.432 -14.381   7.700  1.00139.38     0.030 A 
HETATM    7  C13 MIQ B 502      -8.890 -15.177   6.655  1.00141.18     0.019 A 
HETATM    8  C14 MIQ B 502      -7.528 -14.888   6.127  1.00138.77     0.033 A 
HETATM    9  C15 MIQ B 502      -6.623 -15.518   5.019  1.00142.10     0.195 A 
HETATM   10  N17 MIQ B 502      -5.504 -14.812   5.016  1.00139.42    -0.288 N 
HETATM   11  O16 MIQ B 502      -6.936 -16.607   4.203  1.00148.93    -0.171 OA
ENDROOT
BRANCH  10  12
HETATM   12  C18 MIQ B 502      -4.412 -15.126   4.113  1.00139.82     0.187 C 
HETATM   13  C19 MIQ B 502      -4.969 -15.115   2.684  1.00140.06     0.247 C 
HETATM   14  O25 MIQ B 502      -5.591 -14.183   2.316  1.00143.95    -0.271 OA
HETATM   15  N20 MIQ B 502      -4.748 -16.217   1.770  1.00140.02    -0.296 N 
HETATM   16  H13 MIQ B 502      -5.123 -16.200   0.842  1.00142.77     0.171 HD
HETATM   17  C21 MIQ B 502      -3.995 -17.348   2.247  1.00142.22     0.224 C 
HETATM   18  C22 MIQ B 502      -4.151 -17.701   3.713  1.00139.52     0.106 C 
HETATM   19  O24 MIQ B 502      -3.288 -17.966   1.529  1.00146.13    -0.273 OA
HETATM   20  C23 MIQ B 502      -3.771 -16.459   4.498  1.00139.15     0.045 C 
ENDBRANCH  10  12
BRANCH   5  21
HETATM   21  N6  MIQ B 502      -9.191 -12.470   9.331  1.00140.95    -0.377 N 
HETATM   22  C7  MIQ B 502     -10.515 -11.894   9.172  1.00142.12     0.149 C 
HETATM   23  C8  MIQ B 502     -10.683 -10.621   9.992  1.00144.10     0.187 C 
HETATM   24  O9  MIQ B 502     -10.249 -10.763  11.311  1.00148.65    -0.388 OA
HETATM   25  C10 MIQ B 502      -9.532 -11.897  11.702  1.00147.44     0.187 C 
HETATM   26  C11 MIQ B 502      -8.647 -12.592  10.673  1.00144.08     0.149 C 
ENDBRANCH   5  21
TORSDOF 2
ENDMDL
MODEL 6
REMARK VINA RESULT:      -6.3      4.822      6.674
REMARK  2 active torsions:
REMARK  status: ('A' for Active; 'I' for Inactive)
REMARK    1  A    between atoms: C5_5  and  N6_21 
REMARK    2  A    between atoms: C18_14  and  N17_19 
ROOT
HETATM    1  O1  MIQ B 502      -6.107 -17.884   3.555  1.00142.91    -0.171 OA
HETATM    2  C2  MIQ B 502      -6.665 -17.183   4.626  1.00141.17     0.195 A 
HETATM    3  C3  MIQ B 502      -8.015 -17.511   5.340  1.00141.71     0.035 A 
HETATM    4  C4  MIQ B 502      -9.041 -18.562   5.145  1.00142.86     0.046 A 
HETATM    5  C5  MIQ B 502     -10.191 -18.603   5.975  1.00139.53     0.031 A 
HETATM    6  C12 MIQ B 502     -10.361 -17.608   7.023  1.00139.38     0.030 A 
HETATM    7  C13 MIQ B 502      -9.377 -16.601   7.211  1.00141.18     0.019 A 
HETATM    8  C14 MIQ B 502      -8.171 -16.563   6.339  1.00138.77     0.033 A 
HETATM    9  C15 MIQ B 502      -6.911 -15.643   6.245  1.00142.10     0.195 A 
HETATM   10  N17 MIQ B 502      -6.181 -16.123   5.251  1.00139.42    -0.288 N 
HETATM   11  O16 MIQ B 502      -6.621 -14.538   7.047  1.00148.93    -0.171 OA
ENDROOT
BRANCH  10  12
HETATM   12  C18 MIQ B 502      -4.929 -15.501   4.861  1.00139.82     0.187 C 
HETATM   13  C19 MIQ B 502      -5.053 -15.081   3.392  1.00140.06     0.247 C 
HETATM   14  O25 MIQ B 502      -5.986 -14.444   3.052  1.00143.95    -0.271 OA
HETATM   15  N20 MIQ B 502      -4.053 -15.440   2.408  1.00140.02    -0.296 N 
HETATM   16  H13 MIQ B 502      -4.149 -15.165   1.450  1.00142.77     0.171 HD
HETATM   17  C21 MIQ B 502      -2.929 -16.227   2.845  1.00142.22     0.224 C 
HETATM   18  C22 MIQ B 502      -3.190 -17.233   3.949  1.00139.52     0.106 C 
HETATM   19  O24 MIQ B 502      -1.856 -16.090   2.369  1.00146.13    -0.273 OA
HETATM   20  C23 MIQ B 502      -3.761 -16.452   5.118  1.00139.15     0.045 C 
ENDBRANCH  10  12
BRANCH   5  21
HETATM   21  N6  MIQ B 502     -11.196 -19.629   5.763  1.00140.95    -0.377 N 
HETATM   22  C7  MIQ B 502     -12.339 -19.319   4.922  1.00142.12     0.149 C 
HETATM   23  C8  MIQ B 502     -13.558 -20.156   5.287  1.00144.10     0.187 C 
HETATM   24  O9  MIQ B 502     -13.264 -21.515   5.418  1.00148.65    -0.388 OA
HETATM   25  C10 MIQ B 502     -11.938 -21.954   5.433  1.00147.44     0.187 C 
HETATM   26  C11 MIQ B 502     -10.868 -21.025   5.995  1.00144.08     0.149 C 
ENDBRANCH   5  21
TORSDOF 2
ENDMDL
MODEL 7
REMARK VINA RESULT:      -6.3      2.822      4.975
REMARK  2 active torsions:
REMARK  status: ('A' for Active; 'I' for Inactive)
REMARK    1  A    between atoms: C5_5  and  N6_21 
REMARK    2  A    between atoms: C18_14  and  N17_19 
ROOT
HETATM    1  O1  MIQ B 502      -9.704 -15.920   8.002  1.00142.91    -0.171 OA
HETATM    2  C2  MIQ B 502      -9.246 -14.688   7.530  1.00141.17     0.195 A 
HETATM    3  C3  MIQ B 502      -8.176 -14.468   6.413  1.00141.71     0.035 A 
HETATM    4  C4  MIQ B 502      -7.380 -15.391   5.569  1.00142.86     0.046 A 
HETATM    5  C5  MIQ B 502      -6.465 -14.880   4.614  1.00139.53     0.031 A 
HETATM    6  C12 MIQ B 502      -6.309 -13.440   4.462  1.00139.38     0.030 A 
HETATM    7  C13 MIQ B 502      -7.073 -12.555   5.269  1.00141.18     0.019 A 
HETATM    8  C14 MIQ B 502      -8.034 -13.098   6.269  1.00138.77     0.033 A 
HETATM    9  C15 MIQ B 502      -9.021 -12.463   7.302  1.00142.10     0.195 A 
HETATM   10  N17 MIQ B 502      -9.612 -13.477   7.913  1.00139.42    -0.288 N 
HETATM   11  O16 MIQ B 502      -9.229 -11.102   7.531  1.00148.93    -0.171 OA
ENDROOT
BRANCH  10  12
HETATM   12  C18 MIQ B 502     -10.592 -13.262   8.960  1.00139.82     0.187 C 
HETATM   13  C19 MIQ B 502     -11.673 -12.326   8.405  1.00140.06     0.247 C 
HETATM   14  O25 MIQ B 502     -12.182 -12.583   7.372  1.00143.95    -0.271 OA
HETATM   15  N20 MIQ B 502     -12.093 -11.136   9.116  1.00140.02    -0.296 N 
HETATM   16  H13 MIQ B 502     -12.795 -10.530   8.739  1.00142.77     0.171 HD
HETATM   17  C21 MIQ B 502     -11.450 -10.838  10.370  1.00142.22     0.224 C 
HETATM   18  C22 MIQ B 502      -9.990 -11.228  10.497  1.00139.52     0.106 C 
HETATM   19  O24 MIQ B 502     -12.036 -10.320  11.257  1.00146.13    -0.273 OA
HETATM   20  C23 MIQ B 502      -9.916 -12.719  10.218  1.00139.15     0.045 C 
ENDBRANCH  10  12
BRANCH   5  21
HETATM   21  N6  MIQ B 502      -5.681 -15.795   3.805  1.00140.95    -0.377 N 
HETATM   22  C7  MIQ B 502      -4.416 -15.332   3.262  1.00142.12     0.149 C 
HETATM   23  C8  MIQ B 502      -4.039 -16.074   1.986  1.00144.10     0.187 C 
HETATM   24  O9  MIQ B 502      -4.166 -17.459   2.106  1.00148.65    -0.388 OA
HETATM   25  C10 MIQ B 502      -4.799 -18.018   3.219  1.00147.44     0.187 C 
HETATM   26  C11 MIQ B 502      -5.909 -17.226   3.901  1.00144.08     0.149 C 
ENDBRANCH   5  21
TORSDOF 2
ENDMDL
MODEL 8
REMARK VINA RESULT:      -6.2      4.754      6.667
REMARK  2 active torsions:
REMARK  status: ('A' for Active; 'I' for Inactive)
REMARK    1  A    between atoms: C5_5  and  N6_21 
REMARK    2  A    between atoms: C18_14  and  N17_19 
ROOT
HETATM    1  O1  MIQ B 502      -7.430 -16.295   3.781  1.00142.91    -0.171 OA
HETATM    2  C2  MIQ B 502      -6.943 -17.352   4.552  1.00141.17     0.195 A 
HETATM    3  C3  MIQ B 502      -7.797 -18.473   5.226  1.00141.71     0.035 A 
HETATM    4  C4  MIQ B 502      -9.251 -18.762   5.265  1.00142.86     0.046 A 
HETATM    5  C5  MIQ B 502      -9.739 -19.886   5.978  1.00139.53     0.031 A 
HETATM    6  C12 MIQ B 502      -8.807 -20.760   6.674  1.00139.38     0.030 A 
HETATM    7  C13 MIQ B 502      -7.414 -20.485   6.636  1.00141.18     0.019 A 
HETATM    8  C14 MIQ B 502      -6.906 -19.305   5.884  1.00138.77     0.033 A 
HETATM    9  C15 MIQ B 502      -5.490 -18.697   5.617  1.00142.10     0.195 A 
HETATM   10  N17 MIQ B 502      -5.688 -17.627   4.866  1.00139.42    -0.288 N 
HETATM   11  O16 MIQ B 502      -4.269 -19.187   6.083  1.00148.93    -0.171 OA
ENDROOT
BRANCH  10  12
HETATM   12  C18 MIQ B 502      -4.584 -16.792   4.431  1.00139.82     0.187 C 
HETATM   13  C19 MIQ B 502      -4.935 -15.338   4.769  1.00140.06     0.247 C 
HETATM   14  O25 MIQ B 502      -5.286 -15.069   5.863  1.00143.95    -0.271 OA
HETATM   15  N20 MIQ B 502      -4.843 -14.281   3.783  1.00140.02    -0.296 N 
HETATM   16  H13 MIQ B 502      -5.081 -13.337   4.014  1.00142.77     0.171 HD
HETATM   17  C21 MIQ B 502      -4.423 -14.635   2.452  1.00142.22     0.224 C 
HETATM   18  C22 MIQ B 502      -4.840 -16.003   1.947  1.00139.52     0.106 C 
HETATM   19  O24 MIQ B 502      -3.780 -13.896   1.789  1.00146.13    -0.273 OA
HETATM   20  C23 MIQ B 502      -4.303 -17.013   2.945  1.00139.15     0.045 C 
ENDBRANCH  10  12
BRANCH   5  21
HETATM   21  N6  MIQ B 502     -11.166 -20.148   6.020  1.00140.95    -0.377 N 
HETATM   22  C7  MIQ B 502     -12.017 -19.241   6.772  1.00142.12     0.149 C 
HETATM   23  C8  MIQ B 502     -13.282 -19.929   7.269  1.00144.10     0.187 C 
HETATM   24  O9  MIQ B 502     -13.927 -20.666   6.273  1.00148.65    -0.388 OA
HETATM   25  C10 MIQ B 502     -13.301 -20.896   5.046  1.00147.44     0.187 C 
HETATM   26  C11 MIQ B 502     -11.779 -20.992   5.010  1.00144.08     0.149 C 
ENDBRANCH   5  21
TORSDOF 2
ENDMDL
MODEL 9
REMARK VINA RESULT:      -6.1      2.993      8.234
REMARK  2 active torsions:
REMARK  status: ('A' for Active; 'I' for Inactive)
REMARK    1  A    between atoms: C5_5  and  N6_21 
REMARK    2  A    between atoms: C18_14  and  N17_19 
ROOT
HETATM    1  O1  MIQ B 502      -8.692 -16.655   6.110  1.00142.91    -0.171 OA
HETATM    2  C2  MIQ B 502      -7.995 -15.445   6.101  1.00141.17     0.195 A 
HETATM    3  C3  MIQ B 502      -8.380 -14.152   6.888  1.00141.71     0.035 A 
HETATM    4  C4  MIQ B 502      -9.491 -13.814   7.810  1.00142.86     0.046 A 
HETATM    5  C5  MIQ B 502      -9.575 -12.521   8.386  1.00139.53     0.031 A 
HETATM    6  C12 MIQ B 502      -8.565 -11.522   8.070  1.00139.38     0.030 A 
HETATM    7  C13 MIQ B 502      -7.500 -11.846   7.187  1.00141.18     0.019 A 
HETATM    8  C14 MIQ B 502      -7.415 -13.206   6.587  1.00138.77     0.033 A 
HETATM    9  C15 MIQ B 502      -6.424 -13.915   5.607  1.00142.10     0.195 A 
HETATM   10  N17 MIQ B 502      -6.887 -15.144   5.446  1.00139.42    -0.288 N 
HETATM   11  O16 MIQ B 502      -5.285 -13.359   5.023  1.00148.93    -0.171 OA
ENDROOT
BRANCH  10  12
HETATM   12  C18 MIQ B 502      -6.220 -16.096   4.578  1.00139.82     0.187 C 
HETATM   13  C19 MIQ B 502      -4.785 -16.271   5.090  1.00140.06     0.247 C 
HETATM   14  O25 MIQ B 502      -4.606 -16.515   6.230  1.00143.95    -0.271 OA
HETATM   15  N20 MIQ B 502      -3.640 -16.152   4.211  1.00140.02    -0.296 N 
HETATM   16  H13 MIQ B 502      -2.708 -16.262   4.559  1.00142.77     0.171 HD
HETATM   17  C21 MIQ B 502      -3.883 -15.844   2.825  1.00142.22     0.224 C 
HETATM   18  C22 MIQ B 502      -5.069 -14.948   2.524  1.00139.52     0.106 C 
HETATM   19  O24 MIQ B 502      -3.193 -16.273   1.967  1.00146.13    -0.273 OA
HETATM   20  C23 MIQ B 502      -6.286 -15.628   3.125  1.00139.15     0.045 C 
ENDBRANCH  10  12
BRANCH   5  21
HETATM   21  N6  MIQ B 502     -10.676 -12.199   9.276  1.00140.95    -0.377 N 
HETATM   22  C7  MIQ B 502     -10.788 -10.840   9.778  1.00142.12     0.149 C 
HETATM   23  C8  MIQ B 502     -11.514 -10.787  11.116  1.00144.10     0.187 C 
HETATM   24  O9  MIQ B 502     -12.699 -11.524  11.121  1.00148.65    -0.388 OA
HETATM   25  C10 MIQ B 502     -13.003 -12.383  10.061  1.00147.44     0.187 C 
HETATM   26  C11 MIQ B 502     -11.855 -13.046   9.308  1.00144.08     0.149 C 
ENDBRANCH   5  21
TORSDOF 2
ENDMDL
