MODEL 1
REMARK VINA RESULT:      -8.3      0.000      0.000
REMARK  2 active torsions:
REMARK  status: ('A' for Active; 'I' for Inactive)
REMARK    1  A    between atoms: C5_5  and  N6_21 
REMARK    2  A    between atoms: C18_14  and  N17_19 
ROOT
HETATM    1  O1  MIQ B 502     -17.302  -6.659   5.515  1.00142.91    -0.171 OA
HETATM    2  C2  MIQ B 502     -16.552  -5.508   5.262  1.00141.17     0.195 A 
HETATM    3  C3  MIQ B 502     -16.445  -4.759   3.895  1.00141.71     0.035 A 
HETATM    4  C4  MIQ B 502     -17.038  -4.991   2.557  1.00142.86     0.046 A 
HETATM    5  C5  MIQ B 502     -16.747  -4.113   1.482  1.00139.53     0.031 A 
HETATM    6  C12 MIQ B 502     -15.860  -2.979   1.696  1.00139.38     0.030 A 
HETATM    7  C13 MIQ B 502     -15.291  -2.756   2.979  1.00141.18     0.019 A 
HETATM    8  C14 MIQ B 502     -15.603  -3.679   4.104  1.00138.77     0.033 A 
HETATM    9  C15 MIQ B 502     -15.186  -3.757   5.609  1.00142.10     0.195 A 
HETATM   10  N17 MIQ B 502     -15.798  -4.821   6.103  1.00139.42    -0.288 N 
HETATM   11  O16 MIQ B 502     -14.338  -2.881   6.288  1.00148.93    -0.171 OA
ENDROOT
BRANCH  10  12
HETATM   12  C18 MIQ B 502     -15.628  -5.217   7.488  1.00139.82     0.187 C 
HETATM   13  C19 MIQ B 502     -16.091  -4.051   8.369  1.00140.06     0.247 C 
HETATM   14  O25 MIQ B 502     -17.150  -3.568   8.176  1.00143.95    -0.271 OA
HETATM   15  N20 MIQ B 502     -15.266  -3.526   9.438  1.00140.02    -0.296 N 
HETATM   16  H13 MIQ B 502     -15.577  -2.759  10.002  1.00142.77     0.171 HD
HETATM   17  C21 MIQ B 502     -13.973  -4.125   9.648  1.00142.22     0.224 C 
HETATM   18  C22 MIQ B 502     -13.250  -4.633   8.415  1.00139.52     0.106 C 
HETATM   19  O24 MIQ B 502     -13.504  -4.219  10.728  1.00146.13    -0.273 OA
HETATM   20  C23 MIQ B 502     -14.181  -5.630   7.750  1.00139.15     0.045 C 
ENDBRANCH  10  12
BRANCH   5  21
HETATM   21  N6  MIQ B 502     -17.323  -4.361   0.173  1.00140.95    -0.377 N 
HETATM   22  C7  MIQ B 502     -18.550  -5.134   0.090  1.00142.12     0.149 C 
HETATM   23  C8  MIQ B 502     -18.683  -5.847  -1.250  1.00144.10     0.187 C 
HETATM   24  O9  MIQ B 502     -18.430  -5.009  -2.338  1.00148.65    -0.388 OA
HETATM   25  C10 MIQ B 502     -17.890  -3.736  -2.141  1.00147.44     0.187 C 
HETATM   26  C11 MIQ B 502     -16.963  -3.513  -0.950  1.00144.08     0.149 C 
ENDBRANCH   5  21
TORSDOF 2
ENDMDL
MODEL 2
REMARK VINA RESULT:      -8.2      1.286      2.427
REMARK  2 active torsions:
REMARK  status: ('A' for Active; 'I' for Inactive)
REMARK    1  A    between atoms: C5_5  and  N6_21 
REMARK    2  A    between atoms: C18_14  and  N17_19 
ROOT
HETATM    1  O1  MIQ B 502     -15.096  -3.104   6.060  1.00142.91    -0.171 OA
HETATM    2  C2  MIQ B 502     -15.922  -4.132   5.600  1.00141.17     0.195 A 
HETATM    3  C3  MIQ B 502     -16.518  -4.263   4.162  1.00141.71     0.035 A 
HETATM    4  C4  MIQ B 502     -16.416  -3.434   2.938  1.00142.86     0.046 A 
HETATM    5  C5  MIQ B 502     -17.088  -3.822   1.751  1.00139.53     0.031 A 
HETATM    6  C12 MIQ B 502     -17.881  -5.043   1.736  1.00139.38     0.030 A 
HETATM    7  C13 MIQ B 502     -17.978  -5.839   2.910  1.00141.18     0.019 A 
HETATM    8  C14 MIQ B 502     -17.269  -5.427   4.152  1.00138.77     0.033 A 
HETATM    9  C15 MIQ B 502     -17.138  -6.023   5.591  1.00142.10     0.195 A 
HETATM   10  N17 MIQ B 502     -16.360  -5.189   6.262  1.00139.42    -0.288 N 
HETATM   11  O16 MIQ B 502     -17.726  -7.196   6.067  1.00148.93    -0.171 OA
ENDROOT
BRANCH  10  12
HETATM   12  C18 MIQ B 502     -16.029  -5.419   7.656  1.00139.82     0.187 C 
HETATM   13  C19 MIQ B 502     -16.403  -4.155   8.440  1.00140.06     0.247 C 
HETATM   14  O25 MIQ B 502     -17.483  -3.697   8.314  1.00143.95    -0.271 OA
HETATM   15  N20 MIQ B 502     -15.468  -3.508   9.338  1.00140.02    -0.296 N 
HETATM   16  H13 MIQ B 502     -15.722  -2.679   9.839  1.00142.77     0.171 HD
HETATM   17  C21 MIQ B 502     -14.152  -4.079   9.467  1.00142.22     0.224 C 
HETATM   18  C22 MIQ B 502     -13.568  -4.731   8.229  1.00139.52     0.106 C 
HETATM   19  O24 MIQ B 502     -13.562  -4.045  10.490  1.00146.13    -0.273 OA
HETATM   20  C23 MIQ B 502     -14.556  -5.799   7.797  1.00139.15     0.045 C 
ENDBRANCH  10  12
BRANCH   5  21
HETATM   21  N6  MIQ B 502     -16.991  -2.993   0.564  1.00140.95    -0.377 N 
HETATM   22  C7  MIQ B 502     -17.672  -3.427  -0.644  1.00142.12     0.149 C 
HETATM   23  C8  MIQ B 502     -17.004  -2.884  -1.900  1.00144.10     0.187 C 
HETATM   24  O9  MIQ B 502     -16.736  -1.516  -1.825  1.00148.65    -0.388 OA
HETATM   25  C10 MIQ B 502     -16.875  -0.833  -0.614  1.00147.44     0.187 C 
HETATM   26  C11 MIQ B 502     -16.625  -1.593   0.684  1.00144.08     0.149 C 
ENDBRANCH   5  21
TORSDOF 2
ENDMDL
MODEL 3
REMARK VINA RESULT:      -8.1      0.221      1.004
REMARK  2 active torsions:
REMARK  status: ('A' for Active; 'I' for Inactive)
REMARK    1  A    between atoms: C5_5  and  N6_21 
REMARK    2  A    between atoms: C18_14  and  N17_19 
ROOT
HETATM    1  O1  MIQ B 502     -17.338  -6.655   5.419  1.00142.91    -0.171 OA
HETATM    2  C2  MIQ B 502     -16.621  -5.480   5.181  1.00141.17     0.195 A 
HETATM    3  C3  MIQ B 502     -16.558  -4.695   3.832  1.00141.71     0.035 A 
HETATM    4  C4  MIQ B 502     -17.171  -4.908   2.500  1.00142.86     0.046 A 
HETATM    5  C5  MIQ B 502     -16.922  -3.997   1.442  1.00139.53     0.031 A 
HETATM    6  C12 MIQ B 502     -16.058  -2.847   1.668  1.00139.38     0.030 A 
HETATM    7  C13 MIQ B 502     -15.471  -2.642   2.945  1.00141.18     0.019 A 
HETATM    8  C14 MIQ B 502     -15.739  -3.600   4.053  1.00138.77     0.033 A 
HETATM    9  C15 MIQ B 502     -15.291  -3.705   5.547  1.00142.10     0.195 A 
HETATM   10  N17 MIQ B 502     -15.868  -4.795   6.025  1.00139.42    -0.288 N 
HETATM   11  O16 MIQ B 502     -14.451  -2.825   6.232  1.00148.93    -0.171 OA
ENDROOT
BRANCH  10  12
HETATM   12  C18 MIQ B 502     -15.662  -5.221   7.397  1.00139.82     0.187 C 
HETATM   13  C19 MIQ B 502     -16.129  -4.085   8.315  1.00140.06     0.247 C 
HETATM   14  O25 MIQ B 502     -17.200  -3.619   8.155  1.00143.95    -0.271 OA
HETATM   15  N20 MIQ B 502     -15.292  -3.571   9.379  1.00140.02    -0.296 N 
HETATM   16  H13 MIQ B 502     -15.605  -2.824   9.968  1.00142.77     0.171 HD
HETATM   17  C21 MIQ B 502     -13.984  -4.149   9.548  1.00142.22     0.224 C 
HETATM   18  C22 MIQ B 502     -13.277  -4.614   8.289  1.00139.52     0.106 C 
HETATM   19  O24 MIQ B 502     -13.490  -4.260  10.616  1.00146.13    -0.273 OA
HETATM   20  C23 MIQ B 502     -14.202  -5.613   7.619  1.00139.15     0.045 C 
ENDBRANCH  10  12
BRANCH   5  21
HETATM   21  N6  MIQ B 502     -17.517  -4.226   0.138  1.00140.95    -0.377 N 
HETATM   22  C7  MIQ B 502     -16.934  -3.565  -1.017  1.00142.12     0.149 C 
HETATM   23  C8  MIQ B 502     -17.957  -3.354  -2.127  1.00144.10     0.187 C 
HETATM   24  O9  MIQ B 502     -18.699  -4.502  -2.407  1.00148.65    -0.388 OA
HETATM   25  C10 MIQ B 502     -18.626  -5.616  -1.567  1.00147.44     0.187 C 
HETATM   26  C11 MIQ B 502     -18.354  -5.392  -0.083  1.00144.08     0.149 C 
ENDBRANCH   5  21
TORSDOF 2
ENDMDL
MODEL 4
REMARK VINA RESULT:      -7.9      2.309      3.258
REMARK  2 active torsions:
REMARK  status: ('A' for Active; 'I' for Inactive)
REMARK    1  A    between atoms: C5_5  and  N6_21 
REMARK    2  A    between atoms: C18_14  and  N17_19 
ROOT
HETATM    1  O1  MIQ B 502     -17.514  -6.916   3.838  1.00142.91    -0.171 OA
HETATM    2  C2  MIQ B 502     -16.857  -5.703   4.057  1.00141.17     0.195 A 
HETATM    3  C3  MIQ B 502     -16.644  -4.566   3.008  1.00141.71     0.035 A 
HETATM    4  C4  MIQ B 502     -17.029  -4.408   1.585  1.00142.86     0.046 A 
HETATM    5  C5  MIQ B 502     -16.686  -3.229   0.877  1.00139.53     0.031 A 
HETATM    6  C12 MIQ B 502     -15.954  -2.167   1.552  1.00139.38     0.030 A 
HETATM    7  C13 MIQ B 502     -15.586  -2.318   2.917  1.00141.18     0.019 A 
HETATM    8  C14 MIQ B 502     -15.950  -3.558   3.656  1.00138.77     0.033 A 
HETATM    9  C15 MIQ B 502     -15.731  -4.071   5.116  1.00142.10     0.195 A 
HETATM   10  N17 MIQ B 502     -16.294  -5.267   5.171  1.00139.42    -0.288 N 
HETATM   11  O16 MIQ B 502     -15.073  -3.400   6.148  1.00148.93    -0.171 OA
ENDROOT
BRANCH  10  12
HETATM   12  C18 MIQ B 502     -16.271  -6.060   6.386  1.00139.82     0.187 C 
HETATM   13  C19 MIQ B 502     -15.714  -7.444   6.032  1.00140.06     0.247 C 
HETATM   14  O25 MIQ B 502     -14.698  -7.520   5.436  1.00143.95    -0.271 OA
HETATM   15  N20 MIQ B 502     -16.397  -8.663   6.412  1.00140.02    -0.296 N 
HETATM   16  H13 MIQ B 502     -16.026  -9.560   6.168  1.00142.77     0.171 HD
HETATM   17  C21 MIQ B 502     -17.641  -8.543   7.129  1.00142.22     0.224 C 
HETATM   18  C22 MIQ B 502     -18.514  -7.352   6.785  1.00139.52     0.106 C 
HETATM   19  O24 MIQ B 502     -17.960  -9.333   7.948  1.00146.13    -0.273 OA
HETATM   20  C23 MIQ B 502     -17.664  -6.115   7.012  1.00139.15     0.045 C 
ENDBRANCH  10  12
BRANCH   5  21
HETATM   21  N6  MIQ B 502     -17.056  -3.094  -0.520  1.00140.95    -0.377 N 
HETATM   22  C7  MIQ B 502     -17.660  -4.231  -1.192  1.00142.12     0.149 C 
HETATM   23  C8  MIQ B 502     -17.405  -4.207  -2.694  1.00144.10     0.187 C 
HETATM   24  O9  MIQ B 502     -17.671  -2.963  -3.270  1.00148.65    -0.388 OA
HETATM   25  C10 MIQ B 502     -17.912  -1.847  -2.465  1.00147.44     0.187 C 
HETATM   26  C11 MIQ B 502     -17.238  -1.774  -1.098  1.00144.08     0.149 C 
ENDBRANCH   5  21
TORSDOF 2
ENDMDL
MODEL 5
REMARK VINA RESULT:      -7.6      2.305      8.378
REMARK  2 active torsions:
REMARK  status: ('A' for Active; 'I' for Inactive)
REMARK    1  A    between atoms: C5_5  and  N6_21 
REMARK    2  A    between atoms: C18_14  and  N17_19 
ROOT
HETATM    1  O1  MIQ B 502     -15.913  -2.964   1.477  1.00142.91    -0.171 OA
HETATM    2  C2  MIQ B 502     -17.050  -3.348   2.191  1.00141.17     0.195 A 
HETATM    3  C3  MIQ B 502     -17.092  -3.799   3.685  1.00141.71     0.035 A 
HETATM    4  C4  MIQ B 502     -16.055  -3.951   4.733  1.00142.86     0.046 A 
HETATM    5  C5  MIQ B 502     -16.409  -4.391   6.034  1.00139.53     0.031 A 
HETATM    6  C12 MIQ B 502     -17.799  -4.694   6.340  1.00139.38     0.030 A 
HETATM    7  C13 MIQ B 502     -18.794  -4.547   5.336  1.00141.18     0.019 A 
HETATM    8  C14 MIQ B 502     -18.417  -4.083   3.974  1.00138.77     0.033 A 
HETATM    9  C15 MIQ B 502     -19.202  -3.805   2.650  1.00142.10     0.195 A 
HETATM   10  N17 MIQ B 502     -18.302  -3.405   1.768  1.00139.42    -0.288 N 
HETATM   11  O16 MIQ B 502     -20.575  -3.954   2.446  1.00148.93    -0.171 OA
ENDROOT
BRANCH  10  12
HETATM   12  C18 MIQ B 502     -18.672  -3.070   0.406  1.00139.82     0.187 C 
HETATM   13  C19 MIQ B 502     -17.867  -3.975  -0.534  1.00140.06     0.247 C 
HETATM   14  O25 MIQ B 502     -17.867  -5.141  -0.352  1.00143.95    -0.271 OA
HETATM   15  N20 MIQ B 502     -17.109  -3.440  -1.646  1.00140.02    -0.296 N 
HETATM   16  H13 MIQ B 502     -16.582  -4.041  -2.249  1.00142.77     0.171 HD
HETATM   17  C21 MIQ B 502     -17.115  -2.013  -1.842  1.00142.22     0.224 C 
HETATM   18  C22 MIQ B 502     -17.194  -1.154  -0.595  1.00139.52     0.106 C 
HETATM   19  O24 MIQ B 502     -17.067  -1.538  -2.923  1.00146.13    -0.273 OA
HETATM   20  C23 MIQ B 502     -18.449  -1.582   0.145  1.00139.15     0.045 C 
ENDBRANCH  10  12
BRANCH   5  21
HETATM   21  N6  MIQ B 502     -15.380  -4.550   7.046  1.00140.95    -0.377 N 
HETATM   22  C7  MIQ B 502     -15.743  -4.360   8.440  1.00142.12     0.149 C 
HETATM   23  C8  MIQ B 502     -14.552  -3.920   9.282  1.00144.10     0.187 C 
HETATM   24  O9  MIQ B 502     -13.414  -4.698   9.062  1.00148.65    -0.388 OA
HETATM   25  C10 MIQ B 502     -13.373  -5.608   8.003  1.00147.44     0.187 C 
HETATM   26  C11 MIQ B 502     -14.173  -5.298   6.742  1.00144.08     0.149 C 
ENDBRANCH   5  21
TORSDOF 2
ENDMDL
MODEL 6
REMARK VINA RESULT:      -7.6      3.238      7.223
REMARK  2 active torsions:
REMARK  status: ('A' for Active; 'I' for Inactive)
REMARK    1  A    between atoms: C5_5  and  N6_21 
REMARK    2  A    between atoms: C18_14  and  N17_19 
ROOT
HETATM    1  O1  MIQ B 502     -17.632  -4.791   3.484  1.00142.91    -0.171 OA
HETATM    2  C2  MIQ B 502     -16.621  -4.690   4.442  1.00141.17     0.195 A 
HETATM    3  C3  MIQ B 502     -16.308  -5.729   5.566  1.00141.71     0.035 A 
HETATM    4  C4  MIQ B 502     -16.910  -7.029   5.948  1.00142.86     0.046 A 
HETATM    5  C5  MIQ B 502     -16.392  -7.764   7.045  1.00139.53     0.031 A 
HETATM    6  C12 MIQ B 502     -15.264  -7.237   7.799  1.00139.38     0.030 A 
HETATM    7  C13 MIQ B 502     -14.686  -5.992   7.432  1.00141.18     0.019 A 
HETATM    8  C14 MIQ B 502     -15.232  -5.226   6.278  1.00138.77     0.033 A 
HETATM    9  C15 MIQ B 502     -14.874  -3.867   5.593  1.00142.10     0.195 A 
HETATM   10  N17 MIQ B 502     -15.734  -3.723   4.597  1.00139.42    -0.288 N 
HETATM   11  O16 MIQ B 502     -13.855  -2.987   5.962  1.00148.93    -0.171 OA
ENDROOT
BRANCH  10  12
HETATM   12  C18 MIQ B 502     -15.710  -2.552   3.740  1.00139.82     0.187 C 
HETATM   13  C19 MIQ B 502     -17.115  -1.937   3.749  1.00140.06     0.247 C 
HETATM   14  O25 MIQ B 502     -17.640  -1.716   4.782  1.00143.95    -0.271 OA
HETATM   15  N20 MIQ B 502     -17.815  -1.614   2.523  1.00140.02    -0.296 N 
HETATM   16  H13 MIQ B 502     -18.735  -1.219   2.542  1.00142.77     0.171 HD
HETATM   17  C21 MIQ B 502     -17.157  -1.903   1.275  1.00142.22     0.224 C 
HETATM   18  C22 MIQ B 502     -16.259  -3.125   1.245  1.00139.52     0.106 C 
HETATM   19  O24 MIQ B 502     -17.308  -1.218   0.324  1.00146.13    -0.273 OA
HETATM   20  C23 MIQ B 502     -15.227  -2.928   2.340  1.00139.15     0.045 C 
ENDBRANCH  10  12
BRANCH   5  21
HETATM   21  N6  MIQ B 502     -17.000  -9.028   7.417  1.00140.95    -0.377 N 
HETATM   22  C7  MIQ B 502     -16.234  -9.954   8.232  1.00142.12     0.149 C 
HETATM   23  C8  MIQ B 502     -16.666 -11.398   8.012  1.00144.10     0.187 C 
HETATM   24  O9  MIQ B 502     -18.052 -11.564   8.062  1.00148.65    -0.388 OA
HETATM   25  C10 MIQ B 502     -18.898 -10.452   8.079  1.00147.44     0.187 C 
HETATM   26  C11 MIQ B 502     -18.444  -9.180   7.371  1.00144.08     0.149 C 
ENDBRANCH   5  21
TORSDOF 2
ENDMDL
MODEL 7
REMARK VINA RESULT:      -7.2      2.373      8.319
REMARK  2 active torsions:
REMARK  status: ('A' for Active; 'I' for Inactive)
REMARK    1  A    between atoms: C5_5  and  N6_21 
REMARK    2  A    between atoms: C18_14  and  N17_19 
ROOT
HETATM    1  O1  MIQ B 502     -19.152  -4.847   1.114  1.00142.91    -0.171 OA
HETATM    2  C2  MIQ B 502     -18.176  -3.858   1.258  1.00141.17     0.195 A 
HETATM    3  C3  MIQ B 502     -17.128  -3.758   2.413  1.00141.71     0.035 A 
HETATM    4  C4  MIQ B 502     -16.847  -4.588   3.608  1.00142.86     0.046 A 
HETATM    5  C5  MIQ B 502     -15.800  -4.235   4.497  1.00139.53     0.031 A 
HETATM    6  C12 MIQ B 502     -14.997  -3.050   4.231  1.00139.38     0.030 A 
HETATM    7  C13 MIQ B 502     -15.266  -2.254   3.085  1.00141.18     0.019 A 
HETATM    8  C14 MIQ B 502     -16.364  -2.632   2.154  1.00138.77     0.033 A 
HETATM    9  C15 MIQ B 502     -16.941  -2.029   0.832  1.00142.10     0.195 A 
HETATM   10  N17 MIQ B 502     -17.932  -2.827   0.468  1.00139.42    -0.288 N 
HETATM   11  O16 MIQ B 502     -16.497  -0.881   0.174  1.00148.93    -0.171 OA
ENDROOT
BRANCH  10  12
HETATM   12  C18 MIQ B 502     -18.717  -2.564  -0.723  1.00139.82     0.187 C 
HETATM   13  C19 MIQ B 502     -20.198  -2.630  -0.330  1.00140.06     0.247 C 
HETATM   14  O25 MIQ B 502     -20.577  -2.003   0.594  1.00143.95    -0.271 OA
HETATM   15  N20 MIQ B 502     -21.149  -3.437  -1.067  1.00140.02    -0.296 N 
HETATM   16  H13 MIQ B 502     -22.112  -3.476  -0.797  1.00142.77     0.171 HD
HETATM   17  C21 MIQ B 502     -20.660  -4.201  -2.186  1.00142.22     0.224 C 
HETATM   18  C22 MIQ B 502     -19.248  -4.742  -2.076  1.00139.52     0.106 C 
HETATM   19  O24 MIQ B 502     -21.327  -4.392  -3.143  1.00146.13    -0.273 OA
HETATM   20  C23 MIQ B 502     -18.345  -3.546  -1.833  1.00139.15     0.045 C 
ENDBRANCH  10  12
BRANCH   5  21
HETATM   21  N6  MIQ B 502     -15.546  -5.048   5.671  1.00140.95    -0.377 N 
HETATM   22  C7  MIQ B 502     -15.906  -6.455   5.633  1.00142.12     0.149 C 
HETATM   23  C8  MIQ B 502     -16.197  -7.005   7.023  1.00144.10     0.187 C 
HETATM   24  O9  MIQ B 502     -15.218  -6.665   7.959  1.00148.65    -0.388 OA
HETATM   25  C10 MIQ B 502     -14.234  -5.725   7.643  1.00147.44     0.187 C 
HETATM   26  C11 MIQ B 502     -14.579  -4.609   6.662  1.00144.08     0.149 C 
ENDBRANCH   5  21
TORSDOF 2
ENDMDL
MODEL 8
REMARK VINA RESULT:      -7.2      2.572      2.827
REMARK  2 active torsions:
REMARK  status: ('A' for Active; 'I' for Inactive)
REMARK    1  A    between atoms: C5_5  and  N6_21 
REMARK    2  A    between atoms: C18_14  and  N17_19 
ROOT
HETATM    1  O1  MIQ B 502     -19.017  -6.108   4.620  1.00142.91    -0.171 OA
HETATM    2  C2  MIQ B 502     -18.327  -4.916   4.389  1.00141.17     0.195 A 
HETATM    3  C3  MIQ B 502     -18.603  -3.898   3.238  1.00141.71     0.035 A 
HETATM    4  C4  MIQ B 502     -19.585  -3.857   2.128  1.00142.86     0.046 A 
HETATM    5  C5  MIQ B 502     -19.592  -2.770   1.217  1.00139.53     0.031 A 
HETATM    6  C12 MIQ B 502     -18.630  -1.688   1.375  1.00139.38     0.030 A 
HETATM    7  C13 MIQ B 502     -17.690  -1.727   2.440  1.00141.18     0.019 A 
HETATM    8  C14 MIQ B 502     -17.689  -2.869   3.394  1.00138.77     0.033 A 
HETATM    9  C15 MIQ B 502     -16.840  -3.251   4.650  1.00142.10     0.195 A 
HETATM   10  N17 MIQ B 502     -17.322  -4.405   5.080  1.00139.42    -0.288 N 
HETATM   11  O16 MIQ B 502     -15.785  -2.519   5.200  1.00148.93    -0.171 OA
ENDROOT
BRANCH  10  12
HETATM   12  C18 MIQ B 502     -16.759  -5.078   6.236  1.00139.82     0.187 C 
HETATM   13  C19 MIQ B 502     -16.764  -4.084   7.404  1.00140.06     0.247 C 
HETATM   14  O25 MIQ B 502     -17.762  -3.513   7.670  1.00143.95    -0.271 OA
HETATM   15  N20 MIQ B 502     -15.579  -3.830   8.197  1.00140.02    -0.296 N 
HETATM   16  H13 MIQ B 502     -15.594  -3.174   8.953  1.00142.77     0.171 HD
HETATM   17  C21 MIQ B 502     -14.371  -4.532   7.847  1.00142.22     0.224 C 
HETATM   18  C22 MIQ B 502     -14.156  -4.827   6.375  1.00139.52     0.106 C 
HETATM   19  O24 MIQ B 502     -13.590  -4.866   8.669  1.00146.13    -0.273 OA
HETATM   20  C23 MIQ B 502     -15.367  -5.617   5.912  1.00139.15     0.045 C 
ENDBRANCH  10  12
BRANCH   5  21
HETATM   21  N6  MIQ B 502     -20.549  -2.750   0.126  1.00140.95    -0.377 N 
HETATM   22  C7  MIQ B 502     -20.240  -3.495  -1.083  1.00142.12     0.149 C 
HETATM   23  C8  MIQ B 502     -20.929  -2.905  -2.306  1.00144.10     0.187 C 
HETATM   24  O9  MIQ B 502     -22.285  -2.647  -2.095  1.00148.65    -0.388 OA
HETATM   25  C10 MIQ B 502     -22.827  -2.723  -0.809  1.00147.44     0.187 C 
HETATM   26  C11 MIQ B 502     -21.933  -2.392   0.381  1.00144.08     0.149 C 
ENDBRANCH   5  21
TORSDOF 2
ENDMDL
MODEL 9
REMARK VINA RESULT:      -7.1      2.980      3.931
REMARK  2 active torsions:
REMARK  status: ('A' for Active; 'I' for Inactive)
REMARK    1  A    between atoms: C5_5  and  N6_21 
REMARK    2  A    between atoms: C18_14  and  N17_19 
ROOT
HETATM    1  O1  MIQ B 502     -18.399  -6.938   3.909  1.00142.91    -0.171 OA
HETATM    2  C2  MIQ B 502     -18.209  -5.611   4.303  1.00141.17     0.195 A 
HETATM    3  C3  MIQ B 502     -17.963  -4.394   3.356  1.00141.71     0.035 A 
HETATM    4  C4  MIQ B 502     -17.861  -4.252   1.884  1.00142.86     0.046 A 
HETATM    5  C5  MIQ B 502     -17.627  -2.981   1.301  1.00139.53     0.031 A 
HETATM    6  C12 MIQ B 502     -17.486  -1.810   2.154  1.00139.38     0.030 A 
HETATM    7  C13 MIQ B 502     -17.584  -1.945   3.565  1.00141.18     0.019 A 
HETATM    8  C14 MIQ B 502     -17.833  -3.282   4.172  1.00138.77     0.033 A 
HETATM    9  C15 MIQ B 502     -18.000  -3.811   5.633  1.00142.10     0.195 A 
HETATM   10  N17 MIQ B 502     -18.203  -5.114   5.528  1.00139.42    -0.288 N 
HETATM   11  O16 MIQ B 502     -17.943  -3.058   6.807  1.00148.93    -0.171 OA
ENDROOT
BRANCH  10  12
HETATM   12  C18 MIQ B 502     -18.387  -5.949   6.701  1.00139.82     0.187 C 
HETATM   13  C19 MIQ B 502     -17.379  -7.101   6.618  1.00140.06     0.247 C 
HETATM   14  O25 MIQ B 502     -16.241  -6.858   6.425  1.00143.95    -0.271 OA
HETATM   15  N20 MIQ B 502     -17.783  -8.483   6.775  1.00140.02    -0.296 N 
HETATM   16  H13 MIQ B 502     -17.116  -9.227   6.712  1.00142.77     0.171 HD
HETATM   17  C21 MIQ B 502     -19.179  -8.756   6.999  1.00142.22     0.224 C 
HETATM   18  C22 MIQ B 502     -20.171  -7.829   6.325  1.00139.52     0.106 C 
HETATM   19  O24 MIQ B 502     -19.532  -9.656   7.680  1.00146.13    -0.273 OA
HETATM   20  C23 MIQ B 502     -19.837  -6.424   6.793  1.00139.15     0.045 C 
ENDBRANCH  10  12
BRANCH   5  21
HETATM   21  N6  MIQ B 502     -17.515  -2.859  -0.141  1.00140.95    -0.377 N 
HETATM   22  C7  MIQ B 502     -18.087  -3.904  -0.973  1.00142.12     0.149 C 
HETATM   23  C8  MIQ B 502     -17.381  -4.009  -2.318  1.00144.10     0.187 C 
HETATM   24  O9  MIQ B 502     -17.216  -2.772  -2.944  1.00148.65    -0.388 OA
HETATM   25  C10 MIQ B 502     -17.478  -1.588  -2.250  1.00147.44     0.187 C 
HETATM   26  C11 MIQ B 502     -17.257  -1.562  -0.742  1.00144.08     0.149 C 
ENDBRANCH   5  21
TORSDOF 2
ENDMDL
