MODEL 1
REMARK VINA RESULT:      -8.6      0.000      0.000
REMARK  2 active torsions:
REMARK  status: ('A' for Active; 'I' for Inactive)
REMARK    1  A    between atoms: C5_5  and  N6_21 
REMARK    2  A    between atoms: C18_14  and  N17_19 
ROOT
HETATM    1  O1  MIQ B 502      -7.877 -12.267  -0.550  1.00142.91    -0.171 OA
HETATM    2  C2  MIQ B 502      -7.297 -13.526  -0.380  1.00141.17     0.195 A 
HETATM    3  C3  MIQ B 502      -6.080 -13.864   0.540  1.00141.71     0.035 A 
HETATM    4  C4  MIQ B 502      -5.229 -13.053   1.442  1.00142.86     0.046 A 
HETATM    5  C5  MIQ B 502      -4.171 -13.659   2.166  1.00139.53     0.031 A 
HETATM    6  C12 MIQ B 502      -3.921 -15.086   2.021  1.00139.38     0.030 A 
HETATM    7  C13 MIQ B 502      -4.738 -15.864   1.157  1.00141.18     0.019 A 
HETATM    8  C14 MIQ B 502      -5.849 -15.223   0.401  1.00138.77     0.033 A 
HETATM    9  C15 MIQ B 502      -6.928 -15.731  -0.609  1.00142.10     0.195 A 
HETATM   10  N17 MIQ B 502      -7.647 -14.671  -0.940  1.00139.42    -0.288 N 
HETATM   11  O16 MIQ B 502      -7.094 -17.039  -1.067  1.00148.93    -0.171 OA
ENDROOT
BRANCH  10  12
HETATM   12  C18 MIQ B 502      -8.744 -14.765  -1.885  1.00139.82     0.187 C 
HETATM   13  C19 MIQ B 502      -8.409 -13.866  -3.081  1.00140.06     0.247 C 
HETATM   14  O25 MIQ B 502      -7.361 -13.979  -3.611  1.00143.95    -0.271 OA
HETATM   15  N20 MIQ B 502      -9.347 -12.883  -3.585  1.00140.02    -0.296 N 
HETATM   16  H13 MIQ B 502      -9.114 -12.298  -4.362  1.00142.77     0.171 HD
HETATM   17  C21 MIQ B 502     -10.616 -12.757  -2.915  1.00142.22     0.224 C 
HETATM   18  C22 MIQ B 502     -10.623 -13.002  -1.418  1.00139.52     0.106 C 
HETATM   19  O24 MIQ B 502     -11.602 -12.481  -3.505  1.00146.13    -0.273 OA
HETATM   20  C23 MIQ B 502     -10.063 -14.396  -1.206  1.00139.15     0.045 C 
ENDBRANCH  10  12
BRANCH   5  21
HETATM   21  N6  MIQ B 502      -3.336 -12.850   3.035  1.00140.95    -0.377 N 
HETATM   22  C7  MIQ B 502      -3.954 -11.769   3.783  1.00142.12     0.149 C 
HETATM   23  C8  MIQ B 502      -2.961 -10.660   4.105  1.00144.10     0.187 C 
HETATM   24  O9  MIQ B 502      -1.761 -11.142   4.633  1.00148.65    -0.388 OA
HETATM   25  C10 MIQ B 502      -1.480 -12.510   4.619  1.00147.44     0.187 C 
HETATM   26  C11 MIQ B 502      -2.055 -13.361   3.491  1.00144.08     0.149 C 
ENDBRANCH   5  21
TORSDOF 2
ENDMDL
MODEL 2
REMARK VINA RESULT:      -8.4      0.230      1.007
REMARK  2 active torsions:
REMARK  status: ('A' for Active; 'I' for Inactive)
REMARK    1  A    between atoms: C5_5  and  N6_21 
REMARK    2  A    between atoms: C18_14  and  N17_19 
ROOT
HETATM    1  O1  MIQ B 502      -7.962 -12.392  -0.495  1.00142.91    -0.171 OA
HETATM    2  C2  MIQ B 502      -7.331 -13.633  -0.383  1.00141.17     0.195 A 
HETATM    3  C3  MIQ B 502      -6.122 -13.972   0.547  1.00141.71     0.035 A 
HETATM    4  C4  MIQ B 502      -5.329 -13.180   1.517  1.00142.86     0.046 A 
HETATM    5  C5  MIQ B 502      -4.263 -13.782   2.232  1.00139.53     0.031 A 
HETATM    6  C12 MIQ B 502      -3.947 -15.186   2.011  1.00139.38     0.030 A 
HETATM    7  C13 MIQ B 502      -4.707 -15.946   1.082  1.00141.18     0.019 A 
HETATM    8  C14 MIQ B 502      -5.827 -15.309   0.336  1.00138.77     0.033 A 
HETATM    9  C15 MIQ B 502      -6.859 -15.803  -0.731  1.00142.10     0.195 A 
HETATM   10  N17 MIQ B 502      -7.616 -14.757  -1.018  1.00139.42    -0.288 N 
HETATM   11  O16 MIQ B 502      -6.955 -17.088  -1.268  1.00148.93    -0.171 OA
ENDROOT
BRANCH  10  12
HETATM   12  C18 MIQ B 502      -8.685 -14.842  -1.995  1.00139.82     0.187 C 
HETATM   13  C19 MIQ B 502      -8.349 -13.879  -3.141  1.00140.06     0.247 C 
HETATM   14  O25 MIQ B 502      -7.285 -13.935  -3.647  1.00143.95    -0.271 OA
HETATM   15  N20 MIQ B 502      -9.306 -12.905  -3.625  1.00140.02    -0.296 N 
HETATM   16  H13 MIQ B 502      -9.072 -12.278  -4.369  1.00142.77     0.171 HD
HETATM   17  C21 MIQ B 502     -10.594 -12.849  -2.984  1.00142.22     0.224 C 
HETATM   18  C22 MIQ B 502     -10.632 -13.162  -1.501  1.00139.52     0.106 C 
HETATM   19  O24 MIQ B 502     -11.573 -12.578  -3.588  1.00146.13    -0.273 OA
HETATM   20  C23 MIQ B 502     -10.032 -14.546  -1.337  1.00139.15     0.045 C 
ENDBRANCH  10  12
BRANCH   5  21
HETATM   21  N6  MIQ B 502      -3.486 -12.991   3.168  1.00140.95    -0.377 N 
HETATM   22  C7  MIQ B 502      -2.105 -13.368   3.417  1.00142.12     0.149 C 
HETATM   23  C8  MIQ B 502      -1.635 -12.927   4.797  1.00144.10     0.187 C 
HETATM   24  O9  MIQ B 502      -1.950 -11.597   5.079  1.00148.65    -0.388 OA
HETATM   25  C10 MIQ B 502      -2.810 -10.880   4.242  1.00147.44     0.187 C 
HETATM   26  C11 MIQ B 502      -3.902 -11.639   3.496  1.00144.08     0.149 C 
ENDBRANCH   5  21
TORSDOF 2
ENDMDL
MODEL 3
REMARK VINA RESULT:      -8.2      1.654      2.032
REMARK  2 active torsions:
REMARK  status: ('A' for Active; 'I' for Inactive)
REMARK    1  A    between atoms: C5_5  and  N6_21 
REMARK    2  A    between atoms: C18_14  and  N17_19 
ROOT
HETATM    1  O1  MIQ B 502      -7.688 -11.807   0.778  1.00142.91    -0.171 OA
HETATM    2  C2  MIQ B 502      -7.032 -13.020   0.556  1.00141.17     0.195 A 
HETATM    3  C3  MIQ B 502      -5.736 -13.513   1.275  1.00141.71     0.035 A 
HETATM    4  C4  MIQ B 502      -4.865 -12.926   2.321  1.00142.86     0.046 A 
HETATM    5  C5  MIQ B 502      -3.728 -13.632   2.786  1.00139.53     0.031 A 
HETATM    6  C12 MIQ B 502      -3.415 -14.943   2.234  1.00139.38     0.030 A 
HETATM    7  C13 MIQ B 502      -4.251 -15.506   1.232  1.00141.18     0.019 A 
HETATM    8  C14 MIQ B 502      -5.445 -14.761   0.749  1.00138.77     0.033 A 
HETATM    9  C15 MIQ B 502      -6.566 -15.045  -0.303  1.00142.10     0.195 A 
HETATM   10  N17 MIQ B 502      -7.361 -13.987  -0.283  1.00139.42    -0.288 N 
HETATM   11  O16 MIQ B 502      -6.696 -16.183  -1.100  1.00148.93    -0.171 OA
ENDROOT
BRANCH  10  12
HETATM   12  C18 MIQ B 502      -8.518 -13.893  -1.155  1.00139.82     0.187 C 
HETATM   13  C19 MIQ B 502      -9.321 -15.191  -1.008  1.00140.06     0.247 C 
HETATM   14  O25 MIQ B 502      -9.612 -15.569   0.071  1.00143.95    -0.271 OA
HETATM   15  N20 MIQ B 502      -9.739 -15.965  -2.158  1.00140.02    -0.296 N 
HETATM   16  H13 MIQ B 502     -10.257 -16.815  -2.049  1.00142.77     0.171 HD
HETATM   17  C21 MIQ B 502      -9.362 -15.489  -3.464  1.00142.22     0.224 C 
HETATM   18  C22 MIQ B 502      -8.028 -14.776  -3.571  1.00139.52     0.106 C 
HETATM   19  O24 MIQ B 502     -10.063 -15.643  -4.404  1.00146.13    -0.273 OA
HETATM   20  C23 MIQ B 502      -8.080 -13.617  -2.592  1.00139.15     0.045 C 
ENDBRANCH  10  12
BRANCH   5  21
HETATM   21  N6  MIQ B 502      -2.875 -13.039   3.800  1.00140.95    -0.377 N 
HETATM   22  C7  MIQ B 502      -3.036 -11.627   4.104  1.00142.12     0.149 C 
HETATM   23  C8  MIQ B 502      -1.751 -11.011   4.642  1.00144.10     0.187 C 
HETATM   24  O9  MIQ B 502      -1.164 -11.775   5.652  1.00148.65    -0.388 OA
HETATM   25  C10 MIQ B 502      -1.626 -13.066   5.923  1.00147.44     0.187 C 
HETATM   26  C11 MIQ B 502      -2.215 -13.885   4.779  1.00144.08     0.149 C 
ENDBRANCH   5  21
TORSDOF 2
ENDMDL
MODEL 4
REMARK VINA RESULT:      -8.1      1.738      2.056
REMARK  2 active torsions:
REMARK  status: ('A' for Active; 'I' for Inactive)
REMARK    1  A    between atoms: C5_5  and  N6_21 
REMARK    2  A    between atoms: C18_14  and  N17_19 
ROOT
HETATM    1  O1  MIQ B 502      -6.959 -13.805  -0.293  1.00142.91    -0.171 OA
HETATM    2  C2  MIQ B 502      -6.051 -14.800   0.077  1.00141.17     0.195 A 
HETATM    3  C3  MIQ B 502      -4.885 -14.648   1.106  1.00141.71     0.035 A 
HETATM    4  C4  MIQ B 502      -4.406 -13.524   1.945  1.00142.86     0.046 A 
HETATM    5  C5  MIQ B 502      -3.293 -13.696   2.805  1.00139.53     0.031 A 
HETATM    6  C12 MIQ B 502      -2.618 -14.985   2.865  1.00139.38     0.030 A 
HETATM    7  C13 MIQ B 502      -3.078 -16.063   2.062  1.00141.18     0.019 A 
HETATM    8  C14 MIQ B 502      -4.249 -15.877   1.162  1.00138.77     0.033 A 
HETATM    9  C15 MIQ B 502      -5.024 -16.797   0.163  1.00142.10     0.195 A 
HETATM   10  N17 MIQ B 502      -5.988 -16.050  -0.348  1.00139.42    -0.288 N 
HETATM   11  O16 MIQ B 502      -4.748 -18.134  -0.129  1.00148.93    -0.171 OA
ENDROOT
BRANCH  10  12
HETATM   12  C18 MIQ B 502      -6.910 -16.576  -1.338  1.00139.82     0.187 C 
HETATM   13  C19 MIQ B 502      -6.827 -15.678  -2.578  1.00140.06     0.247 C 
HETATM   14  O25 MIQ B 502      -5.771 -15.436  -3.045  1.00143.95    -0.271 OA
HETATM   15  N20 MIQ B 502      -8.012 -15.121  -3.198  1.00140.02    -0.296 N 
HETATM   16  H13 MIQ B 502      -7.944 -14.530  -4.004  1.00142.77     0.171 HD
HETATM   17  C21 MIQ B 502      -9.289 -15.421  -2.604  1.00142.22     0.224 C 
HETATM   18  C22 MIQ B 502      -9.319 -15.578  -1.096  1.00139.52     0.106 C 
HETATM   19  O24 MIQ B 502     -10.263 -15.545  -3.262  1.00146.13    -0.273 OA
HETATM   20  C23 MIQ B 502      -8.320 -16.668  -0.755  1.00139.15     0.045 C 
ENDBRANCH  10  12
BRANCH   5  21
HETATM   21  N6  MIQ B 502      -2.825 -12.582   3.610  1.00140.95    -0.377 N 
HETATM   22  C7  MIQ B 502      -3.770 -11.539   3.969  1.00142.12     0.149 C 
HETATM   23  C8  MIQ B 502      -3.078 -10.204   4.212  1.00144.10     0.187 C 
HETATM   24  O9  MIQ B 502      -1.965 -10.313   5.047  1.00148.65    -0.388 OA
HETATM   25  C10 MIQ B 502      -1.459 -11.569   5.392  1.00147.44     0.187 C 
HETATM   26  C11 MIQ B 502      -1.611 -12.715   4.397  1.00144.08     0.149 C 
ENDBRANCH   5  21
TORSDOF 2
ENDMDL
MODEL 5
REMARK VINA RESULT:      -8.1      3.202      8.093
REMARK  2 active torsions:
REMARK  status: ('A' for Active; 'I' for Inactive)
REMARK    1  A    between atoms: C5_5  and  N6_21 
REMARK    2  A    between atoms: C18_14  and  N17_19 
ROOT
HETATM    1  O1  MIQ B 502      -6.162 -16.336  -2.529  1.00142.91    -0.171 OA
HETATM    2  C2  MIQ B 502      -6.520 -15.399  -1.558  1.00141.17     0.195 A 
HETATM    3  C3  MIQ B 502      -7.676 -14.354  -1.667  1.00141.71     0.035 A 
HETATM    4  C4  MIQ B 502      -8.672 -14.042  -2.718  1.00142.86     0.046 A 
HETATM    5  C5  MIQ B 502      -9.623 -13.009  -2.522  1.00139.53     0.031 A 
HETATM    6  C12 MIQ B 502      -9.619 -12.250  -1.279  1.00139.38     0.030 A 
HETATM    7  C13 MIQ B 502      -8.664 -12.550  -0.270  1.00141.18     0.019 A 
HETATM    8  C14 MIQ B 502      -7.670 -13.637  -0.481  1.00138.77     0.033 A 
HETATM    9  C15 MIQ B 502      -6.505 -14.242   0.369  1.00142.10     0.195 A 
HETATM   10  N17 MIQ B 502      -5.976 -15.204  -0.369  1.00139.42    -0.288 N 
HETATM   11  O16 MIQ B 502      -6.107 -13.841   1.646  1.00148.93    -0.171 OA
ENDROOT
BRANCH  10  12
HETATM   12  C18 MIQ B 502      -4.846 -15.983   0.100  1.00139.82     0.187 C 
HETATM   13  C19 MIQ B 502      -3.760 -15.931  -0.982  1.00140.06     0.247 C 
HETATM   14  O25 MIQ B 502      -3.425 -14.885  -1.412  1.00143.95    -0.271 OA
HETATM   15  N20 MIQ B 502      -3.128 -17.133  -1.488  1.00140.02    -0.296 N 
HETATM   16  H13 MIQ B 502      -2.426 -17.086  -2.199  1.00142.77     0.171 HD
HETATM   17  C21 MIQ B 502      -3.562 -18.398  -0.955  1.00142.22     0.224 C 
HETATM   18  C22 MIQ B 502      -5.023 -18.509  -0.566  1.00139.52     0.106 C 
HETATM   19  O24 MIQ B 502      -2.812 -19.302  -0.823  1.00146.13    -0.273 OA
HETATM   20  C23 MIQ B 502      -5.286 -17.406   0.442  1.00139.15     0.045 C 
ENDBRANCH  10  12
BRANCH   5  21
HETATM   21  N6  MIQ B 502     -10.584 -12.704  -3.566  1.00140.95    -0.377 N 
HETATM   22  C7  MIQ B 502     -10.746 -13.650  -4.657  1.00142.12     0.149 C 
HETATM   23  C8  MIQ B 502     -11.236 -12.971  -5.930  1.00144.10     0.187 C 
HETATM   24  O9  MIQ B 502     -12.322 -12.122  -5.709  1.00148.65    -0.388 OA
HETATM   25  C10 MIQ B 502     -12.713 -11.796  -4.408  1.00147.44     0.187 C 
HETATM   26  C11 MIQ B 502     -11.648 -11.748  -3.317  1.00144.08     0.149 C 
ENDBRANCH   5  21
TORSDOF 2
ENDMDL
MODEL 6
REMARK VINA RESULT:      -8.0      2.094      8.730
REMARK  2 active torsions:
REMARK  status: ('A' for Active; 'I' for Inactive)
REMARK    1  A    between atoms: C5_5  and  N6_21 
REMARK    2  A    between atoms: C18_14  and  N17_19 
ROOT
HETATM    1  O1  MIQ B 502      -3.870 -10.863   3.518  1.00142.91    -0.171 OA
HETATM    2  C2  MIQ B 502      -3.588 -12.209   3.276  1.00141.17     0.195 A 
HETATM    3  C3  MIQ B 502      -4.394 -13.167   2.342  1.00141.71     0.035 A 
HETATM    4  C4  MIQ B 502      -5.594 -12.989   1.491  1.00142.86     0.046 A 
HETATM    5  C5  MIQ B 502      -6.105 -14.075   0.736  1.00139.53     0.031 A 
HETATM    6  C12 MIQ B 502      -5.446 -15.371   0.798  1.00139.38     0.030 A 
HETATM    7  C13 MIQ B 502      -4.294 -15.542   1.612  1.00141.18     0.019 A 
HETATM    8  C14 MIQ B 502      -3.761 -14.398   2.401  1.00138.77     0.033 A 
HETATM    9  C15 MIQ B 502      -2.554 -14.203   3.376  1.00142.10     0.195 A 
HETATM   10  N17 MIQ B 502      -2.601 -12.940   3.767  1.00139.42    -0.288 N 
HETATM   11  O16 MIQ B 502      -1.622 -15.170   3.756  1.00148.93    -0.171 OA
ENDROOT
BRANCH  10  12
HETATM   12  C18 MIQ B 502      -1.632 -12.400   4.701  1.00139.82     0.187 C 
HETATM   13  C19 MIQ B 502      -0.236 -12.620   4.106  1.00140.06     0.247 C 
HETATM   14  O25 MIQ B 502      -0.021 -12.274   2.999  1.00143.95    -0.271 OA
HETATM   15  N20 MIQ B 502       0.831 -13.237   4.868  1.00140.02    -0.296 N 
HETATM   16  H13 MIQ B 502       1.736 -13.381   4.465  1.00142.77     0.171 HD
HETATM   17  C21 MIQ B 502       0.541 -13.660   6.213  1.00142.22     0.224 C 
HETATM   18  C22 MIQ B 502      -0.865 -14.160   6.482  1.00139.52     0.106 C 
HETATM   19  O24 MIQ B 502       1.359 -13.614   7.065  1.00146.13    -0.273 OA
HETATM   20  C23 MIQ B 502      -1.806 -13.039   6.078  1.00139.15     0.045 C 
ENDBRANCH  10  12
BRANCH   5  21
HETATM   21  N6  MIQ B 502      -7.290 -13.890  -0.081  1.00140.95    -0.377 N 
HETATM   22  C7  MIQ B 502      -8.188 -15.017  -0.268  1.00142.12     0.149 C 
HETATM   23  C8  MIQ B 502      -8.964 -14.916  -1.575  1.00144.10     0.187 C 
HETATM   24  O9  MIQ B 502      -9.537 -13.657  -1.771  1.00148.65    -0.388 OA
HETATM   25  C10 MIQ B 502      -9.198 -12.588  -0.938  1.00147.44     0.187 C 
HETATM   26  C11 MIQ B 502      -7.800 -12.553  -0.328  1.00144.08     0.149 C 
ENDBRANCH   5  21
TORSDOF 2
ENDMDL
MODEL 7
REMARK VINA RESULT:      -8.0      2.520      3.550
REMARK  2 active torsions:
REMARK  status: ('A' for Active; 'I' for Inactive)
REMARK    1  A    between atoms: C5_5  and  N6_21 
REMARK    2  A    between atoms: C18_14  and  N17_19 
ROOT
HETATM    1  O1  MIQ B 502      -3.634 -17.420   0.971  1.00142.91    -0.171 OA
HETATM    2  C2  MIQ B 502      -4.334 -16.212   0.956  1.00141.17     0.195 A 
HETATM    3  C3  MIQ B 502      -4.013 -14.949   1.817  1.00141.71     0.035 A 
HETATM    4  C4  MIQ B 502      -2.972 -14.641   2.825  1.00142.86     0.046 A 
HETATM    5  C5  MIQ B 502      -2.935 -13.370   3.452  1.00139.53     0.031 A 
HETATM    6  C12 MIQ B 502      -3.925 -12.362   3.102  1.00139.38     0.030 A 
HETATM    7  C13 MIQ B 502      -4.924 -12.657   2.135  1.00141.18     0.019 A 
HETATM    8  C14 MIQ B 502      -4.956 -13.992   1.478  1.00138.77     0.033 A 
HETATM    9  C15 MIQ B 502      -5.867 -14.665   0.400  1.00142.10     0.195 A 
HETATM   10  N17 MIQ B 502      -5.387 -15.885   0.225  1.00139.42    -0.288 N 
HETATM   11  O16 MIQ B 502      -6.966 -14.091  -0.243  1.00148.93    -0.171 OA
ENDROOT
BRANCH  10  12
HETATM   12  C18 MIQ B 502      -6.001 -16.815  -0.704  1.00139.82     0.187 C 
HETATM   13  C19 MIQ B 502      -6.161 -16.095  -2.049  1.00140.06     0.247 C 
HETATM   14  O25 MIQ B 502      -5.230 -15.548  -2.524  1.00143.95    -0.271 OA
HETATM   15  N20 MIQ B 502      -7.424 -16.073  -2.757  1.00140.02    -0.296 N 
HETATM   16  H13 MIQ B 502      -7.518 -15.594  -3.631  1.00142.77     0.171 HD
HETATM   17  C21 MIQ B 502      -8.549 -16.739  -2.152  1.00142.22     0.224 C 
HETATM   18  C22 MIQ B 502      -8.617 -16.721  -0.637  1.00139.52     0.106 C 
HETATM   19  O24 MIQ B 502      -9.374 -17.277  -2.806  1.00146.13    -0.273 OA
HETATM   20  C23 MIQ B 502      -7.321 -17.336  -0.140  1.00139.15     0.045 C 
ENDBRANCH  10  12
BRANCH   5  21
HETATM   21  N6  MIQ B 502      -1.918 -13.087   4.449  1.00140.95    -0.377 N 
HETATM   22  C7  MIQ B 502      -0.556 -12.847   4.003  1.00142.12     0.149 C 
HETATM   23  C8  MIQ B 502       0.465 -13.203   5.076  1.00144.10     0.187 C 
HETATM   24  O9  MIQ B 502       0.144 -12.674   6.328  1.00148.65    -0.388 OA
HETATM   25  C10 MIQ B 502      -1.107 -12.094   6.552  1.00147.44     0.187 C 
HETATM   26  C11 MIQ B 502      -2.305 -12.620   5.768  1.00144.08     0.149 C 
ENDBRANCH   5  21
TORSDOF 2
ENDMDL
MODEL 8
REMARK VINA RESULT:      -8.0      2.293      8.434
REMARK  2 active torsions:
REMARK  status: ('A' for Active; 'I' for Inactive)
REMARK    1  A    between atoms: C5_5  and  N6_21 
REMARK    2  A    between atoms: C18_14  and  N17_19 
ROOT
HETATM    1  O1  MIQ B 502      -4.255 -13.076   4.348  1.00142.91    -0.171 OA
HETATM    2  C2  MIQ B 502      -3.644 -13.549   3.185  1.00141.17     0.195 A 
HETATM    3  C3  MIQ B 502      -4.372 -14.018   1.885  1.00141.71     0.035 A 
HETATM    4  C4  MIQ B 502      -5.799 -14.107   1.492  1.00142.86     0.046 A 
HETATM    5  C5  MIQ B 502      -6.160 -14.585   0.207  1.00139.53     0.031 A 
HETATM    6  C12 MIQ B 502      -5.123 -14.990  -0.731  1.00139.38     0.030 A 
HETATM    7  C13 MIQ B 502      -3.755 -14.904  -0.355  1.00141.18     0.019 A 
HETATM    8  C14 MIQ B 502      -3.382 -14.399   0.995  1.00138.77     0.033 A 
HETATM    9  C15 MIQ B 502      -2.030 -14.164   1.745  1.00142.10     0.195 A 
HETATM   10  N17 MIQ B 502      -2.353 -13.691   2.938  1.00139.42    -0.288 N 
HETATM   11  O16 MIQ B 502      -0.747 -14.408   1.253  1.00148.93    -0.171 OA
ENDROOT
BRANCH  10  12
HETATM   12  C18 MIQ B 502      -1.338 -13.368   3.924  1.00139.82     0.187 C 
HETATM   13  C19 MIQ B 502      -1.578 -14.258   5.150  1.00140.06     0.247 C 
HETATM   14  O25 MIQ B 502      -1.694 -15.423   5.003  1.00143.95    -0.271 OA
HETATM   15  N20 MIQ B 502      -1.661 -13.709   6.488  1.00140.02    -0.296 N 
HETATM   16  H13 MIQ B 502      -1.824 -14.300   7.279  1.00142.77     0.171 HD
HETATM   17  C21 MIQ B 502      -1.526 -12.283   6.641  1.00142.22     0.224 C 
HETATM   18  C22 MIQ B 502      -2.070 -11.423   5.517  1.00139.52     0.106 C 
HETATM   19  O24 MIQ B 502      -1.012 -11.810   7.595  1.00146.13    -0.273 OA
HETATM   20  C23 MIQ B 502      -1.368 -11.876   4.249  1.00139.15     0.045 C 
ENDBRANCH  10  12
BRANCH   5  21
HETATM   21  N6  MIQ B 502      -7.561 -14.681  -0.158  1.00140.95    -0.377 N 
HETATM   22  C7  MIQ B 502      -8.517 -13.825   0.523  1.00142.12     0.149 C 
HETATM   23  C8  MIQ B 502      -9.913 -14.435   0.544  1.00144.10     0.187 C 
HETATM   24  O9  MIQ B 502     -10.319 -14.906  -0.706  1.00148.65    -0.388 OA
HETATM   25  C10 MIQ B 502      -9.406 -14.993  -1.761  1.00147.44     0.187 C 
HETATM   26  C11 MIQ B 502      -7.940 -15.259  -1.436  1.00144.08     0.149 C 
ENDBRANCH   5  21
TORSDOF 2
ENDMDL
MODEL 9
REMARK VINA RESULT:      -7.9      3.371      5.592
REMARK  2 active torsions:
REMARK  status: ('A' for Active; 'I' for Inactive)
REMARK    1  A    between atoms: C5_5  and  N6_21 
REMARK    2  A    between atoms: C18_14  and  N17_19 
ROOT
HETATM    1  O1  MIQ B 502      -7.711 -15.575  -1.312  1.00142.91    -0.171 OA
HETATM    2  C2  MIQ B 502      -6.723 -15.200  -0.398  1.00141.17     0.195 A 
HETATM    3  C3  MIQ B 502      -5.391 -15.965  -0.114  1.00141.71     0.035 A 
HETATM    4  C4  MIQ B 502      -4.793 -17.206  -0.660  1.00142.86     0.046 A 
HETATM    5  C5  MIQ B 502      -3.534 -17.661  -0.192  1.00139.53     0.031 A 
HETATM    6  C12 MIQ B 502      -2.826 -16.903   0.830  1.00139.38     0.030 A 
HETATM    7  C13 MIQ B 502      -3.399 -15.712   1.353  1.00141.18     0.019 A 
HETATM    8  C14 MIQ B 502      -4.720 -15.239   0.856  1.00138.77     0.033 A 
HETATM    9  C15 MIQ B 502      -5.640 -14.015   1.176  1.00142.10     0.195 A 
HETATM   10  N17 MIQ B 502      -6.702 -14.144   0.397  1.00139.42    -0.288 N 
HETATM   11  O16 MIQ B 502      -5.389 -12.999   2.099  1.00148.93    -0.171 OA
ENDROOT
BRANCH  10  12
HETATM   12  C18 MIQ B 502      -7.789 -13.184   0.435  1.00139.82     0.187 C 
HETATM   13  C19 MIQ B 502      -9.087 -13.958   0.696  1.00140.06     0.247 C 
HETATM   14  O25 MIQ B 502      -9.135 -14.713   1.601  1.00143.95    -0.271 OA
HETATM   15  N20 MIQ B 502     -10.261 -13.783  -0.135  1.00140.02    -0.296 N 
HETATM   16  H13 MIQ B 502     -11.100 -14.299   0.042  1.00142.77     0.171 HD
HETATM   17  C21 MIQ B 502     -10.174 -12.863  -1.240  1.00142.22     0.224 C 
HETATM   18  C22 MIQ B 502      -8.829 -12.752  -1.930  1.00139.52     0.106 C 
HETATM   19  O24 MIQ B 502     -11.106 -12.223  -1.586  1.00146.13    -0.273 OA
HETATM   20  C23 MIQ B 502      -7.824 -12.369  -0.858  1.00139.15     0.045 C 
ENDBRANCH  10  12
BRANCH   5  21
HETATM   21  N6  MIQ B 502      -2.966 -18.886  -0.725  1.00140.95    -0.377 N 
HETATM   22  C7  MIQ B 502      -3.862 -19.874  -1.300  1.00142.12     0.149 C 
HETATM   23  C8  MIQ B 502      -3.286 -21.282  -1.216  1.00144.10     0.187 C 
HETATM   24  O9  MIQ B 502      -1.961 -21.353  -1.650  1.00148.65    -0.388 OA
HETATM   25  C10 MIQ B 502      -1.233 -20.186  -1.896  1.00147.44     0.187 C 
HETATM   26  C11 MIQ B 502      -1.559 -18.938  -1.083  1.00144.08     0.149 C 
ENDBRANCH   5  21
TORSDOF 2
ENDMDL
