MODEL 1
REMARK VINA RESULT:      -7.0      0.000      0.000
REMARK  2 active torsions:
REMARK  status: ('A' for Active; 'I' for Inactive)
REMARK    1  A    between atoms: C5_5  and  N6_21 
REMARK    2  A    between atoms: C18_14  and  N17_19 
ROOT
HETATM    1  O1  MIQ B 502      -8.324  16.628   3.549  1.00142.91    -0.171 OA
HETATM    2  C2  MIQ B 502      -7.831  17.751   2.882  1.00141.17     0.195 A 
HETATM    3  C3  MIQ B 502      -7.731  19.198   3.462  1.00141.71     0.035 A 
HETATM    4  C4  MIQ B 502      -8.083  19.798   4.771  1.00142.86     0.046 A 
HETATM    5  C5  MIQ B 502      -7.869  21.179   5.007  1.00139.53     0.031 A 
HETATM    6  C12 MIQ B 502      -7.299  22.012   3.958  1.00139.38     0.030 A 
HETATM    7  C13 MIQ B 502      -6.960  21.437   2.703  1.00141.18     0.019 A 
HETATM    8  C14 MIQ B 502      -7.185  19.986   2.462  1.00138.77     0.033 A 
HETATM    9  C15 MIQ B 502      -6.944  19.022   1.254  1.00142.10     0.195 A 
HETATM   10  N17 MIQ B 502      -7.351  17.828   1.653  1.00139.42    -0.288 N 
HETATM   11  O16 MIQ B 502      -6.409  19.360   0.009  1.00148.93    -0.171 OA
ENDROOT
BRANCH  10  12
HETATM   12  C18 MIQ B 502      -7.291  16.675   0.774  1.00139.82     0.187 C 
HETATM   13  C19 MIQ B 502      -5.879  16.615   0.178  1.00140.06     0.247 C 
HETATM   14  O25 MIQ B 502      -4.947  16.668   0.899  1.00143.95    -0.271 OA
HETATM   15  N20 MIQ B 502      -5.657  16.488  -1.248  1.00140.02    -0.296 N 
HETATM   16  H13 MIQ B 502      -4.730  16.456  -1.625  1.00142.77     0.171 HD
HETATM   17  C21 MIQ B 502      -6.810  16.435  -2.109  1.00142.22     0.224 C 
HETATM   18  C22 MIQ B 502      -8.019  17.242  -1.677  1.00139.52     0.106 C 
HETATM   19  O24 MIQ B 502      -6.814  15.790  -3.099  1.00146.13    -0.273 OA
HETATM   20  C23 MIQ B 502      -8.388  16.757  -0.287  1.00139.15     0.045 C 
ENDBRANCH  10  12
BRANCH   5  21
HETATM   21  N6  MIQ B 502      -8.233  21.756   6.289  1.00140.95    -0.377 N 
HETATM   22  C7  MIQ B 502      -9.639  21.983   6.574  1.00142.12     0.149 C 
HETATM   23  C8  MIQ B 502      -9.841  23.115   7.573  1.00144.10     0.187 C 
HETATM   24  O9  MIQ B 502      -9.015  23.006   8.693  1.00148.65    -0.388 OA
HETATM   25  C10 MIQ B 502      -7.977  22.071   8.718  1.00147.44     0.187 C 
HETATM   26  C11 MIQ B 502      -7.303  21.693   7.403  1.00144.08     0.149 C 
ENDBRANCH   5  21
TORSDOF 2
ENDMDL
MODEL 2
REMARK VINA RESULT:      -6.6      1.906      2.646
REMARK  2 active torsions:
REMARK  status: ('A' for Active; 'I' for Inactive)
REMARK    1  A    between atoms: C5_5  and  N6_21 
REMARK    2  A    between atoms: C18_14  and  N17_19 
ROOT
HETATM    1  O1  MIQ B 502      -8.701  18.127   1.403  1.00142.91    -0.171 OA
HETATM    2  C2  MIQ B 502      -7.886  19.243   1.205  1.00141.17     0.195 A 
HETATM    3  C3  MIQ B 502      -7.406  20.242   2.307  1.00141.71     0.035 A 
HETATM    4  C4  MIQ B 502      -7.627  20.328   3.770  1.00142.86     0.046 A 
HETATM    5  C5  MIQ B 502      -7.043  21.378   4.522  1.00139.53     0.031 A 
HETATM    6  C12 MIQ B 502      -6.220  22.375   3.852  1.00139.38     0.030 A 
HETATM    7  C13 MIQ B 502      -6.006  22.292   2.450  1.00141.18     0.019 A 
HETATM    8  C14 MIQ B 502      -6.621  21.186   1.666  1.00138.77     0.033 A 
HETATM    9  C15 MIQ B 502      -6.613  20.771   0.158  1.00142.10     0.195 A 
HETATM   10  N17 MIQ B 502      -7.355  19.679   0.076  1.00139.42    -0.288 N 
HETATM   11  O16 MIQ B 502      -5.956  21.426  -0.885  1.00148.93    -0.171 OA
ENDROOT
BRANCH  10  12
HETATM   12  C18 MIQ B 502      -7.587  19.015  -1.193  1.00139.82     0.187 C 
HETATM   13  C19 MIQ B 502      -9.103  18.908  -1.395  1.00140.06     0.247 C 
HETATM   14  O25 MIQ B 502      -9.770  19.874  -1.276  1.00143.95    -0.271 OA
HETATM   15  N20 MIQ B 502      -9.742  17.653  -1.735  1.00140.02    -0.296 N 
HETATM   16  H13 MIQ B 502     -10.734  17.595  -1.858  1.00142.77     0.171 HD
HETATM   17  C21 MIQ B 502      -8.908  16.486  -1.865  1.00142.22     0.224 C 
HETATM   18  C22 MIQ B 502      -7.696  16.409  -0.957  1.00139.52     0.106 C 
HETATM   19  O24 MIQ B 502      -9.156  15.634  -2.646  1.00146.13    -0.273 OA
HETATM   20  C23 MIQ B 502      -6.880  17.661  -1.222  1.00139.15     0.045 C 
ENDBRANCH  10  12
BRANCH   5  21
HETATM   21  N6  MIQ B 502      -7.280  21.460   5.951  1.00140.95    -0.377 N 
HETATM   22  C7  MIQ B 502      -6.153  21.727   6.829  1.00142.12     0.149 C 
HETATM   23  C8  MIQ B 502      -6.375  21.166   8.227  1.00144.10     0.187 C 
HETATM   24  O9  MIQ B 502      -7.629  21.490   8.750  1.00148.65    -0.388 OA
HETATM   25  C10 MIQ B 502      -8.608  22.064   7.936  1.00147.44     0.187 C 
HETATM   26  C11 MIQ B 502      -8.620  21.714   6.451  1.00144.08     0.149 C 
ENDBRANCH   5  21
TORSDOF 2
ENDMDL
MODEL 3
REMARK VINA RESULT:      -6.6      1.416      1.554
REMARK  2 active torsions:
REMARK  status: ('A' for Active; 'I' for Inactive)
REMARK    1  A    between atoms: C5_5  and  N6_21 
REMARK    2  A    between atoms: C18_14  and  N17_19 
ROOT
HETATM    1  O1  MIQ B 502      -8.102  16.414   2.882  1.00142.91    -0.171 OA
HETATM    2  C2  MIQ B 502      -7.957  17.600   2.159  1.00141.17     0.195 A 
HETATM    3  C3  MIQ B 502      -7.729  19.024   2.758  1.00141.71     0.035 A 
HETATM    4  C4  MIQ B 502      -7.600  19.539   4.142  1.00142.86     0.046 A 
HETATM    5  C5  MIQ B 502      -7.390  20.921   4.376  1.00139.53     0.031 A 
HETATM    6  C12 MIQ B 502      -7.302  21.840   3.250  1.00139.38     0.030 A 
HETATM    7  C13 MIQ B 502      -7.424  21.347   1.923  1.00141.18     0.019 A 
HETATM    8  C14 MIQ B 502      -7.642  19.894   1.683  1.00138.77     0.033 A 
HETATM    9  C15 MIQ B 502      -7.816  19.004   0.409  1.00142.10     0.195 A 
HETATM   10  N17 MIQ B 502      -7.977  17.766   0.847  1.00139.42    -0.288 N 
HETATM   11  O16 MIQ B 502      -7.806  19.435  -0.919  1.00148.93    -0.171 OA
ENDROOT
BRANCH  10  12
HETATM   12  C18 MIQ B 502      -8.186  16.660  -0.068  1.00139.82     0.187 C 
HETATM   13  C19 MIQ B 502      -7.180  16.807  -1.217  1.00140.06     0.247 C 
HETATM   14  O25 MIQ B 502      -6.038  16.962  -0.966  1.00143.95    -0.271 OA
HETATM   15  N20 MIQ B 502      -7.593  16.756  -2.604  1.00140.02    -0.296 N 
HETATM   16  H13 MIQ B 502      -6.927  16.860  -3.345  1.00142.77     0.171 HD
HETATM   17  C21 MIQ B 502      -8.994  16.577  -2.885  1.00142.22     0.224 C 
HETATM   18  C22 MIQ B 502      -9.970  17.201  -1.907  1.00139.52     0.106 C 
HETATM   19  O24 MIQ B 502      -9.362  15.968  -3.829  1.00146.13    -0.273 OA
HETATM   20  C23 MIQ B 502      -9.638  16.628  -0.541  1.00139.15     0.045 C 
ENDBRANCH  10  12
BRANCH   5  21
HETATM   21  N6  MIQ B 502      -7.280  21.413   5.737  1.00140.95    -0.377 N 
HETATM   22  C7  MIQ B 502      -8.475  21.442   6.564  1.00142.12     0.149 C 
HETATM   23  C8  MIQ B 502      -8.392  22.513   7.645  1.00144.10     0.187 C 
HETATM   24  O9  MIQ B 502      -7.184  22.488   8.343  1.00148.65    -0.388 OA
HETATM   25  C10 MIQ B 502      -6.121  21.701   7.892  1.00147.44     0.187 C 
HETATM   26  C11 MIQ B 502      -5.985  21.449   6.393  1.00144.08     0.149 C 
ENDBRANCH   5  21
TORSDOF 2
ENDMDL
MODEL 4
REMARK VINA RESULT:      -6.3     20.573     21.960
REMARK  2 active torsions:
REMARK  status: ('A' for Active; 'I' for Inactive)
REMARK    1  A    between atoms: C5_5  and  N6_21 
REMARK    2  A    between atoms: C18_14  and  N17_19 
ROOT
HETATM    1  O1  MIQ B 502      13.218  18.621   1.942  1.00142.91    -0.171 OA
HETATM    2  C2  MIQ B 502      14.070  17.672   2.511  1.00141.17     0.195 A 
HETATM    3  C3  MIQ B 502      14.298  17.436   4.039  1.00141.71     0.035 A 
HETATM    4  C4  MIQ B 502      13.746  18.067   5.261  1.00142.86     0.046 A 
HETATM    5  C5  MIQ B 502      14.155  17.624   6.544  1.00139.53     0.031 A 
HETATM    6  C12 MIQ B 502      15.122  16.542   6.660  1.00139.38     0.030 A 
HETATM    7  C13 MIQ B 502      15.651  15.936   5.488  1.00141.18     0.019 A 
HETATM    8  C14 MIQ B 502      15.216  16.404   4.144  1.00138.77     0.033 A 
HETATM    9  C15 MIQ B 502      15.559  15.996   2.674  1.00142.10     0.195 A 
HETATM   10  N17 MIQ B 502      14.841  16.791   1.898  1.00139.42    -0.288 N 
HETATM   11  O16 MIQ B 502      16.446  14.998   2.269  1.00148.93    -0.171 OA
ENDROOT
BRANCH  10  12
HETATM   12  C18 MIQ B 502      14.917  16.707   0.451  1.00139.82     0.187 C 
HETATM   13  C19 MIQ B 502      15.378  18.072  -0.073  1.00140.06     0.247 C 
HETATM   14  O25 MIQ B 502      16.341  18.571   0.390  1.00143.95    -0.271 OA
HETATM   15  N20 MIQ B 502      14.667  18.766  -1.127  1.00140.02    -0.296 N 
HETATM   16  H13 MIQ B 502      14.974  19.660  -1.456  1.00142.77     0.171 HD
HETATM   17  C21 MIQ B 502      13.488  18.141  -1.670  1.00142.22     0.224 C 
HETATM   18  C22 MIQ B 502      12.650  17.317  -0.710  1.00139.52     0.106 C 
HETATM   19  O24 MIQ B 502      13.193  18.261  -2.808  1.00146.13    -0.273 OA
HETATM   20  C23 MIQ B 502      13.574  16.263  -0.127  1.00139.15     0.045 C 
ENDBRANCH  10  12
BRANCH   5  21
HETATM   21  N6  MIQ B 502      13.618  18.261   7.732  1.00140.95    -0.377 N 
HETATM   22  C7  MIQ B 502      12.356  17.780   8.268  1.00142.12     0.149 C 
HETATM   23  C8  MIQ B 502      11.616  18.864   9.040  1.00144.10     0.187 C 
HETATM   24  O9  MIQ B 502      12.433  19.538   9.951  1.00148.65    -0.388 OA
HETATM   25  C10 MIQ B 502      13.817  19.348   9.933  1.00147.44     0.187 C 
HETATM   26  C11 MIQ B 502      14.493  19.024   8.605  1.00144.08     0.149 C 
ENDBRANCH   5  21
TORSDOF 2
ENDMDL
MODEL 5
REMARK VINA RESULT:      -6.2     18.381     20.183
REMARK  2 active torsions:
REMARK  status: ('A' for Active; 'I' for Inactive)
REMARK    1  A    between atoms: C5_5  and  N6_21 
REMARK    2  A    between atoms: C18_14  and  N17_19 
ROOT
HETATM    1  O1  MIQ B 502       7.409  20.895  15.011  1.00142.91    -0.171 OA
HETATM    2  C2  MIQ B 502       8.108  19.990  14.209  1.00141.17     0.195 A 
HETATM    3  C3  MIQ B 502       7.796  18.468  14.048  1.00141.71     0.035 A 
HETATM    4  C4  MIQ B 502       6.766  17.573  14.625  1.00142.86     0.046 A 
HETATM    5  C5  MIQ B 502       6.735  16.198  14.278  1.00139.53     0.031 A 
HETATM    6  C12 MIQ B 502       7.721  15.665  13.349  1.00139.38     0.030 A 
HETATM    7  C13 MIQ B 502       8.709  16.524  12.794  1.00141.18     0.019 A 
HETATM    8  C14 MIQ B 502       8.734  17.967  13.161  1.00138.77     0.033 A 
HETATM    9  C15 MIQ B 502       9.634  19.184  12.768  1.00142.10     0.195 A 
HETATM   10  N17 MIQ B 502       9.152  20.223  13.431  1.00139.42    -0.288 N 
HETATM   11  O16 MIQ B 502      10.724  19.171  11.897  1.00148.93    -0.171 OA
ENDROOT
BRANCH  10  12
HETATM   12  C18 MIQ B 502       9.756  21.537  13.322  1.00139.82     0.187 C 
HETATM   13  C19 MIQ B 502      10.053  22.035  14.742  1.00140.06     0.247 C 
HETATM   14  O25 MIQ B 502      10.648  21.338  15.484  1.00143.95    -0.271 OA
HETATM   15  N20 MIQ B 502       9.628  23.343  15.197  1.00140.02    -0.296 N 
HETATM   16  H13 MIQ B 502       9.822  23.653  16.129  1.00142.77     0.171 HD
HETATM   17  C21 MIQ B 502       8.893  24.172  14.277  1.00142.22     0.224 C 
HETATM   18  C22 MIQ B 502       7.978  23.460  13.300  1.00139.52     0.106 C 
HETATM   19  O24 MIQ B 502       9.005  25.349  14.280  1.00146.13    -0.273 OA
HETATM   20  C23 MIQ B 502       8.844  22.477  12.534  1.00139.15     0.045 C 
ENDBRANCH  10  12
BRANCH   5  21
HETATM   21  N6  MIQ B 502       5.730  15.330  14.862  1.00140.95    -0.377 N 
HETATM   22  C7  MIQ B 502       4.533  15.932  15.423  1.00142.12     0.149 C 
HETATM   23  C8  MIQ B 502       3.920  15.067  16.517  1.00144.10     0.187 C 
HETATM   24  O9  MIQ B 502       3.795  13.727  16.144  1.00148.65    -0.388 OA
HETATM   25  C10 MIQ B 502       4.402  13.258  14.976  1.00147.44     0.187 C 
HETATM   26  C11 MIQ B 502       5.693  13.921  14.508  1.00144.08     0.149 C 
ENDBRANCH   5  21
TORSDOF 2
ENDMDL
MODEL 6
REMARK VINA RESULT:      -6.2     17.024     18.616
REMARK  2 active torsions:
REMARK  status: ('A' for Active; 'I' for Inactive)
REMARK    1  A    between atoms: C5_5  and  N6_21 
REMARK    2  A    between atoms: C18_14  and  N17_19 
ROOT
HETATM    1  O1  MIQ B 502       1.381  15.908  17.019  1.00142.91    -0.171 OA
HETATM    2  C2  MIQ B 502       2.139  14.857  16.497  1.00141.17     0.195 A 
HETATM    3  C3  MIQ B 502       3.553  14.975  15.845  1.00141.71     0.035 A 
HETATM    4  C4  MIQ B 502       4.467  16.114  15.592  1.00142.86     0.046 A 
HETATM    5  C5  MIQ B 502       5.721  15.901  14.966  1.00139.53     0.031 A 
HETATM    6  C12 MIQ B 502       6.113  14.556  14.571  1.00139.38     0.030 A 
HETATM    7  C13 MIQ B 502       5.238  13.463  14.814  1.00141.18     0.019 A 
HETATM    8  C14 MIQ B 502       3.923  13.692  15.474  1.00138.77     0.033 A 
HETATM    9  C15 MIQ B 502       2.732  12.773  15.898  1.00142.10     0.195 A 
HETATM   10  N17 MIQ B 502       1.832  13.572  16.449  1.00139.42    -0.288 N 
HETATM   11  O16 MIQ B 502       2.640  11.391  15.725  1.00148.93    -0.171 OA
ENDROOT
BRANCH  10  12
HETATM   12  C18 MIQ B 502       0.571  13.059  16.952  1.00139.82     0.187 C 
HETATM   13  C19 MIQ B 502       0.877  11.828  17.814  1.00140.06     0.247 C 
HETATM   14  O25 MIQ B 502       1.690  11.908  18.665  1.00143.95    -0.271 OA
HETATM   15  N20 MIQ B 502       0.189  10.568  17.617  1.00140.02    -0.296 N 
HETATM   16  H13 MIQ B 502       0.403   9.770  18.182  1.00142.77     0.171 HD
HETATM   17  C21 MIQ B 502      -0.792  10.493  16.565  1.00142.22     0.224 C 
HETATM   18  C22 MIQ B 502      -0.527  11.326  15.326  1.00139.52     0.106 C 
HETATM   19  O24 MIQ B 502      -1.756   9.818  16.667  1.00146.13    -0.273 OA
HETATM   20  C23 MIQ B 502      -0.381  12.762  15.795  1.00139.15     0.045 C 
ENDBRANCH  10  12
BRANCH   5  21
HETATM   21  N6  MIQ B 502       6.600  17.028  14.711  1.00140.95    -0.377 N 
HETATM   22  C7  MIQ B 502       6.690  18.079  15.710  1.00142.12     0.149 C 
HETATM   23  C8  MIQ B 502       7.078  19.417  15.095  1.00144.10     0.187 C 
HETATM   24  O9  MIQ B 502       8.170  19.321  14.230  1.00148.65    -0.388 OA
HETATM   25  C10 MIQ B 502       8.653  18.071  13.836  1.00147.44     0.187 C 
HETATM   26  C11 MIQ B 502       7.671  16.908  13.738  1.00144.08     0.149 C 
ENDBRANCH   5  21
TORSDOF 2
ENDMDL
MODEL 7
REMARK VINA RESULT:      -6.1     16.500     18.853
REMARK  2 active torsions:
REMARK  status: ('A' for Active; 'I' for Inactive)
REMARK    1  A    between atoms: C5_5  and  N6_21 
REMARK    2  A    between atoms: C18_14  and  N17_19 
ROOT
HETATM    1  O1  MIQ B 502       5.007  13.606  13.530  1.00142.91    -0.171 OA
HETATM    2  C2  MIQ B 502       4.595  14.502  14.520  1.00141.17     0.195 A 
HETATM    3  C3  MIQ B 502       5.345  15.800  14.958  1.00141.71     0.035 A 
HETATM    4  C4  MIQ B 502       6.603  16.448  14.517  1.00142.86     0.046 A 
HETATM    5  C5  MIQ B 502       7.036  17.657  15.120  1.00139.53     0.031 A 
HETATM    6  C12 MIQ B 502       6.238  18.264  16.176  1.00139.38     0.030 A 
HETATM    7  C13 MIQ B 502       5.031  17.643  16.597  1.00141.18     0.019 A 
HETATM    8  C14 MIQ B 502       4.581  16.376  15.960  1.00138.77     0.033 A 
HETATM    9  C15 MIQ B 502       3.350  15.430  16.144  1.00142.10     0.195 A 
HETATM   10  N17 MIQ B 502       3.511  14.447  15.273  1.00139.42    -0.288 N 
HETATM   11  O16 MIQ B 502       2.299  15.592  17.049  1.00148.93    -0.171 OA
ENDROOT
BRANCH  10  12
HETATM   12  C18 MIQ B 502       2.554  13.361  15.171  1.00139.82     0.187 C 
HETATM   13  C19 MIQ B 502       1.159  13.980  15.012  1.00140.06     0.247 C 
HETATM   14  O25 MIQ B 502       0.984  14.800  14.182  1.00143.95    -0.271 OA
HETATM   15  N20 MIQ B 502       0.047  13.581  15.849  1.00140.02    -0.296 N 
HETATM   16  H13 MIQ B 502      -0.857  13.997  15.740  1.00142.77     0.171 HD
HETATM   17  C21 MIQ B 502       0.288  12.585  16.862  1.00142.22     0.224 C 
HETATM   18  C22 MIQ B 502       1.660  12.589  17.508  1.00139.52     0.106 C 
HETATM   19  O24 MIQ B 502      -0.543  11.802  17.169  1.00146.13    -0.273 OA
HETATM   20  C23 MIQ B 502       2.667  12.438  16.383  1.00139.15     0.045 C 
ENDBRANCH  10  12
BRANCH   5  21
HETATM   21  N6  MIQ B 502       8.277  18.273  14.689  1.00140.95    -0.377 N 
HETATM   22  C7  MIQ B 502       8.371  18.769  13.327  1.00142.12     0.149 C 
HETATM   23  C8  MIQ B 502       9.808  18.777  12.821  1.00144.10     0.187 C 
HETATM   24  O9  MIQ B 502      10.700  19.351  13.729  1.00148.65    -0.388 OA
HETATM   25  C10 MIQ B 502      10.292  19.649  15.031  1.00147.44     0.187 C 
HETATM   26  C11 MIQ B 502       9.216  18.780  15.675  1.00144.08     0.149 C 
ENDBRANCH   5  21
TORSDOF 2
ENDMDL
MODEL 8
REMARK VINA RESULT:      -6.1     18.936     20.028
REMARK  2 active torsions:
REMARK  status: ('A' for Active; 'I' for Inactive)
REMARK    1  A    between atoms: C5_5  and  N6_21 
REMARK    2  A    between atoms: C18_14  and  N17_19 
ROOT
HETATM    1  O1  MIQ B 502       7.683  23.208  14.408  1.00142.91    -0.171 OA
HETATM    2  C2  MIQ B 502       8.096  22.028  13.786  1.00141.17     0.195 A 
HETATM    3  C3  MIQ B 502       7.796  20.575  14.274  1.00141.71     0.035 A 
HETATM    4  C4  MIQ B 502       7.051  20.022  15.431  1.00142.86     0.046 A 
HETATM    5  C5  MIQ B 502       6.948  18.619  15.612  1.00139.53     0.031 A 
HETATM    6  C12 MIQ B 502       7.576  17.719  14.656  1.00139.38     0.030 A 
HETATM    7  C13 MIQ B 502       8.288  18.249  13.546  1.00141.18     0.019 A 
HETATM    8  C14 MIQ B 502       8.392  19.722  13.360  1.00138.77     0.033 A 
HETATM    9  C15 MIQ B 502       9.065  20.651  12.298  1.00142.10     0.195 A 
HETATM   10  N17 MIQ B 502       8.805  21.890  12.679  1.00139.42    -0.288 N 
HETATM   11  O16 MIQ B 502       9.795  20.248  11.178  1.00148.93    -0.171 OA
ENDROOT
BRANCH  10  12
HETATM   12  C18 MIQ B 502       9.294  23.032  11.929  1.00139.82     0.187 C 
HETATM   13  C19 MIQ B 502       9.997  23.973  12.915  1.00140.06     0.247 C 
HETATM   14  O25 MIQ B 502      10.819  23.538  13.640  1.00143.95    -0.271 OA
HETATM   15  N20 MIQ B 502       9.684  25.386  12.977  1.00140.02    -0.296 N 
HETATM   16  H13 MIQ B 502      10.145  25.989  13.630  1.00142.77     0.171 HD
HETATM   17  C21 MIQ B 502       8.669  25.892  12.089  1.00142.22     0.224 C 
HETATM   18  C22 MIQ B 502       7.524  24.954  11.759  1.00139.52     0.106 C 
HETATM   19  O24 MIQ B 502       8.731  26.982  11.638  1.00146.13    -0.273 OA
HETATM   20  C23 MIQ B 502       8.148  23.701  11.172  1.00139.15     0.045 C 
ENDBRANCH  10  12
BRANCH   5  21
HETATM   21  N6  MIQ B 502       6.228  18.091  16.757  1.00140.95    -0.377 N 
HETATM   22  C7  MIQ B 502       6.283  18.825  18.010  1.00142.12     0.149 C 
HETATM   23  C8  MIQ B 502       6.077  17.912  19.212  1.00144.10     0.187 C 
HETATM   24  O9  MIQ B 502       4.980  17.061  19.066  1.00148.65    -0.388 OA
HETATM   25  C10 MIQ B 502       4.332  16.946  17.834  1.00147.44     0.187 C 
HETATM   26  C11 MIQ B 502       5.148  17.140  16.560  1.00144.08     0.149 C 
ENDBRANCH   5  21
TORSDOF 2
ENDMDL
MODEL 9
REMARK VINA RESULT:      -6.1     20.922     22.822
REMARK  2 active torsions:
REMARK  status: ('A' for Active; 'I' for Inactive)
REMARK    1  A    between atoms: C5_5  and  N6_21 
REMARK    2  A    between atoms: C18_14  and  N17_19 
ROOT
HETATM    1  O1  MIQ B 502      14.697  18.614   2.369  1.00142.91    -0.171 OA
HETATM    2  C2  MIQ B 502      14.726  18.155   1.050  1.00141.17     0.195 A 
HETATM    3  C3  MIQ B 502      14.318  18.968  -0.219  1.00141.71     0.035 A 
HETATM    4  C4  MIQ B 502      13.820  20.349  -0.428  1.00142.86     0.046 A 
HETATM    5  C5  MIQ B 502      13.529  20.815  -1.735  1.00139.53     0.031 A 
HETATM    6  C12 MIQ B 502      13.722  19.933  -2.877  1.00139.38     0.030 A 
HETATM    7  C13 MIQ B 502      14.200  18.610  -2.677  1.00141.18     0.019 A 
HETATM    8  C14 MIQ B 502      14.506  18.126  -1.303  1.00138.77     0.033 A 
HETATM    9  C15 MIQ B 502      15.035  16.782  -0.703  1.00142.10     0.195 A 
HETATM   10  N17 MIQ B 502      15.101  16.968   0.605  1.00139.42    -0.288 N 
HETATM   11  O16 MIQ B 502      15.365  15.625  -1.410  1.00148.93    -0.171 OA
ENDROOT
BRANCH  10  12
HETATM   12  C18 MIQ B 502      15.542  15.912   1.498  1.00139.82     0.187 C 
HETATM   13  C19 MIQ B 502      14.492  15.768   2.606  1.00140.06     0.247 C 
HETATM   14  O25 MIQ B 502      13.356  15.649   2.311  1.00143.95    -0.271 OA
HETATM   15  N20 MIQ B 502      14.856  15.768   4.008  1.00140.02    -0.296 N 
HETATM   16  H13 MIQ B 502      14.160  15.679   4.722  1.00142.77     0.171 HD
HETATM   17  C21 MIQ B 502      16.248  15.924   4.343  1.00142.22     0.224 C 
HETATM   18  C22 MIQ B 502      17.075  16.803   3.425  1.00139.52     0.106 C 
HETATM   19  O24 MIQ B 502      16.721  15.389   5.285  1.00146.13    -0.273 OA
HETATM   20  C23 MIQ B 502      16.941  16.217   2.031  1.00139.15     0.045 C 
ENDBRANCH  10  12
BRANCH   5  21
HETATM   21  N6  MIQ B 502      13.028  22.165  -1.924  1.00140.95    -0.377 N 
HETATM   22  C7  MIQ B 502      12.658  22.587  -3.263  1.00142.12     0.149 C 
HETATM   23  C8  MIQ B 502      12.780  24.095  -3.439  1.00144.10     0.187 C 
HETATM   24  O9  MIQ B 502      12.184  24.813  -2.400  1.00148.65    -0.388 OA
HETATM   25  C10 MIQ B 502      11.751  24.158  -1.244  1.00147.44     0.187 C 
HETATM   26  C11 MIQ B 502      12.495  22.905  -0.794  1.00144.08     0.149 C 
ENDBRANCH   5  21
TORSDOF 2
ENDMDL
