MODEL 1
REMARK VINA RESULT:      -7.3      0.000      0.000
REMARK  2 active torsions:
REMARK  status: ('A' for Active; 'I' for Inactive)
REMARK    1  A    between atoms: C5_5  and  N6_21 
REMARK    2  A    between atoms: C18_14  and  N17_19 
ROOT
HETATM    1  O1  MIQ B 502     -13.364 -16.643   2.691  1.00142.91    -0.171 OA
HETATM    2  C2  MIQ B 502     -12.233 -15.831   2.803  1.00141.17     0.195 A 
HETATM    3  C3  MIQ B 502     -12.141 -14.479   3.581  1.00141.71     0.035 A 
HETATM    4  C4  MIQ B 502     -13.114 -13.693   4.375  1.00142.86     0.046 A 
HETATM    5  C5  MIQ B 502     -12.725 -12.470   4.978  1.00139.53     0.031 A 
HETATM    6  C12 MIQ B 502     -11.362 -11.986   4.816  1.00139.38     0.030 A 
HETATM    7  C13 MIQ B 502     -10.428 -12.741   4.056  1.00141.18     0.019 A 
HETATM    8  C14 MIQ B 502     -10.842 -14.025   3.427  1.00138.77     0.033 A 
HETATM    9  C15 MIQ B 502     -10.122 -15.101   2.549  1.00142.10     0.195 A 
HETATM   10  N17 MIQ B 502     -11.029 -16.030   2.295  1.00139.42    -0.288 N 
HETATM   11  O16 MIQ B 502      -8.793 -15.078   2.122  1.00148.93    -0.171 OA
ENDROOT
BRANCH  10  12
HETATM   12  C18 MIQ B 502     -10.716 -17.190   1.481  1.00139.82     0.187 C 
HETATM   13  C19 MIQ B 502      -9.504 -17.888   2.109  1.00140.06     0.247 C 
HETATM   14  O25 MIQ B 502      -9.521 -18.149   3.260  1.00143.95    -0.271 OA
HETATM   15  N20 MIQ B 502      -8.337 -18.244   1.327  1.00140.02    -0.296 N 
HETATM   16  H13 MIQ B 502      -7.549 -18.693   1.751  1.00142.77     0.171 HD
HETATM   17  C21 MIQ B 502      -8.335 -17.906  -0.073  1.00142.22     0.224 C 
HETATM   18  C22 MIQ B 502      -9.058 -16.633  -0.467  1.00139.52     0.106 C 
HETATM   19  O24 MIQ B 502      -7.801 -18.592  -0.873  1.00146.13    -0.273 OA
HETATM   20  C23 MIQ B 502     -10.485 -16.775   0.029  1.00139.15     0.045 C 
ENDBRANCH  10  12
BRANCH   5  21
HETATM   21  N6  MIQ B 502     -13.693 -11.702   5.741  1.00140.95    -0.377 N 
HETATM   22  C7  MIQ B 502     -13.410 -10.304   6.015  1.00142.12     0.149 C 
HETATM   23  C8  MIQ B 502     -14.101  -9.822   7.284  1.00144.10     0.187 C 
HETATM   24  O9  MIQ B 502     -15.449 -10.179   7.337  1.00148.65    -0.388 OA
HETATM   25  C10 MIQ B 502     -15.980 -11.081   6.411  1.00147.44     0.187 C 
HETATM   26  C11 MIQ B 502     -15.067 -12.161   5.839  1.00144.08     0.149 C 
ENDBRANCH   5  21
TORSDOF 2
ENDMDL
MODEL 2
REMARK VINA RESULT:      -6.7     14.228     16.060
REMARK  2 active torsions:
REMARK  status: ('A' for Active; 'I' for Inactive)
REMARK    1  A    between atoms: C5_5  and  N6_21 
REMARK    2  A    between atoms: C18_14  and  N17_19 
ROOT
HETATM    1  O1  MIQ B 502     -16.873  -1.797  -2.172  1.00142.91    -0.171 OA
HETATM    2  C2  MIQ B 502     -15.726  -1.047  -2.444  1.00141.17     0.195 A 
HETATM    3  C3  MIQ B 502     -15.145   0.103  -1.561  1.00141.71     0.035 A 
HETATM    4  C4  MIQ B 502     -15.567   0.715  -0.278  1.00142.86     0.046 A 
HETATM    5  C5  MIQ B 502     -14.814   1.772   0.293  1.00139.53     0.031 A 
HETATM    6  C12 MIQ B 502     -13.620   2.256  -0.384  1.00139.38     0.030 A 
HETATM    7  C13 MIQ B 502     -13.215   1.669  -1.613  1.00141.18     0.019 A 
HETATM    8  C14 MIQ B 502     -14.008   0.558  -2.207  1.00138.77     0.033 A 
HETATM    9  C15 MIQ B 502     -13.882  -0.314  -3.498  1.00142.10     0.195 A 
HETATM   10  N17 MIQ B 502     -14.906  -1.151  -3.475  1.00139.42    -0.288 N 
HETATM   11  O16 MIQ B 502     -12.889  -0.222  -4.475  1.00148.93    -0.171 OA
ENDROOT
BRANCH  10  12
HETATM   12  C18 MIQ B 502     -15.122  -2.113  -4.540  1.00139.82     0.187 C 
HETATM   13  C19 MIQ B 502     -16.552  -1.923  -5.059  1.00140.06     0.247 C 
HETATM   14  O25 MIQ B 502     -16.916  -0.842  -5.362  1.00143.95    -0.271 OA
HETATM   15  N20 MIQ B 502     -17.470  -3.035  -5.195  1.00140.02    -0.296 N 
HETATM   16  H13 MIQ B 502     -18.403  -2.897  -5.529  1.00142.77     0.171 HD
HETATM   17  C21 MIQ B 502     -17.006  -4.343  -4.809  1.00142.22     0.224 C 
HETATM   18  C22 MIQ B 502     -16.027  -4.405  -3.653  1.00139.52     0.106 C 
HETATM   19  O24 MIQ B 502     -17.368  -5.318  -5.371  1.00146.13    -0.273 OA
HETATM   20  C23 MIQ B 502     -14.848  -3.530  -4.039  1.00139.15     0.045 C 
ENDBRANCH  10  12
BRANCH   5  21
HETATM   21  N6  MIQ B 502     -15.247   2.372   1.542  1.00140.95    -0.377 N 
HETATM   22  C7  MIQ B 502     -16.488   3.127   1.556  1.00142.12     0.149 C 
HETATM   23  C8  MIQ B 502     -16.497   4.186   2.651  1.00144.10     0.187 C 
HETATM   24  O9  MIQ B 502     -16.085   3.691   3.890  1.00148.65    -0.388 OA
HETATM   25  C10 MIQ B 502     -15.517   2.418   3.990  1.00147.44     0.187 C 
HETATM   26  C11 MIQ B 502     -14.724   1.878   2.804  1.00144.08     0.149 C 
ENDBRANCH   5  21
TORSDOF 2
ENDMDL
MODEL 3
REMARK VINA RESULT:      -6.7     14.371     17.173
REMARK  2 active torsions:
REMARK  status: ('A' for Active; 'I' for Inactive)
REMARK    1  A    between atoms: C5_5  and  N6_21 
REMARK    2  A    between atoms: C18_14  and  N17_19 
ROOT
HETATM    1  O1  MIQ B 502     -17.955   1.498  -0.799  1.00142.91    -0.171 OA
HETATM    2  C2  MIQ B 502     -16.901   0.666  -0.413  1.00141.17     0.195 A 
HETATM    3  C3  MIQ B 502     -16.350  -0.556  -1.215  1.00141.71     0.035 A 
HETATM    4  C4  MIQ B 502     -16.717  -1.173  -2.511  1.00142.86     0.046 A 
HETATM    5  C5  MIQ B 502     -16.012  -2.306  -2.990  1.00139.53     0.031 A 
HETATM    6  C12 MIQ B 502     -14.921  -2.865  -2.204  1.00139.38     0.030 A 
HETATM    7  C13 MIQ B 502     -14.568  -2.272  -0.962  1.00141.18     0.019 A 
HETATM    8  C14 MIQ B 502     -15.310  -1.081  -0.465  1.00138.77     0.033 A 
HETATM    9  C15 MIQ B 502     -15.216  -0.180   0.809  1.00142.10     0.195 A 
HETATM   10  N17 MIQ B 502     -16.161   0.737   0.679  1.00139.42    -0.288 N 
HETATM   11  O16 MIQ B 502     -14.316  -0.320   1.867  1.00148.93    -0.171 OA
ENDROOT
BRANCH  10  12
HETATM   12  C18 MIQ B 502     -16.380   1.748   1.697  1.00139.82     0.187 C 
HETATM   13  C19 MIQ B 502     -15.022   2.378   2.031  1.00140.06     0.247 C 
HETATM   14  O25 MIQ B 502     -14.341   2.776   1.154  1.00143.95    -0.271 OA
HETATM   15  N20 MIQ B 502     -14.554   2.504   3.395  1.00140.02    -0.296 N 
HETATM   16  H13 MIQ B 502     -13.662   2.911   3.600  1.00142.77     0.171 HD
HETATM   17  C21 MIQ B 502     -15.399   2.001   4.448  1.00142.22     0.224 C 
HETATM   18  C22 MIQ B 502     -16.234   0.777   4.124  1.00139.52     0.106 C 
HETATM   19  O24 MIQ B 502     -15.441   2.521   5.508  1.00146.13    -0.273 OA
HETATM   20  C23 MIQ B 502     -17.075   1.137   2.913  1.00139.15     0.045 C 
ENDBRANCH  10  12
BRANCH   5  21
HETATM   21  N6  MIQ B 502     -16.391  -2.910  -4.255  1.00140.95    -0.377 N 
HETATM   22  C7  MIQ B 502     -15.876  -2.332  -5.483  1.00142.12     0.149 C 
HETATM   23  C8  MIQ B 502     -16.797  -2.597  -6.667  1.00144.10     0.187 C 
HETATM   24  O9  MIQ B 502     -17.195  -3.932  -6.757  1.00148.65    -0.388 OA
HETATM   25  C10 MIQ B 502     -16.933  -4.821  -5.711  1.00147.44     0.187 C 
HETATM   26  C11 MIQ B 502     -16.882  -4.277  -4.287  1.00144.08     0.149 C 
ENDBRANCH   5  21
TORSDOF 2
ENDMDL
MODEL 4
REMARK VINA RESULT:      -6.6     16.378     18.196
REMARK  2 active torsions:
REMARK  status: ('A' for Active; 'I' for Inactive)
REMARK    1  A    between atoms: C5_5  and  N6_21 
REMARK    2  A    between atoms: C18_14  and  N17_19 
ROOT
HETATM    1  O1  MIQ B 502     -18.991  -4.000  -5.065  1.00142.91    -0.171 OA
HETATM    2  C2  MIQ B 502     -19.309  -2.979  -5.964  1.00141.17     0.195 A 
HETATM    3  C3  MIQ B 502     -20.743  -2.576  -6.433  1.00141.71     0.035 A 
HETATM    4  C4  MIQ B 502     -22.099  -3.083  -6.115  1.00142.86     0.046 A 
HETATM    5  C5  MIQ B 502     -23.242  -2.497  -6.715  1.00139.53     0.031 A 
HETATM    6  C12 MIQ B 502     -23.082  -1.390  -7.647  1.00139.38     0.030 A 
HETATM    7  C13 MIQ B 502     -21.782  -0.903  -7.952  1.00141.18     0.019 A 
HETATM    8  C14 MIQ B 502     -20.586  -1.521  -7.317  1.00138.77     0.033 A 
HETATM    9  C15 MIQ B 502     -19.045  -1.267  -7.397  1.00142.10     0.195 A 
HETATM   10  N17 MIQ B 502     -18.487  -2.154  -6.590  1.00139.42    -0.288 N 
HETATM   11  O16 MIQ B 502     -18.396  -0.302  -8.168  1.00148.93    -0.171 OA
ENDROOT
BRANCH  10  12
HETATM   12  C18 MIQ B 502     -17.047  -2.225  -6.422  1.00139.82     0.187 C 
HETATM   13  C19 MIQ B 502     -16.617  -3.674  -6.678  1.00140.06     0.247 C 
HETATM   14  O25 MIQ B 502     -16.972  -4.215  -7.665  1.00143.95    -0.271 OA
HETATM   15  N20 MIQ B 502     -15.779  -4.399  -5.744  1.00140.02    -0.296 N 
HETATM   16  H13 MIQ B 502     -15.511  -5.347  -5.920  1.00142.77     0.171 HD
HETATM   17  C21 MIQ B 502     -15.367  -3.721  -4.542  1.00142.22     0.224 C 
HETATM   18  C22 MIQ B 502     -16.348  -2.728  -3.949  1.00139.52     0.106 C 
HETATM   19  O24 MIQ B 502     -14.314  -3.927  -4.047  1.00146.13    -0.273 OA
HETATM   20  C23 MIQ B 502     -16.647  -1.715  -5.038  1.00139.15     0.045 C 
ENDBRANCH  10  12
BRANCH   5  21
HETATM   21  N6  MIQ B 502     -24.563  -3.013  -6.405  1.00140.95    -0.377 N 
HETATM   22  C7  MIQ B 502     -25.724  -2.287  -6.892  1.00142.12     0.149 C 
HETATM   23  C8  MIQ B 502     -26.948  -2.517  -6.014  1.00144.10     0.187 C 
HETATM   24  O9  MIQ B 502     -27.164  -3.866  -5.727  1.00148.65    -0.388 OA
HETATM   25  C10 MIQ B 502     -26.195  -4.822  -6.043  1.00147.44     0.187 C 
HETATM   26  C11 MIQ B 502     -24.728  -4.405  -6.027  1.00144.08     0.149 C 
ENDBRANCH   5  21
TORSDOF 2
ENDMDL
MODEL 5
REMARK VINA RESULT:      -6.6      1.330      2.480
REMARK  2 active torsions:
REMARK  status: ('A' for Active; 'I' for Inactive)
REMARK    1  A    between atoms: C5_5  and  N6_21 
REMARK    2  A    between atoms: C18_14  and  N17_19 
ROOT
HETATM    1  O1  MIQ B 502      -9.215 -13.086   3.493  1.00142.91    -0.171 OA
HETATM    2  C2  MIQ B 502     -10.306 -13.933   3.285  1.00141.17     0.195 A 
HETATM    3  C3  MIQ B 502     -11.747 -13.737   3.854  1.00141.71     0.035 A 
HETATM    4  C4  MIQ B 502     -12.373 -12.700   4.709  1.00142.86     0.046 A 
HETATM    5  C5  MIQ B 502     -13.741 -12.797   5.067  1.00139.53     0.031 A 
HETATM    6  C12 MIQ B 502     -14.535 -13.920   4.592  1.00139.38     0.030 A 
HETATM    7  C13 MIQ B 502     -13.936 -14.914   3.771  1.00141.18     0.019 A 
HETATM    8  C14 MIQ B 502     -12.500 -14.806   3.396  1.00138.77     0.033 A 
HETATM    9  C15 MIQ B 502     -11.520 -15.670   2.537  1.00142.10     0.195 A 
HETATM   10  N17 MIQ B 502     -10.353 -15.048   2.576  1.00139.42    -0.288 N 
HETATM   11  O16 MIQ B 502     -11.820 -16.858   1.869  1.00148.93    -0.171 OA
ENDROOT
BRANCH  10  12
HETATM   12  C18 MIQ B 502      -9.188 -15.579   1.894  1.00139.82     0.187 C 
HETATM   13  C19 MIQ B 502      -9.573 -15.817   0.428  1.00140.06     0.247 C 
HETATM   14  O25 MIQ B 502     -10.082 -14.945  -0.182  1.00143.95    -0.271 OA
HETATM   15  N20 MIQ B 502      -9.323 -17.082  -0.231  1.00140.02    -0.296 N 
HETATM   16  H13 MIQ B 502      -9.585 -17.227  -1.186  1.00142.77     0.171 HD
HETATM   17  C21 MIQ B 502      -8.710 -18.134   0.538  1.00142.22     0.224 C 
HETATM   18  C22 MIQ B 502      -9.059 -18.191   2.013  1.00139.52     0.106 C 
HETATM   19  O24 MIQ B 502      -7.968 -18.910   0.044  1.00146.13    -0.273 OA
HETATM   20  C23 MIQ B 502      -8.689 -16.840   2.597  1.00139.15     0.045 C 
ENDBRANCH  10  12
BRANCH   5  21
HETATM   21  N6  MIQ B 502     -14.337 -11.782   5.918  1.00140.95    -0.377 N 
HETATM   22  C7  MIQ B 502     -13.571 -10.583   6.209  1.00142.12     0.149 C 
HETATM   23  C8  MIQ B 502     -13.979  -9.956   7.537  1.00144.10     0.187 C 
HETATM   24  O9  MIQ B 502     -15.362  -9.829   7.676  1.00148.65    -0.388 OA
HETATM   25  C10 MIQ B 502     -16.225 -10.445   6.765  1.00147.44     0.187 C 
HETATM   26  C11 MIQ B 502     -15.778 -11.743   6.100  1.00144.08     0.149 C 
ENDBRANCH   5  21
TORSDOF 2
ENDMDL
MODEL 6
REMARK VINA RESULT:      -6.6     14.152     15.733
REMARK  2 active torsions:
REMARK  status: ('A' for Active; 'I' for Inactive)
REMARK    1  A    between atoms: C5_5  and  N6_21 
REMARK    2  A    between atoms: C18_14  and  N17_19 
ROOT
HETATM    1  O1  MIQ B 502     -15.813  -2.171  -1.489  1.00142.91    -0.171 OA
HETATM    2  C2  MIQ B 502     -15.231  -0.907  -1.607  1.00141.17     0.195 A 
HETATM    3  C3  MIQ B 502     -14.998   0.113  -0.448  1.00141.71     0.035 A 
HETATM    4  C4  MIQ B 502     -15.283   0.086   1.006  1.00142.86     0.046 A 
HETATM    5  C5  MIQ B 502     -14.945   1.194   1.824  1.00139.53     0.031 A 
HETATM    6  C12 MIQ B 502     -14.316   2.365   1.230  1.00139.38     0.030 A 
HETATM    7  C13 MIQ B 502     -14.042   2.391  -0.164  1.00141.18     0.019 A 
HETATM    8  C14 MIQ B 502     -14.396   1.224  -1.017  1.00138.77     0.033 A 
HETATM    9  C15 MIQ B 502     -14.253   0.890  -2.538  1.00142.10     0.195 A 
HETATM   10  N17 MIQ B 502     -14.759  -0.322  -2.695  1.00139.42    -0.288 N 
HETATM   11  O16 MIQ B 502     -13.705   1.710  -3.526  1.00148.93    -0.171 OA
ENDROOT
BRANCH  10  12
HETATM   12  C18 MIQ B 502     -14.810  -0.959  -3.998  1.00139.82     0.187 C 
HETATM   13  C19 MIQ B 502     -16.282  -1.241  -4.324  1.00140.06     0.247 C 
HETATM   14  O25 MIQ B 502     -17.070  -0.369  -4.229  1.00143.95    -0.271 OA
HETATM   15  N20 MIQ B 502     -16.732  -2.550  -4.751  1.00140.02    -0.296 N 
HETATM   16  H13 MIQ B 502     -17.697  -2.723  -4.954  1.00142.77     0.171 HD
HETATM   17  C21 MIQ B 502     -15.752  -3.601  -4.849  1.00142.22     0.224 C 
HETATM   18  C22 MIQ B 502     -14.613  -3.566  -3.849  1.00139.52     0.106 C 
HETATM   19  O24 MIQ B 502     -15.833  -4.445  -5.672  1.00146.13    -0.273 OA
HETATM   20  C23 MIQ B 502     -13.940  -2.214  -4.010  1.00139.15     0.045 C 
ENDBRANCH  10  12
BRANCH   5  21
HETATM   21  N6  MIQ B 502     -15.243   1.160   3.244  1.00140.95    -0.377 N 
HETATM   22  C7  MIQ B 502     -14.724   0.058   4.036  1.00142.12     0.149 C 
HETATM   23  C8  MIQ B 502     -15.586  -0.217   5.261  1.00144.10     0.187 C 
HETATM   24  O9  MIQ B 502     -15.896   0.940   5.979  1.00148.65    -0.388 OA
HETATM   25  C10 MIQ B 502     -15.614   2.200   5.445  1.00147.44     0.187 C 
HETATM   26  C11 MIQ B 502     -15.646   2.374   3.931  1.00144.08     0.149 C 
ENDBRANCH   5  21
TORSDOF 2
ENDMDL
MODEL 7
REMARK VINA RESULT:      -6.6     14.364     15.454
REMARK  2 active torsions:
REMARK  status: ('A' for Active; 'I' for Inactive)
REMARK    1  A    between atoms: C5_5  and  N6_21 
REMARK    2  A    between atoms: C18_14  and  N17_19 
ROOT
HETATM    1  O1  MIQ B 502     -18.660  -0.284  -2.872  1.00142.91    -0.171 OA
HETATM    2  C2  MIQ B 502     -17.461  -0.994  -2.779  1.00141.17     0.195 A 
HETATM    3  C3  MIQ B 502     -16.422  -0.901  -1.617  1.00141.71     0.035 A 
HETATM    4  C4  MIQ B 502     -16.367  -0.117  -0.360  1.00142.86     0.046 A 
HETATM    5  C5  MIQ B 502     -15.263  -0.251   0.520  1.00139.53     0.031 A 
HETATM    6  C12 MIQ B 502     -14.180  -1.164   0.187  1.00139.38     0.030 A 
HETATM    7  C13 MIQ B 502     -14.233  -1.917  -1.017  1.00141.18     0.019 A 
HETATM    8  C14 MIQ B 502     -15.395  -1.774  -1.936  1.00138.77     0.033 A 
HETATM    9  C15 MIQ B 502     -15.799  -2.413  -3.305  1.00142.10     0.195 A 
HETATM   10  N17 MIQ B 502     -16.965  -1.878  -3.628  1.00139.42    -0.288 N 
HETATM   11  O16 MIQ B 502     -15.072  -3.356  -4.034  1.00148.93    -0.171 OA
ENDROOT
BRANCH  10  12
HETATM   12  C18 MIQ B 502     -17.644  -2.230  -4.861  1.00139.82     0.187 C 
HETATM   13  C19 MIQ B 502     -17.707  -3.760  -4.939  1.00140.06     0.247 C 
HETATM   14  O25 MIQ B 502     -18.124  -4.367  -4.018  1.00143.95    -0.271 OA
HETATM   15  N20 MIQ B 502     -17.274  -4.483  -6.117  1.00140.02    -0.296 N 
HETATM   16  H13 MIQ B 502     -17.315  -5.483  -6.154  1.00142.77     0.171 HD
HETATM   17  C21 MIQ B 502     -16.759  -3.721  -7.225  1.00142.22     0.224 C 
HETATM   18  C22 MIQ B 502     -15.998  -2.454  -6.885  1.00139.52     0.106 C 
HETATM   19  O24 MIQ B 502     -16.928  -4.064  -8.344  1.00146.13    -0.273 OA
HETATM   20  C23 MIQ B 502     -16.937  -1.595  -6.058  1.00139.15     0.045 C 
ENDBRANCH  10  12
BRANCH   5  21
HETATM   21  N6  MIQ B 502     -15.215   0.534   1.740  1.00140.95    -0.377 N 
HETATM   22  C7  MIQ B 502     -16.123   1.660   1.878  1.00142.12     0.149 C 
HETATM   23  C8  MIQ B 502     -15.569   2.726   2.816  1.00144.10     0.187 C 
HETATM   24  O9  MIQ B 502     -15.087   2.197   4.015  1.00148.65    -0.388 OA
HETATM   25  C10 MIQ B 502     -14.942   0.816   4.172  1.00147.44     0.187 C 
HETATM   26  C11 MIQ B 502     -14.625  -0.029   2.942  1.00144.08     0.149 C 
ENDBRANCH   5  21
TORSDOF 2
ENDMDL
MODEL 8
REMARK VINA RESULT:      -6.5     15.707     17.634
REMARK  2 active torsions:
REMARK  status: ('A' for Active; 'I' for Inactive)
REMARK    1  A    between atoms: C5_5  and  N6_21 
REMARK    2  A    between atoms: C18_14  and  N17_19 
ROOT
HETATM    1  O1  MIQ B 502     -15.630  -0.148  -2.349  1.00142.91    -0.171 OA
HETATM    2  C2  MIQ B 502     -15.469  -0.629  -3.650  1.00141.17     0.195 A 
HETATM    3  C3  MIQ B 502     -14.798   0.132  -4.838  1.00141.71     0.035 A 
HETATM    4  C4  MIQ B 502     -14.174   1.470  -4.969  1.00142.86     0.046 A 
HETATM    5  C5  MIQ B 502     -13.635   1.891  -6.211  1.00139.53     0.031 A 
HETATM    6  C12 MIQ B 502     -13.695   1.003  -7.363  1.00139.38     0.030 A 
HETATM    7  C13 MIQ B 502     -14.292  -0.280  -7.238  1.00141.18     0.019 A 
HETATM    8  C14 MIQ B 502     -14.854  -0.718  -5.931  1.00138.77     0.033 A 
HETATM    9  C15 MIQ B 502     -15.563  -2.014  -5.418  1.00142.10     0.195 A 
HETATM   10  N17 MIQ B 502     -15.834  -1.801  -4.141  1.00139.42    -0.288 N 
HETATM   11  O16 MIQ B 502     -15.852  -3.159  -6.163  1.00148.93    -0.171 OA
ENDROOT
BRANCH  10  12
HETATM   12  C18 MIQ B 502     -16.514  -2.797  -3.334  1.00139.82     0.187 C 
HETATM   13  C19 MIQ B 502     -15.723  -4.106  -3.443  1.00140.06     0.247 C 
HETATM   14  O25 MIQ B 502     -14.560  -4.095  -3.241  1.00143.95    -0.271 OA
HETATM   15  N20 MIQ B 502     -16.364  -5.361  -3.781  1.00140.02    -0.296 N 
HETATM   16  H13 MIQ B 502     -15.835  -6.207  -3.855  1.00142.77     0.171 HD
HETATM   17  C21 MIQ B 502     -17.781  -5.347  -4.033  1.00142.22     0.224 C 
HETATM   18  C22 MIQ B 502     -18.346  -4.097  -4.680  1.00139.52     0.106 C 
HETATM   19  O24 MIQ B 502     -18.469  -6.264  -3.745  1.00146.13    -0.273 OA
HETATM   20  C23 MIQ B 502     -17.970  -2.936  -3.777  1.00139.15     0.045 C 
ENDBRANCH  10  12
BRANCH   5  21
HETATM   21  N6  MIQ B 502     -13.040   3.210  -6.328  1.00140.95    -0.377 N 
HETATM   22  C7  MIQ B 502     -12.566   3.868  -5.123  1.00142.12     0.149 C 
HETATM   23  C8  MIQ B 502     -12.583   5.385  -5.259  1.00144.10     0.187 C 
HETATM   24  O9  MIQ B 502     -12.004   5.830  -6.449  1.00148.65    -0.388 OA
HETATM   25  C10 MIQ B 502     -11.682   4.924  -7.462  1.00147.44     0.187 C 
HETATM   26  C11 MIQ B 502     -12.528   3.664  -7.610  1.00144.08     0.149 C 
ENDBRANCH   5  21
TORSDOF 2
ENDMDL
MODEL 9
REMARK VINA RESULT:      -6.5      2.153      8.228
REMARK  2 active torsions:
REMARK  status: ('A' for Active; 'I' for Inactive)
REMARK    1  A    between atoms: C5_5  and  N6_21 
REMARK    2  A    between atoms: C18_14  and  N17_19 
ROOT
HETATM    1  O1  MIQ B 502     -15.289 -14.501   5.071  1.00142.91    -0.171 OA
HETATM    2  C2  MIQ B 502     -14.315 -13.501   5.115  1.00141.17     0.195 A 
HETATM    3  C3  MIQ B 502     -12.857 -13.611   4.565  1.00141.71     0.035 A 
HETATM    4  C4  MIQ B 502     -12.103 -14.690   3.884  1.00142.86     0.046 A 
HETATM    5  C5  MIQ B 502     -10.755 -14.486   3.492  1.00139.53     0.031 A 
HETATM    6  C12 MIQ B 502     -10.111 -13.208   3.759  1.00139.38     0.030 A 
HETATM    7  C13 MIQ B 502     -10.834 -12.172   4.410  1.00141.18     0.019 A 
HETATM    8  C14 MIQ B 502     -12.249 -12.392   4.818  1.00138.77     0.033 A 
HETATM    9  C15 MIQ B 502     -13.336 -11.521   5.528  1.00142.10     0.195 A 
HETATM   10  N17 MIQ B 502     -14.416 -12.281   5.612  1.00139.42    -0.288 N 
HETATM   11  O16 MIQ B 502     -13.190 -10.209   5.982  1.00148.93    -0.171 OA
ENDROOT
BRANCH  10  12
HETATM   12  C18 MIQ B 502     -15.634 -11.799   6.236  1.00139.82     0.187 C 
HETATM   13  C19 MIQ B 502     -16.040 -12.814   7.312  1.00140.06     0.247 C 
HETATM   14  O25 MIQ B 502     -15.243 -13.158   8.110  1.00143.95    -0.271 OA
HETATM   15  N20 MIQ B 502     -17.381 -13.360   7.380  1.00140.02    -0.296 N 
HETATM   16  H13 MIQ B 502     -17.632 -14.026   8.083  1.00142.77     0.171 HD
HETATM   17  C21 MIQ B 502     -18.334 -12.932   6.388  1.00142.22     0.224 C 
HETATM   18  C22 MIQ B 502     -17.790 -12.632   5.005  1.00139.52     0.106 C 
HETATM   19  O24 MIQ B 502     -19.482 -12.816   6.644  1.00146.13    -0.273 OA
HETATM   20  C23 MIQ B 502     -16.717 -11.573   5.183  1.00139.15     0.045 C 
ENDBRANCH  10  12
BRANCH   5  21
HETATM   21  N6  MIQ B 502     -10.024 -15.557   2.841  1.00140.95    -0.377 N 
HETATM   22  C7  MIQ B 502      -9.236 -15.242   1.662  1.00142.12     0.149 C 
HETATM   23  C8  MIQ B 502      -9.075 -16.449   0.746  1.00144.10     0.187 C 
HETATM   24  O9  MIQ B 502      -8.690 -17.603   1.431  1.00148.65    -0.388 OA
HETATM   25  C10 MIQ B 502      -8.701 -17.634   2.828  1.00147.44     0.187 C 
HETATM   26  C11 MIQ B 502      -9.721 -16.776   3.569  1.00144.08     0.149 C 
ENDBRANCH   5  21
TORSDOF 2
ENDMDL
