MODEL 1
REMARK VINA RESULT:      -7.5      0.000      0.000
REMARK  2 active torsions:
REMARK  status: ('A' for Active; 'I' for Inactive)
REMARK    1  A    between atoms: C5_5  and  N6_21 
REMARK    2  A    between atoms: C18_14  and  N17_19 
ROOT
HETATM    1  O1  MIQ B 502      16.038  -5.981   8.884  1.00142.91    -0.171 OA
HETATM    2  C2  MIQ B 502      14.813  -5.777   9.523  1.00141.17     0.195 A 
HETATM    3  C3  MIQ B 502      14.284  -4.423  10.093  1.00141.71     0.035 A 
HETATM    4  C4  MIQ B 502      14.841  -3.050  10.140  1.00142.86     0.046 A 
HETATM    5  C5  MIQ B 502      14.104  -1.998  10.740  1.00139.53     0.031 A 
HETATM    6  C12 MIQ B 502      12.793  -2.268  11.311  1.00139.38     0.030 A 
HETATM    7  C13 MIQ B 502      12.258  -3.583  11.265  1.00141.18     0.019 A 
HETATM    8  C14 MIQ B 502      13.035  -4.684  10.633  1.00138.77     0.033 A 
HETATM    9  C15 MIQ B 502      12.787  -6.209  10.395  1.00142.10     0.195 A 
HETATM   10  N17 MIQ B 502      13.861  -6.661   9.770  1.00139.42    -0.288 N 
HETATM   11  O16 MIQ B 502      11.659  -6.941  10.772  1.00148.93    -0.171 OA
ENDROOT
BRANCH  10  12
HETATM   12  C18 MIQ B 502      13.990  -8.058   9.399  1.00139.82     0.187 C 
HETATM   13  C19 MIQ B 502      15.314  -8.575   9.976  1.00140.06     0.247 C 
HETATM   14  O25 MIQ B 502      15.552  -8.400  11.117  1.00143.95    -0.271 OA
HETATM   15  N20 MIQ B 502      16.279  -9.281   9.158  1.00140.02    -0.296 N 
HETATM   16  H13 MIQ B 502      17.143  -9.607   9.545  1.00142.77     0.171 HD
HETATM   17  C21 MIQ B 502      15.970  -9.474   7.764  1.00142.22     0.224 C 
HETATM   18  C22 MIQ B 502      15.174  -8.377   7.085  1.00139.52     0.106 C 
HETATM   19  O24 MIQ B 502      16.316 -10.443   7.183  1.00146.13    -0.273 OA
HETATM   20  C23 MIQ B 502      13.892  -8.216   7.882  1.00139.15     0.045 C 
ENDBRANCH  10  12
BRANCH   5  21
HETATM   21  N6  MIQ B 502      14.669  -0.661  10.792  1.00140.95    -0.377 N 
HETATM   22  C7  MIQ B 502      15.128  -0.052   9.556  1.00142.12     0.149 C 
HETATM   23  C8  MIQ B 502      16.223   0.977   9.801  1.00144.10     0.187 C 
HETATM   24  O9  MIQ B 502      15.909   1.871  10.826  1.00148.65    -0.388 OA
HETATM   25  C10 MIQ B 502      14.804   1.644  11.650  1.00147.44     0.187 C 
HETATM   26  C11 MIQ B 502      14.382   0.204  11.923  1.00144.08     0.149 C 
ENDBRANCH   5  21
TORSDOF 2
ENDMDL
MODEL 2
REMARK VINA RESULT:      -7.0     14.189     17.429
REMARK  2 active torsions:
REMARK  status: ('A' for Active; 'I' for Inactive)
REMARK    1  A    between atoms: C5_5  and  N6_21 
REMARK    2  A    between atoms: C18_14  and  N17_19 
ROOT
HETATM    1  O1  MIQ B 502       8.292 -17.994   4.169  1.00142.91    -0.171 OA
HETATM    2  C2  MIQ B 502       9.029 -19.164   4.361  1.00141.17     0.195 A 
HETATM    3  C3  MIQ B 502       9.692 -19.629   5.697  1.00141.71     0.035 A 
HETATM    4  C4  MIQ B 502       9.752 -19.049   7.060  1.00142.86     0.046 A 
HETATM    5  C5  MIQ B 502      10.448 -19.723   8.095  1.00139.53     0.031 A 
HETATM    6  C12 MIQ B 502      11.106 -20.992   7.817  1.00139.38     0.030 A 
HETATM    7  C13 MIQ B 502      11.047 -21.548   6.511  1.00141.18     0.019 A 
HETATM    8  C14 MIQ B 502      10.314 -20.837   5.428  1.00138.77     0.033 A 
HETATM    9  C15 MIQ B 502      10.034 -21.125   3.917  1.00142.10     0.195 A 
HETATM   10  N17 MIQ B 502       9.312 -20.107   3.479  1.00139.42    -0.288 N 
HETATM   11  O16 MIQ B 502      10.465 -22.232   3.183  1.00148.93    -0.171 OA
ENDROOT
BRANCH  10  12
HETATM   12  C18 MIQ B 502       8.876 -20.028   2.097  1.00139.82     0.187 C 
HETATM   13  C19 MIQ B 502       8.106 -21.314   1.775  1.00140.06     0.247 C 
HETATM   14  O25 MIQ B 502       7.235 -21.659   2.492  1.00143.95    -0.271 OA
HETATM   15  N20 MIQ B 502       8.413 -22.116   0.608  1.00140.02    -0.296 N 
HETATM   16  H13 MIQ B 502       7.907 -22.958   0.413  1.00142.77     0.171 HD
HETATM   17  C21 MIQ B 502       9.487 -21.680  -0.246  1.00142.22     0.224 C 
HETATM   18  C22 MIQ B 502      10.653 -20.982   0.427  1.00139.52     0.106 C 
HETATM   19  O24 MIQ B 502       9.456 -21.854  -1.415  1.00146.13    -0.273 OA
HETATM   20  C23 MIQ B 502      10.072 -19.796   1.174  1.00139.15     0.045 C 
ENDBRANCH  10  12
BRANCH   5  21
HETATM   21  N6  MIQ B 502      10.511 -19.137   9.421  1.00140.95    -0.377 N 
HETATM   22  C7  MIQ B 502      11.278 -19.822  10.448  1.00142.12     0.149 C 
HETATM   23  C8  MIQ B 502      10.763 -19.508  11.847  1.00144.10     0.187 C 
HETATM   24  O9  MIQ B 502      10.567 -18.142  12.060  1.00148.65    -0.388 OA
HETATM   25  C10 MIQ B 502      10.628 -17.243  10.992  1.00147.44     0.187 C 
HETATM   26  C11 MIQ B 502      10.214 -17.727   9.607  1.00144.08     0.149 C 
ENDBRANCH   5  21
TORSDOF 2
ENDMDL
MODEL 3
REMARK VINA RESULT:      -6.9     20.251     22.792
REMARK  2 active torsions:
REMARK  status: ('A' for Active; 'I' for Inactive)
REMARK    1  A    between atoms: C5_5  and  N6_21 
REMARK    2  A    between atoms: C18_14  and  N17_19 
ROOT
HETATM    1  O1  MIQ B 502      16.260 -25.701  -1.359  1.00142.91    -0.171 OA
HETATM    2  C2  MIQ B 502      15.926 -25.569  -0.010  1.00141.17     0.195 A 
HETATM    3  C3  MIQ B 502      14.679 -24.823   0.563  1.00141.71     0.035 A 
HETATM    4  C4  MIQ B 502      13.554 -24.089  -0.063  1.00142.86     0.046 A 
HETATM    5  C5  MIQ B 502      12.544 -23.504   0.741  1.00139.53     0.031 A 
HETATM    6  C12 MIQ B 502      12.612 -23.627   2.190  1.00139.38     0.030 A 
HETATM    7  C13 MIQ B 502      13.690 -24.332   2.791  1.00141.18     0.019 A 
HETATM    8  C14 MIQ B 502      14.747 -24.946   1.941  1.00138.77     0.033 A 
HETATM    9  C15 MIQ B 502      16.042 -25.774   2.226  1.00142.10     0.195 A 
HETATM   10  N17 MIQ B 502      16.573 -26.039   1.043  1.00139.42    -0.288 N 
HETATM   11  O16 MIQ B 502      16.536 -26.151   3.476  1.00148.93    -0.171 OA
ENDROOT
BRANCH  10  12
HETATM   12  C18 MIQ B 502      17.809 -26.788   0.919  1.00139.82     0.187 C 
HETATM   13  C19 MIQ B 502      18.736 -26.008  -0.021  1.00140.06     0.247 C 
HETATM   14  O25 MIQ B 502      18.933 -24.863   0.184  1.00143.95    -0.271 OA
HETATM   15  N20 MIQ B 502      19.383 -26.639  -1.154  1.00140.02    -0.296 N 
HETATM   16  H13 MIQ B 502      19.980 -26.117  -1.764  1.00142.77     0.171 HD
HETATM   17  C21 MIQ B 502      19.118 -28.035  -1.389  1.00142.22     0.224 C 
HETATM   18  C22 MIQ B 502      17.733 -28.536  -1.030  1.00139.52     0.106 C 
HETATM   19  O24 MIQ B 502      19.943 -28.753  -1.836  1.00146.13    -0.273 OA
HETATM   20  C23 MIQ B 502      17.524 -28.210   0.438  1.00139.15     0.045 C 
ENDBRANCH  10  12
BRANCH   5  21
HETATM   21  N6  MIQ B 502      11.456 -22.775   0.115  1.00140.95    -0.377 N 
HETATM   22  C7  MIQ B 502      11.132 -21.449   0.612  1.00142.12     0.149 C 
HETATM   23  C8  MIQ B 502       9.673 -21.088   0.361  1.00144.10     0.187 C 
HETATM   24  O9  MIQ B 502       9.266 -21.351  -0.948  1.00148.65    -0.388 OA
HETATM   25  C10 MIQ B 502      10.086 -22.082  -1.811  1.00147.44     0.187 C 
HETATM   26  C11 MIQ B 502      11.009 -23.141  -1.218  1.00144.08     0.149 C 
ENDBRANCH   5  21
TORSDOF 2
ENDMDL
MODEL 4
REMARK VINA RESULT:      -6.9      2.460      4.002
REMARK  2 active torsions:
REMARK  status: ('A' for Active; 'I' for Inactive)
REMARK    1  A    between atoms: C5_5  and  N6_21 
REMARK    2  A    between atoms: C18_14  and  N17_19 
ROOT
HETATM    1  O1  MIQ B 502      12.339  -7.619  11.277  1.00142.91    -0.171 OA
HETATM    2  C2  MIQ B 502      13.316  -7.537  10.282  1.00141.17     0.195 A 
HETATM    3  C3  MIQ B 502      14.050  -6.240   9.813  1.00141.71     0.035 A 
HETATM    4  C4  MIQ B 502      13.968  -4.818  10.225  1.00142.86     0.046 A 
HETATM    5  C5  MIQ B 502      14.785  -3.843   9.598  1.00139.53     0.031 A 
HETATM    6  C12 MIQ B 502      15.709  -4.242   8.547  1.00139.38     0.030 A 
HETATM    7  C13 MIQ B 502      15.788  -5.605   8.153  1.00141.18     0.019 A 
HETATM    8  C14 MIQ B 502      14.930  -6.625   8.815  1.00138.77     0.033 A 
HETATM    9  C15 MIQ B 502      14.742  -8.170   8.664  1.00142.10     0.195 A 
HETATM   10  N17 MIQ B 502      13.819  -8.514   9.546  1.00139.42    -0.288 N 
HETATM   11  O16 MIQ B 502      15.413  -9.010   7.774  1.00148.93    -0.171 OA
ENDROOT
BRANCH  10  12
HETATM   12  C18 MIQ B 502      13.372  -9.888   9.678  1.00139.82     0.187 C 
HETATM   13  C19 MIQ B 502      11.842  -9.894   9.581  1.00140.06     0.247 C 
HETATM   14  O25 MIQ B 502      11.320  -9.347   8.675  1.00143.95    -0.271 OA
HETATM   15  N20 MIQ B 502      11.016 -10.559  10.568  1.00140.02    -0.296 N 
HETATM   16  H13 MIQ B 502      10.017 -10.550  10.496  1.00142.77     0.171 HD
HETATM   17  C21 MIQ B 502      11.675 -11.211  11.670  1.00142.22     0.224 C 
HETATM   18  C22 MIQ B 502      12.956 -10.573  12.171  1.00139.52     0.106 C 
HETATM   19  O24 MIQ B 502      11.240 -12.198  12.154  1.00146.13    -0.273 OA
HETATM   20  C23 MIQ B 502      13.894 -10.494  10.980  1.00139.15     0.045 C 
ENDBRANCH  10  12
BRANCH   5  21
HETATM   21  N6  MIQ B 502      14.684  -2.452  10.001  1.00140.95    -0.377 N 
HETATM   22  C7  MIQ B 502      14.618  -2.142  11.418  1.00142.12     0.149 C 
HETATM   23  C8  MIQ B 502      13.894  -0.828  11.680  1.00144.10     0.187 C 
HETATM   24  O9  MIQ B 502      14.341   0.211  10.862  1.00148.65    -0.388 OA
HETATM   25  C10 MIQ B 502      15.191  -0.052   9.785  1.00147.44     0.187 C 
HETATM   26  C11 MIQ B 502      15.081  -1.400   9.081  1.00144.08     0.149 C 
ENDBRANCH   5  21
TORSDOF 2
ENDMDL
MODEL 5
REMARK VINA RESULT:      -6.7     13.826     17.573
REMARK  2 active torsions:
REMARK  status: ('A' for Active; 'I' for Inactive)
REMARK    1  A    between atoms: C5_5  and  N6_21 
REMARK    2  A    between atoms: C18_14  and  N17_19 
ROOT
HETATM    1  O1  MIQ B 502       9.483 -19.822   3.132  1.00142.91    -0.171 OA
HETATM    2  C2  MIQ B 502      10.241 -20.709   3.900  1.00141.17     0.195 A 
HETATM    3  C3  MIQ B 502      10.523 -20.593   5.432  1.00141.71     0.035 A 
HETATM    4  C4  MIQ B 502      10.123 -19.615   6.471  1.00142.86     0.046 A 
HETATM    5  C5  MIQ B 502      10.545 -19.782   7.814  1.00139.53     0.031 A 
HETATM    6  C12 MIQ B 502      11.375 -20.923   8.174  1.00139.38     0.030 A 
HETATM    7  C13 MIQ B 502      11.757 -21.863   7.178  1.00141.18     0.019 A 
HETATM    8  C14 MIQ B 502      11.309 -21.683   5.770  1.00138.77     0.033 A 
HETATM    9  C15 MIQ B 502      11.516 -22.479   4.441  1.00142.10     0.195 A 
HETATM   10  N17 MIQ B 502      10.860 -21.809   3.508  1.00139.42    -0.288 N 
HETATM   11  O16 MIQ B 502      12.249 -23.656   4.277  1.00148.93    -0.171 OA
ENDROOT
BRANCH  10  12
HETATM   12  C18 MIQ B 502      10.845 -22.253   2.126  1.00139.82     0.187 C 
HETATM   13  C19 MIQ B 502      11.372 -21.103   1.260  1.00140.06     0.247 C 
HETATM   14  O25 MIQ B 502      12.395 -20.589   1.545  1.00143.95    -0.271 OA
HETATM   15  N20 MIQ B 502      10.652 -20.633   0.094  1.00140.02    -0.296 N 
HETATM   16  H13 MIQ B 502      11.004 -19.877  -0.460  1.00142.77     0.171 HD
HETATM   17  C21 MIQ B 502       9.401 -21.270  -0.228  1.00142.22     0.224 C 
HETATM   18  C22 MIQ B 502       8.564 -21.757   0.939  1.00139.52     0.106 C 
HETATM   19  O24 MIQ B 502       9.049 -21.409  -1.348  1.00146.13    -0.273 OA
HETATM   20  C23 MIQ B 502       9.441 -22.709   1.731  1.00139.15     0.045 C 
ENDBRANCH  10  12
BRANCH   5  21
HETATM   21  N6  MIQ B 502      10.158 -18.808   8.818  1.00140.95    -0.377 N 
HETATM   22  C7  MIQ B 502       9.197 -19.201   9.834  1.00142.12     0.149 C 
HETATM   23  C8  MIQ B 502       8.421 -18.008  10.375  1.00144.10     0.187 C 
HETATM   24  O9  MIQ B 502       9.245 -16.933  10.717  1.00148.65    -0.388 OA
HETATM   25  C10 MIQ B 502      10.594 -16.933  10.355  1.00147.44     0.187 C 
HETATM   26  C11 MIQ B 502      11.007 -17.659   9.079  1.00144.08     0.149 C 
ENDBRANCH   5  21
TORSDOF 2
ENDMDL
MODEL 6
REMARK VINA RESULT:      -6.7     16.994     20.362
REMARK  2 active torsions:
REMARK  status: ('A' for Active; 'I' for Inactive)
REMARK    1  A    between atoms: C5_5  and  N6_21 
REMARK    2  A    between atoms: C18_14  and  N17_19 
ROOT
HETATM    1  O1  MIQ B 502      13.385 -24.573   1.272  1.00142.91    -0.171 OA
HETATM    2  C2  MIQ B 502      13.348 -24.472   2.664  1.00141.17     0.195 A 
HETATM    3  C3  MIQ B 502      12.514 -23.442   3.492  1.00141.71     0.035 A 
HETATM    4  C4  MIQ B 502      11.583 -22.350   3.119  1.00142.86     0.046 A 
HETATM    5  C5  MIQ B 502      10.960 -21.566   4.123  1.00139.53     0.031 A 
HETATM    6  C12 MIQ B 502      11.237 -21.836   5.526  1.00139.38     0.030 A 
HETATM    7  C13 MIQ B 502      12.128 -22.883   5.884  1.00141.18     0.019 A 
HETATM    8  C14 MIQ B 502      12.777 -23.705   4.826  1.00138.77     0.033 A 
HETATM    9  C15 MIQ B 502      13.780 -24.905   4.827  1.00142.10     0.195 A 
HETATM   10  N17 MIQ B 502      13.988 -25.208   3.556  1.00139.42    -0.288 N 
HETATM   11  O16 MIQ B 502      14.340 -25.525   5.945  1.00148.93    -0.171 OA
ENDROOT
BRANCH  10  12
HETATM   12  C18 MIQ B 502      14.888 -26.278   3.170  1.00139.82     0.187 C 
HETATM   13  C19 MIQ B 502      14.554 -27.504   4.030  1.00140.06     0.247 C 
HETATM   14  O25 MIQ B 502      13.436 -27.872   4.097  1.00143.95    -0.271 OA
HETATM   15  N20 MIQ B 502      15.576 -28.227   4.759  1.00140.02    -0.296 N 
HETATM   16  H13 MIQ B 502      15.344 -29.021   5.322  1.00142.77     0.171 HD
HETATM   17  C21 MIQ B 502      16.933 -27.751   4.670  1.00142.22     0.224 C 
HETATM   18  C22 MIQ B 502      17.122 -26.252   4.538  1.00139.52     0.106 C 
HETATM   19  O24 MIQ B 502      17.851 -28.495   4.693  1.00146.13    -0.273 OA
HETATM   20  C23 MIQ B 502      16.341 -25.826   3.307  1.00139.15     0.045 C 
ENDBRANCH  10  12
BRANCH   5  21
HETATM   21  N6  MIQ B 502      10.063 -20.490   3.743  1.00140.95    -0.377 N 
HETATM   22  C7  MIQ B 502       9.329 -20.606   2.495  1.00142.12     0.149 C 
HETATM   23  C8  MIQ B 502       8.972 -19.242   1.917  1.00144.10     0.187 C 
HETATM   24  O9  MIQ B 502       8.410 -18.382   2.862  1.00148.65    -0.388 OA
HETATM   25  C10 MIQ B 502       8.422 -18.716   4.219  1.00147.44     0.187 C 
HETATM   26  C11 MIQ B 502       9.571 -19.566   4.750  1.00144.08     0.149 C 
ENDBRANCH   5  21
TORSDOF 2
ENDMDL
MODEL 7
REMARK VINA RESULT:      -6.7     15.338     19.745
REMARK  2 active torsions:
REMARK  status: ('A' for Active; 'I' for Inactive)
REMARK    1  A    between atoms: C5_5  and  N6_21 
REMARK    2  A    between atoms: C18_14  and  N17_19 
ROOT
HETATM    1  O1  MIQ B 502      12.197 -23.643   6.744  1.00142.91    -0.171 OA
HETATM    2  C2  MIQ B 502      11.772 -22.630   5.881  1.00141.17     0.195 A 
HETATM    3  C3  MIQ B 502      12.043 -22.554   4.344  1.00141.71     0.035 A 
HETATM    4  C4  MIQ B 502      12.758 -23.435   3.391  1.00142.86     0.046 A 
HETATM    5  C5  MIQ B 502      12.835 -23.092   2.017  1.00139.53     0.031 A 
HETATM    6  C12 MIQ B 502      12.207 -21.868   1.542  1.00139.38     0.030 A 
HETATM    7  C13 MIQ B 502      11.521 -21.023   2.456  1.00141.18     0.019 A 
HETATM    8  C14 MIQ B 502      11.441 -21.390   3.896  1.00138.77     0.033 A 
HETATM    9  C15 MIQ B 502      10.793 -20.739   5.162  1.00142.10     0.195 A 
HETATM   10  N17 MIQ B 502      11.066 -21.550   6.170  1.00139.42    -0.288 N 
HETATM   11  O16 MIQ B 502      10.075 -19.543   5.212  1.00148.93    -0.171 OA
ENDROOT
BRANCH  10  12
HETATM   12  C18 MIQ B 502      10.629 -21.253   7.521  1.00139.82     0.187 C 
HETATM   13  C19 MIQ B 502       9.147 -20.863   7.458  1.00140.06     0.247 C 
HETATM   14  O25 MIQ B 502       8.389 -21.570   6.896  1.00143.95    -0.271 OA
HETATM   15  N20 MIQ B 502       8.649 -19.651   8.076  1.00140.02    -0.296 N 
HETATM   16  H13 MIQ B 502       7.681 -19.405   8.022  1.00142.77     0.171 HD
HETATM   17  C21 MIQ B 502       9.596 -18.799   8.748  1.00142.22     0.224 C 
HETATM   18  C22 MIQ B 502      10.994 -18.741   8.165  1.00139.52     0.106 C 
HETATM   19  O24 MIQ B 502       9.296 -18.180   9.710  1.00146.13    -0.273 OA
HETATM   20  C23 MIQ B 502      11.510 -20.168   8.139  1.00139.15     0.045 C 
ENDBRANCH  10  12
BRANCH   5  21
HETATM   21  N6  MIQ B 502      13.551 -23.957   1.097  1.00140.95    -0.377 N 
HETATM   22  C7  MIQ B 502      13.504 -23.651  -0.322  1.00142.12     0.149 C 
HETATM   23  C8  MIQ B 502      13.704 -24.895  -1.179  1.00144.10     0.187 C 
HETATM   24  O9  MIQ B 502      14.794 -25.667  -0.770  1.00148.65    -0.388 OA
HETATM   25  C10 MIQ B 502      15.438 -25.396   0.440  1.00147.44     0.187 C 
HETATM   26  C11 MIQ B 502      14.622 -24.807   1.586  1.00144.08     0.149 C 
ENDBRANCH   5  21
TORSDOF 2
ENDMDL
MODEL 8
REMARK VINA RESULT:      -6.7     16.833     20.539
REMARK  2 active torsions:
REMARK  status: ('A' for Active; 'I' for Inactive)
REMARK    1  A    between atoms: C5_5  and  N6_21 
REMARK    2  A    between atoms: C18_14  and  N17_19 
ROOT
HETATM    1  O1  MIQ B 502      13.713 -23.491   0.155  1.00142.91    -0.171 OA
HETATM    2  C2  MIQ B 502      13.640 -23.851   1.502  1.00141.17     0.195 A 
HETATM    3  C3  MIQ B 502      12.756 -23.167   2.593  1.00141.71     0.035 A 
HETATM    4  C4  MIQ B 502      11.801 -22.034   2.568  1.00142.86     0.046 A 
HETATM    5  C5  MIQ B 502      11.131 -21.635   3.752  1.00139.53     0.031 A 
HETATM    6  C12 MIQ B 502      11.383 -22.344   4.999  1.00139.38     0.030 A 
HETATM    7  C13 MIQ B 502      12.297 -23.431   5.023  1.00141.18     0.019 A 
HETATM    8  C14 MIQ B 502      12.996 -23.847   3.777  1.00138.77     0.033 A 
HETATM    9  C15 MIQ B 502      14.035 -24.959   3.418  1.00142.10     0.195 A 
HETATM   10  N17 MIQ B 502      14.282 -24.825   2.125  1.00139.42    -0.288 N 
HETATM   11  O16 MIQ B 502      14.588 -25.899   4.290  1.00148.93    -0.171 OA
ENDROOT
BRANCH  10  12
HETATM   12  C18 MIQ B 502      15.224 -25.690   1.440  1.00139.82     0.187 C 
HETATM   13  C19 MIQ B 502      14.841 -27.141   1.756  1.00140.06     0.247 C 
HETATM   14  O25 MIQ B 502      13.725 -27.490   1.595  1.00143.95    -0.271 OA
HETATM   15  N20 MIQ B 502      15.812 -28.100   2.241  1.00140.02    -0.296 N 
HETATM   16  H13 MIQ B 502      15.548 -29.043   2.449  1.00142.77     0.171 HD
HETATM   17  C21 MIQ B 502      17.165 -27.647   2.439  1.00142.22     0.224 C 
HETATM   18  C22 MIQ B 502      17.344 -26.210   2.887  1.00139.52     0.106 C 
HETATM   19  O24 MIQ B 502      18.089 -28.362   2.255  1.00146.13    -0.273 OA
HETATM   20  C23 MIQ B 502      16.656 -25.345   1.847  1.00139.15     0.045 C 
ENDBRANCH  10  12
BRANCH   5  21
HETATM   21  N6  MIQ B 502      10.210 -20.514   3.716  1.00140.95    -0.377 N 
HETATM   22  C7  MIQ B 502       9.285 -20.410   2.600  1.00142.12     0.149 C 
HETATM   23  C8  MIQ B 502       8.872 -18.968   2.335  1.00144.10     0.187 C 
HETATM   24  O9  MIQ B 502       8.487 -18.292   3.494  1.00148.65    -0.388 OA
HETATM   25  C10 MIQ B 502       8.706 -18.860   4.751  1.00147.44     0.187 C 
HETATM   26  C11 MIQ B 502       9.905 -19.785   4.935  1.00144.08     0.149 C 
ENDBRANCH   5  21
TORSDOF 2
ENDMDL
MODEL 9
REMARK VINA RESULT:      -6.7      1.820      2.471
REMARK  2 active torsions:
REMARK  status: ('A' for Active; 'I' for Inactive)
REMARK    1  A    between atoms: C5_5  and  N6_21 
REMARK    2  A    between atoms: C18_14  and  N17_19 
ROOT
HETATM    1  O1  MIQ B 502      13.716  -6.054  12.953  1.00142.91    -0.171 OA
HETATM    2  C2  MIQ B 502      13.950  -6.020  11.577  1.00141.17     0.195 A 
HETATM    3  C3  MIQ B 502      14.307  -4.754  10.733  1.00141.71     0.035 A 
HETATM    4  C4  MIQ B 502      14.499  -3.324  11.073  1.00142.86     0.046 A 
HETATM    5  C5  MIQ B 502      14.829  -2.386  10.062  1.00139.53     0.031 A 
HETATM    6  C12 MIQ B 502      14.980  -2.831   8.684  1.00139.38     0.030 A 
HETATM    7  C13 MIQ B 502      14.797  -4.202   8.359  1.00141.18     0.019 A 
HETATM    8  C14 MIQ B 502      14.453  -5.183   9.424  1.00138.77     0.033 A 
HETATM    9  C15 MIQ B 502      14.186  -6.724   9.455  1.00142.10     0.195 A 
HETATM   10  N17 MIQ B 502      13.927  -7.024  10.717  1.00139.42    -0.288 N 
HETATM   11  O16 MIQ B 502      14.215  -7.599   8.368  1.00148.93    -0.171 OA
ENDROOT
BRANCH  10  12
HETATM   12  C18 MIQ B 502      13.612  -8.381  11.124  1.00139.82     0.187 C 
HETATM   13  C19 MIQ B 502      14.704  -9.301  10.565  1.00140.06     0.247 C 
HETATM   14  O25 MIQ B 502      15.837  -9.035  10.759  1.00143.95    -0.271 OA
HETATM   15  N20 MIQ B 502      14.384 -10.495   9.809  1.00140.02    -0.296 N 
HETATM   16  H13 MIQ B 502      15.106 -11.084   9.444  1.00142.77     0.171 HD
HETATM   17  C21 MIQ B 502      12.994 -10.793   9.576  1.00142.22     0.224 C 
HETATM   18  C22 MIQ B 502      12.062  -9.609   9.407  1.00139.52     0.106 C 
HETATM   19  O24 MIQ B 502      12.601 -11.907   9.526  1.00146.13    -0.273 OA
HETATM   20  C23 MIQ B 502      12.208  -8.763  10.659  1.00139.15     0.045 C 
ENDBRANCH  10  12
BRANCH   5  21
HETATM   21  N6  MIQ B 502      14.999  -0.986  10.406  1.00140.95    -0.377 N 
HETATM   22  C7  MIQ B 502      15.375  -0.054   9.357  1.00142.12     0.149 C 
HETATM   23  C8  MIQ B 502      16.123   1.153   9.910  1.00144.10     0.187 C 
HETATM   24  O9  MIQ B 502      15.492   1.723  11.017  1.00148.65    -0.388 OA
HETATM   25  C10 MIQ B 502      14.426   1.067  11.640  1.00147.44     0.187 C 
HETATM   26  C11 MIQ B 502      14.394  -0.457  11.616  1.00144.08     0.149 C 
ENDBRANCH   5  21
TORSDOF 2
ENDMDL
