MODEL 1
REMARK VINA RESULT:      -6.6      0.000      0.000
REMARK  2 active torsions:
REMARK  status: ('A' for Active; 'I' for Inactive)
REMARK    1  A    between atoms: C5_5  and  N6_21 
REMARK    2  A    between atoms: C18_14  and  N17_19 
ROOT
HETATM    1  O1  MIQ B 502     -20.304   9.891   3.691  1.00142.91    -0.171 OA
HETATM    2  C2  MIQ B 502     -20.354   8.763   4.513  1.00141.17     0.195 A 
HETATM    3  C3  MIQ B 502     -19.788   8.654   5.965  1.00141.71     0.035 A 
HETATM    4  C4  MIQ B 502     -19.088   9.606   6.859  1.00142.86     0.046 A 
HETATM    5  C5  MIQ B 502     -18.687   9.206   8.159  1.00139.53     0.031 A 
HETATM    6  C12 MIQ B 502     -18.966   7.852   8.616  1.00139.38     0.030 A 
HETATM    7  C13 MIQ B 502     -19.637   6.939   7.759  1.00141.18     0.019 A 
HETATM    8  C14 MIQ B 502     -20.058   7.366   6.396  1.00138.77     0.033 A 
HETATM    9  C15 MIQ B 502     -20.796   6.671   5.206  1.00142.10     0.195 A 
HETATM   10  N17 MIQ B 502     -20.881   7.579   4.248  1.00139.42    -0.288 N 
HETATM   11  O16 MIQ B 502     -21.266   5.357   5.167  1.00148.93    -0.171 OA
ENDROOT
BRANCH  10  12
HETATM   12  C18 MIQ B 502     -21.501   7.278   2.971  1.00139.82     0.187 C 
HETATM   13  C19 MIQ B 502     -20.495   7.629   1.869  1.00140.06     0.247 C 
HETATM   14  O25 MIQ B 502     -19.396   7.205   1.935  1.00143.95    -0.271 OA
HETATM   15  N20 MIQ B 502     -20.857   8.464   0.741  1.00140.02    -0.296 N 
HETATM   16  H13 MIQ B 502     -20.189   8.691   0.031  1.00142.77     0.171 HD
HETATM   17  C21 MIQ B 502     -22.201   8.978   0.687  1.00142.22     0.224 C 
HETATM   18  C22 MIQ B 502     -22.860   9.302   2.014  1.00139.52     0.106 C 
HETATM   19  O24 MIQ B 502     -22.762   9.134  -0.341  1.00146.13    -0.273 OA
HETATM   20  C23 MIQ B 502     -22.827   8.025   2.835  1.00139.15     0.045 C 
ENDBRANCH  10  12
BRANCH   5  21
HETATM   21  N6  MIQ B 502     -17.990  10.144   9.020  1.00140.95    -0.377 N 
HETATM   22  C7  MIQ B 502     -16.538  10.160   8.996  1.00142.12     0.149 C 
HETATM   23  C8  MIQ B 502     -15.953  10.658  10.312  1.00144.10     0.187 C 
HETATM   24  O9  MIQ B 502     -16.556  11.834  10.764  1.00148.65    -0.388 OA
HETATM   25  C10 MIQ B 502     -17.717  12.314  10.153  1.00147.44     0.187 C 
HETATM   26  C11 MIQ B 502     -18.686  11.310   9.536  1.00144.08     0.149 C 
ENDBRANCH   5  21
TORSDOF 2
ENDMDL
MODEL 2
REMARK VINA RESULT:      -6.5      1.023      1.481
REMARK  2 active torsions:
REMARK  status: ('A' for Active; 'I' for Inactive)
REMARK    1  A    between atoms: C5_5  and  N6_21 
REMARK    2  A    between atoms: C18_14  and  N17_19 
ROOT
HETATM    1  O1  MIQ B 502     -20.546  10.240   3.044  1.00142.91    -0.171 OA
HETATM    2  C2  MIQ B 502     -20.761   9.066   3.769  1.00141.17     0.195 A 
HETATM    3  C3  MIQ B 502     -20.158   8.722   5.168  1.00141.71     0.035 A 
HETATM    4  C4  MIQ B 502     -19.256   9.446   6.094  1.00142.86     0.046 A 
HETATM    5  C5  MIQ B 502     -18.874   8.860   7.328  1.00139.53     0.031 A 
HETATM    6  C12 MIQ B 502     -19.373   7.540   7.685  1.00139.38     0.030 A 
HETATM    7  C13 MIQ B 502     -20.239   6.845   6.798  1.00141.18     0.019 A 
HETATM    8  C14 MIQ B 502     -20.637   7.467   5.505  1.00138.77     0.033 A 
HETATM    9  C15 MIQ B 502     -21.545   7.029   4.309  1.00142.10     0.195 A 
HETATM   10  N17 MIQ B 502     -21.507   8.025   3.439  1.00139.42    -0.288 N 
HETATM   11  O16 MIQ B 502     -22.247   5.829   4.188  1.00148.93    -0.171 OA
ENDROOT
BRANCH  10  12
HETATM   12  C18 MIQ B 502     -22.230   7.960   2.182  1.00139.82     0.187 C 
HETATM   13  C19 MIQ B 502     -21.205   8.068   1.047  1.00140.06     0.247 C 
HETATM   14  O25 MIQ B 502     -20.264   7.356   1.051  1.00143.95    -0.271 OA
HETATM   15  N20 MIQ B 502     -21.361   9.017  -0.036  1.00140.02    -0.296 N 
HETATM   16  H13 MIQ B 502     -20.681   9.082  -0.768  1.00142.77     0.171 HD
HETATM   17  C21 MIQ B 502     -22.512   9.883  -0.013  1.00142.22     0.224 C 
HETATM   18  C22 MIQ B 502     -23.010  10.318   1.351  1.00139.52     0.106 C 
HETATM   19  O24 MIQ B 502     -23.043  10.231  -1.010  1.00146.13    -0.273 OA
HETATM   20  C23 MIQ B 502     -23.302   9.048   2.129  1.00139.15     0.045 C 
ENDBRANCH  10  12
BRANCH   5  21
HETATM   21  N6  MIQ B 502     -17.979   9.574   8.219  1.00140.95    -0.377 N 
HETATM   22  C7  MIQ B 502     -18.539  10.571   9.115  1.00142.12     0.149 C 
HETATM   23  C8  MIQ B 502     -17.520  11.641   9.484  1.00144.10     0.187 C 
HETATM   24  O9  MIQ B 502     -16.291  11.109   9.879  1.00148.65    -0.388 OA
HETATM   25  C10 MIQ B 502     -16.020   9.749   9.703  1.00147.44     0.187 C 
HETATM   26  C11 MIQ B 502     -16.673   9.021   8.533  1.00144.08     0.149 C 
ENDBRANCH   5  21
TORSDOF 2
ENDMDL
MODEL 3
REMARK VINA RESULT:      -6.5      3.234      8.615
REMARK  2 active torsions:
REMARK  status: ('A' for Active; 'I' for Inactive)
REMARK    1  A    between atoms: C5_5  and  N6_21 
REMARK    2  A    between atoms: C18_14  and  N17_19 
ROOT
HETATM    1  O1  MIQ B 502     -20.863  10.436   3.377  1.00142.91    -0.171 OA
HETATM    2  C2  MIQ B 502     -21.489   9.388   2.698  1.00141.17     0.195 A 
HETATM    3  C3  MIQ B 502     -22.513   9.529   1.527  1.00141.71     0.035 A 
HETATM    4  C4  MIQ B 502     -23.096  10.692   0.818  1.00142.86     0.046 A 
HETATM    5  C5  MIQ B 502     -24.026  10.498  -0.235  1.00139.53     0.031 A 
HETATM    6  C12 MIQ B 502     -24.407   9.147  -0.621  1.00139.38     0.030 A 
HETATM    7  C13 MIQ B 502     -23.847   8.031   0.057  1.00141.18     0.019 A 
HETATM    8  C14 MIQ B 502     -22.870   8.242   1.161  1.00138.77     0.033 A 
HETATM    9  C15 MIQ B 502     -22.063   7.296   2.109  1.00142.10     0.195 A 
HETATM   10  N17 MIQ B 502     -21.350   8.088   2.893  1.00139.42    -0.288 N 
HETATM   11  O16 MIQ B 502     -22.095   5.901   2.123  1.00148.93    -0.171 OA
ENDROOT
BRANCH  10  12
HETATM   12  C18 MIQ B 502     -20.480   7.550   3.923  1.00139.82     0.187 C 
HETATM   13  C19 MIQ B 502     -20.904   8.167   5.261  1.00140.06     0.247 C 
HETATM   14  O25 MIQ B 502     -22.039   8.129   5.580  1.00143.95    -0.271 OA
HETATM   15  N20 MIQ B 502     -19.946   8.791   6.151  1.00140.02    -0.296 N 
HETATM   16  H13 MIQ B 502     -20.237   9.196   7.019  1.00142.77     0.171 HD
HETATM   17  C21 MIQ B 502     -18.568   8.835   5.736  1.00142.22     0.224 C 
HETATM   18  C22 MIQ B 502     -18.309   8.977   4.248  1.00139.52     0.106 C 
HETATM   19  O24 MIQ B 502     -17.685   8.758   6.517  1.00146.13    -0.273 OA
HETATM   20  C23 MIQ B 502     -19.016   7.815   3.575  1.00139.15     0.045 C 
ENDBRANCH  10  12
BRANCH   5  21
HETATM   21  N6  MIQ B 502     -24.601  11.647  -0.910  1.00140.95    -0.377 N 
HETATM   22  C7  MIQ B 502     -25.769  12.283  -0.326  1.00142.12     0.149 C 
HETATM   23  C8  MIQ B 502     -26.618  12.987  -1.377  1.00144.10     0.187 C 
HETATM   24  O9  MIQ B 502     -25.865  13.792  -2.233  1.00148.65    -0.388 OA
HETATM   25  C10 MIQ B 502     -24.469  13.727  -2.222  1.00147.44     0.187 C 
HETATM   26  C11 MIQ B 502     -23.804  12.404  -1.860  1.00144.08     0.149 C 
ENDBRANCH   5  21
TORSDOF 2
ENDMDL
MODEL 4
REMARK VINA RESULT:      -6.4      2.751      3.902
REMARK  2 active torsions:
REMARK  status: ('A' for Active; 'I' for Inactive)
REMARK    1  A    between atoms: C5_5  and  N6_21 
REMARK    2  A    between atoms: C18_14  and  N17_19 
ROOT
HETATM    1  O1  MIQ B 502     -22.551   6.061   3.773  1.00142.91    -0.171 OA
HETATM    2  C2  MIQ B 502     -21.281   6.580   3.514  1.00141.17     0.195 A 
HETATM    3  C3  MIQ B 502     -20.481   7.560   4.430  1.00141.71     0.035 A 
HETATM    4  C4  MIQ B 502     -20.767   8.195   5.738  1.00142.86     0.046 A 
HETATM    5  C5  MIQ B 502     -19.818   9.062   6.336  1.00139.53     0.031 A 
HETATM    6  C12 MIQ B 502     -18.555   9.328   5.662  1.00139.38     0.030 A 
HETATM    7  C13 MIQ B 502     -18.280   8.718   4.408  1.00141.18     0.019 A 
HETATM    8  C14 MIQ B 502     -19.279   7.807   3.786  1.00138.77     0.033 A 
HETATM    9  C15 MIQ B 502     -19.334   6.975   2.463  1.00142.10     0.195 A 
HETATM   10  N17 MIQ B 502     -20.502   6.355   2.469  1.00139.42    -0.288 N 
HETATM   11  O16 MIQ B 502     -18.347   6.906   1.478  1.00148.93    -0.171 OA
ENDROOT
BRANCH  10  12
HETATM   12  C18 MIQ B 502     -20.909   5.494   1.374  1.00139.82     0.187 C 
HETATM   13  C19 MIQ B 502     -22.282   5.973   0.887  1.00140.06     0.247 C 
HETATM   14  O25 MIQ B 502     -22.436   7.114   0.630  1.00143.95    -0.271 OA
HETATM   15  N20 MIQ B 502     -23.396   5.062   0.728  1.00140.02    -0.296 N 
HETATM   16  H13 MIQ B 502     -24.289   5.388   0.415  1.00142.77     0.171 HD
HETATM   17  C21 MIQ B 502     -23.187   3.676   1.057  1.00142.22     0.224 C 
HETATM   18  C22 MIQ B 502     -22.225   3.383   2.193  1.00139.52     0.106 C 
HETATM   19  O24 MIQ B 502     -23.734   2.810   0.467  1.00146.13    -0.273 OA
HETATM   20  C23 MIQ B 502     -20.905   4.032   1.818  1.00139.15     0.045 C 
ENDBRANCH  10  12
BRANCH   5  21
HETATM   21  N6  MIQ B 502     -20.118   9.689   7.611  1.00140.95    -0.377 N 
HETATM   22  C7  MIQ B 502     -21.418   9.451   8.213  1.00142.12     0.149 C 
HETATM   23  C8  MIQ B 502     -21.840  10.596   9.125  1.00144.10     0.187 C 
HETATM   24  O9  MIQ B 502     -20.834  10.984  10.012  1.00148.65    -0.388 OA
HETATM   25  C10 MIQ B 502     -19.533  10.496   9.863  1.00147.44     0.187 C 
HETATM   26  C11 MIQ B 502     -19.037  10.156   8.462  1.00144.08     0.149 C 
ENDBRANCH   5  21
TORSDOF 2
ENDMDL
MODEL 5
REMARK VINA RESULT:      -6.4      1.675      2.181
REMARK  2 active torsions:
REMARK  status: ('A' for Active; 'I' for Inactive)
REMARK    1  A    between atoms: C5_5  and  N6_21 
REMARK    2  A    between atoms: C18_14  and  N17_19 
ROOT
HETATM    1  O1  MIQ B 502     -18.607  10.585   4.121  1.00142.91    -0.171 OA
HETATM    2  C2  MIQ B 502     -19.016   9.481   4.873  1.00141.17     0.195 A 
HETATM    3  C3  MIQ B 502     -18.821   9.290   6.411  1.00141.71     0.035 A 
HETATM    4  C4  MIQ B 502     -18.209  10.124   7.472  1.00142.86     0.046 A 
HETATM    5  C5  MIQ B 502     -18.183   9.670   8.815  1.00139.53     0.031 A 
HETATM    6  C12 MIQ B 502     -18.762   8.378   9.152  1.00139.38     0.030 A 
HETATM    7  C13 MIQ B 502     -19.350   7.578   8.135  1.00141.18     0.019 A 
HETATM    8  C14 MIQ B 502     -19.377   8.061   6.727  1.00138.77     0.033 A 
HETATM    9  C15 MIQ B 502     -19.920   7.487   5.378  1.00142.10     0.195 A 
HETATM   10  N17 MIQ B 502     -19.643   8.394   4.457  1.00139.42    -0.288 N 
HETATM   11  O16 MIQ B 502     -20.564   6.262   5.190  1.00148.93    -0.171 OA
ENDROOT
BRANCH  10  12
HETATM   12  C18 MIQ B 502     -19.992   8.190   3.063  1.00139.82     0.187 C 
HETATM   13  C19 MIQ B 502     -21.468   7.781   3.006  1.00140.06     0.247 C 
HETATM   14  O25 MIQ B 502     -22.270   8.438   3.569  1.00143.95    -0.271 OA
HETATM   15  N20 MIQ B 502     -21.909   6.611   2.274  1.00140.02    -0.296 N 
HETATM   16  H13 MIQ B 502     -22.875   6.351   2.250  1.00142.77     0.171 HD
HETATM   17  C21 MIQ B 502     -20.910   5.819   1.604  1.00142.22     0.224 C 
HETATM   18  C22 MIQ B 502     -19.549   5.735   2.267  1.00139.52     0.106 C 
HETATM   19  O24 MIQ B 502     -21.141   5.268   0.584  1.00146.13    -0.273 OA
HETATM   20  C23 MIQ B 502     -19.058   7.162   2.426  1.00139.15     0.045 C 
ENDBRANCH  10  12
BRANCH   5  21
HETATM   21  N6  MIQ B 502     -17.566  10.490   9.841  1.00140.95    -0.377 N 
HETATM   22  C7  MIQ B 502     -16.128  10.689   9.801  1.00142.12     0.149 C 
HETATM   23  C8  MIQ B 502     -15.554  10.975  11.182  1.00144.10     0.187 C 
HETATM   24  O9  MIQ B 502     -16.271  11.950  11.878  1.00148.65    -0.388 OA
HETATM   25  C10 MIQ B 502     -17.504  12.399  11.397  1.00147.44     0.187 C 
HETATM   26  C11 MIQ B 502     -18.372  11.431  10.599  1.00144.08     0.149 C 
ENDBRANCH   5  21
TORSDOF 2
ENDMDL
MODEL 6
REMARK VINA RESULT:      -6.3      2.223      3.357
REMARK  2 active torsions:
REMARK  status: ('A' for Active; 'I' for Inactive)
REMARK    1  A    between atoms: C5_5  and  N6_21 
REMARK    2  A    between atoms: C18_14  and  N17_19 
ROOT
HETATM    1  O1  MIQ B 502     -23.195   8.123   2.983  1.00142.91    -0.171 OA
HETATM    2  C2  MIQ B 502     -21.813   7.954   2.876  1.00141.17     0.195 A 
HETATM    3  C3  MIQ B 502     -20.750   8.339   3.954  1.00141.71     0.035 A 
HETATM    4  C4  MIQ B 502     -20.841   8.944   5.304  1.00142.86     0.046 A 
HETATM    5  C5  MIQ B 502     -19.668   9.178   6.065  1.00139.53     0.031 A 
HETATM    6  C12 MIQ B 502     -18.367   8.821   5.516  1.00139.38     0.030 A 
HETATM    7  C13 MIQ B 502     -18.280   8.240   4.223  1.00141.18     0.019 A 
HETATM    8  C14 MIQ B 502     -19.515   7.994   3.429  1.00138.77     0.033 A 
HETATM    9  C15 MIQ B 502     -19.813   7.391   2.018  1.00142.10     0.195 A 
HETATM   10  N17 MIQ B 502     -21.126   7.440   1.869  1.00139.42    -0.288 N 
HETATM   11  O16 MIQ B 502     -18.878   6.904   1.103  1.00148.93    -0.171 OA
ENDROOT
BRANCH  10  12
HETATM   12  C18 MIQ B 502     -21.770   6.972   0.656  1.00139.82     0.187 C 
HETATM   13  C19 MIQ B 502     -22.639   8.115   0.117  1.00140.06     0.247 C 
HETATM   14  O25 MIQ B 502     -22.162   9.185  -0.022  1.00143.95    -0.271 OA
HETATM   15  N20 MIQ B 502     -24.030   7.917  -0.233  1.00140.02    -0.296 N 
HETATM   16  H13 MIQ B 502     -24.589   8.673  -0.578  1.00142.77     0.171 HD
HETATM   17  C21 MIQ B 502     -24.592   6.604  -0.046  1.00142.22     0.224 C 
HETATM   18  C22 MIQ B 502     -24.062   5.797   1.123  1.00139.52     0.106 C 
HETATM   19  O24 MIQ B 502     -25.422   6.177  -0.772  1.00146.13    -0.273 OA
HETATM   20  C23 MIQ B 502     -22.560   5.694   0.931  1.00139.15     0.045 C 
ENDBRANCH  10  12
BRANCH   5  21
HETATM   21  N6  MIQ B 502     -19.770   9.784   7.380  1.00140.95    -0.377 N 
HETATM   22  C7  MIQ B 502     -20.943   9.497   8.188  1.00142.12     0.149 C 
HETATM   23  C8  MIQ B 502     -21.244  10.620   9.172  1.00144.10     0.187 C 
HETATM   24  O9  MIQ B 502     -20.117  11.035   9.884  1.00148.65    -0.388 OA
HETATM   25  C10 MIQ B 502     -18.844  10.593   9.514  1.00147.44     0.187 C 
HETATM   26  C11 MIQ B 502     -18.579  10.281   8.045  1.00144.08     0.149 C 
ENDBRANCH   5  21
TORSDOF 2
ENDMDL
MODEL 7
REMARK VINA RESULT:      -6.3      2.077      8.426
REMARK  2 active torsions:
REMARK  status: ('A' for Active; 'I' for Inactive)
REMARK    1  A    between atoms: C5_5  and  N6_21 
REMARK    2  A    between atoms: C18_14  and  N17_19 
ROOT
HETATM    1  O1  MIQ B 502     -19.381   7.002   8.705  1.00142.91    -0.171 OA
HETATM    2  C2  MIQ B 502     -19.013   8.171   8.035  1.00141.17     0.195 A 
HETATM    3  C3  MIQ B 502     -19.178   8.449   6.507  1.00141.71     0.035 A 
HETATM    4  C4  MIQ B 502     -19.724   7.656   5.380  1.00142.86     0.046 A 
HETATM    5  C5  MIQ B 502     -19.741   8.193   4.068  1.00139.53     0.031 A 
HETATM    6  C12 MIQ B 502     -19.220   9.532   3.828  1.00139.38     0.030 A 
HETATM    7  C13 MIQ B 502     -18.698  10.293   4.909  1.00141.18     0.019 A 
HETATM    8  C14 MIQ B 502     -18.684   9.724   6.284  1.00138.77     0.033 A 
HETATM    9  C15 MIQ B 502     -18.211  10.241   7.682  1.00142.10     0.195 A 
HETATM   10  N17 MIQ B 502     -18.465   9.264   8.538  1.00139.42    -0.288 N 
HETATM   11  O16 MIQ B 502     -17.634  11.481   7.964  1.00148.93    -0.171 OA
ENDROOT
BRANCH  10  12
HETATM   12  C18 MIQ B 502     -18.138   9.387   9.946  1.00139.82     0.187 C 
HETATM   13  C19 MIQ B 502     -18.756  10.694  10.458  1.00140.06     0.247 C 
HETATM   14  O25 MIQ B 502     -19.897  10.911  10.250  1.00143.95    -0.271 OA
HETATM   15  N20 MIQ B 502     -17.980  11.668  11.196  1.00140.02    -0.296 N 
HETATM   16  H13 MIQ B 502     -18.394  12.521  11.519  1.00142.77     0.171 HD
HETATM   17  C21 MIQ B 502     -16.587  11.385  11.427  1.00142.22     0.224 C 
HETATM   18  C22 MIQ B 502     -15.859  10.614  10.344  1.00139.52     0.106 C 
HETATM   19  O24 MIQ B 502     -16.042  11.734  12.417  1.00146.13    -0.273 OA
HETATM   20  C23 MIQ B 502     -16.625   9.318  10.148  1.00139.15     0.045 C 
ENDBRANCH  10  12
BRANCH   5  21
HETATM   21  N6  MIQ B 502     -20.265   7.400   2.971  1.00140.95    -0.377 N 
HETATM   22  C7  MIQ B 502     -20.105   5.957   3.020  1.00142.12     0.149 C 
HETATM   23  C8  MIQ B 502     -20.085   5.340   1.627  1.00144.10     0.187 C 
HETATM   24  O9  MIQ B 502     -21.124   5.798   0.815  1.00148.65    -0.388 OA
HETATM   25  C10 MIQ B 502     -21.914   6.878   1.218  1.00147.44     0.187 C 
HETATM   26  C11 MIQ B 502     -21.285   7.953   2.098  1.00144.08     0.149 C 
ENDBRANCH   5  21
TORSDOF 2
ENDMDL
MODEL 8
REMARK VINA RESULT:      -6.3      3.014      8.407
REMARK  2 active torsions:
REMARK  status: ('A' for Active; 'I' for Inactive)
REMARK    1  A    between atoms: C5_5  and  N6_21 
REMARK    2  A    between atoms: C18_14  and  N17_19 
ROOT
HETATM    1  O1  MIQ B 502     -21.713   9.572   4.817  1.00142.91    -0.171 OA
HETATM    2  C2  MIQ B 502     -21.585   8.936   3.580  1.00141.17     0.195 A 
HETATM    3  C3  MIQ B 502     -22.612   8.991   2.404  1.00141.71     0.035 A 
HETATM    4  C4  MIQ B 502     -23.920   9.664   2.225  1.00142.86     0.046 A 
HETATM    5  C5  MIQ B 502     -24.637   9.524   1.009  1.00139.53     0.031 A 
HETATM    6  C12 MIQ B 502     -24.084   8.715  -0.067  1.00139.38     0.030 A 
HETATM    7  C13 MIQ B 502     -22.829   8.071   0.104  1.00141.18     0.019 A 
HETATM    8  C14 MIQ B 502     -22.079   8.223   1.381  1.00138.77     0.033 A 
HETATM    9  C15 MIQ B 502     -20.714   7.689   1.925  1.00142.10     0.195 A 
HETATM   10  N17 MIQ B 502     -20.592   8.177   3.149  1.00139.42    -0.288 N 
HETATM   11  O16 MIQ B 502     -19.812   6.863   1.252  1.00148.93    -0.171 OA
ENDROOT
BRANCH  10  12
HETATM   12  C18 MIQ B 502     -19.438   7.873   3.974  1.00139.82     0.187 C 
HETATM   13  C19 MIQ B 502     -19.951   7.336   5.316  1.00140.06     0.247 C 
HETATM   14  O25 MIQ B 502     -20.740   6.459   5.322  1.00143.95    -0.271 OA
HETATM   15  N20 MIQ B 502     -19.489   7.872   6.580  1.00140.02    -0.296 N 
HETATM   16  H13 MIQ B 502     -19.837   7.518   7.449  1.00142.77     0.171 HD
HETATM   17  C21 MIQ B 502     -18.534   8.950   6.546  1.00142.22     0.224 C 
HETATM   18  C22 MIQ B 502     -18.649   9.927   5.393  1.00139.52     0.106 C 
HETATM   19  O24 MIQ B 502     -17.699   9.060   7.375  1.00146.13    -0.273 OA
HETATM   20  C23 MIQ B 502     -18.549   9.107   4.120  1.00139.15     0.045 C 
ENDBRANCH  10  12
BRANCH   5  21
HETATM   21  N6  MIQ B 502     -25.924  10.177   0.853  1.00140.95    -0.377 N 
HETATM   22  C7  MIQ B 502     -25.955  11.539   0.350  1.00142.12     0.149 C 
HETATM   23  C8  MIQ B 502     -27.190  12.293   0.826  1.00144.10     0.187 C 
HETATM   24  O9  MIQ B 502     -28.370  11.567   0.655  1.00148.65    -0.388 OA
HETATM   25  C10 MIQ B 502     -28.325  10.216   0.302  1.00147.44     0.187 C 
HETATM   26  C11 MIQ B 502     -27.136   9.380   0.765  1.00144.08     0.149 C 
ENDBRANCH   5  21
TORSDOF 2
ENDMDL
MODEL 9
REMARK VINA RESULT:      -6.2      2.512      8.470
REMARK  2 active torsions:
REMARK  status: ('A' for Active; 'I' for Inactive)
REMARK    1  A    between atoms: C5_5  and  N6_21 
REMARK    2  A    between atoms: C18_14  and  N17_19 
ROOT
HETATM    1  O1  MIQ B 502     -16.285  10.012   8.612  1.00142.91    -0.171 OA
HETATM    2  C2  MIQ B 502     -17.676  10.125   8.644  1.00141.17     0.195 A 
HETATM    3  C3  MIQ B 502     -18.673   9.554   7.586  1.00141.71     0.035 A 
HETATM    4  C4  MIQ B 502     -18.497   8.783   6.332  1.00142.86     0.046 A 
HETATM    5  C5  MIQ B 502     -19.624   8.395   5.565  1.00139.53     0.031 A 
HETATM    6  C12 MIQ B 502     -20.961   8.756   6.012  1.00139.38     0.030 A 
HETATM    7  C13 MIQ B 502     -21.131   9.494   7.214  1.00141.18     0.019 A 
HETATM    8  C14 MIQ B 502     -19.944   9.896   8.017  1.00138.77     0.033 A 
HETATM    9  C15 MIQ B 502     -19.735  10.684   9.352  1.00142.10     0.195 A 
HETATM   10  N17 MIQ B 502     -18.428  10.718   9.555  1.00139.42    -0.288 N 
HETATM   11  O16 MIQ B 502     -20.729  11.240  10.159  1.00148.93    -0.171 OA
ENDROOT
BRANCH  10  12
HETATM   12  C18 MIQ B 502     -17.859  11.390  10.708  1.00139.82     0.187 C 
HETATM   13  C19 MIQ B 502     -18.590  10.881  11.956  1.00140.06     0.247 C 
HETATM   14  O25 MIQ B 502     -18.691   9.719  12.130  1.00143.95    -0.271 OA
HETATM   15  N20 MIQ B 502     -19.157  11.788  12.932  1.00140.02    -0.296 N 
HETATM   16  H13 MIQ B 502     -19.638  11.443  13.739  1.00142.77     0.171 HD
HETATM   17  C21 MIQ B 502     -19.030  13.203  12.693  1.00142.22     0.224 C 
HETATM   18  C22 MIQ B 502     -19.061  13.654  11.245  1.00139.52     0.106 C 
HETATM   19  O24 MIQ B 502     -18.902  13.971  13.582  1.00146.13    -0.273 OA
HETATM   20  C23 MIQ B 502     -17.946  12.906  10.536  1.00139.15     0.045 C 
ENDBRANCH  10  12
BRANCH   5  21
HETATM   21  N6  MIQ B 502     -19.436   7.653   4.331  1.00140.95    -0.377 N 
HETATM   22  C7  MIQ B 502     -20.582   6.981   3.743  1.00142.12     0.149 C 
HETATM   23  C8  MIQ B 502     -20.166   5.781   2.901  1.00144.10     0.187 C 
HETATM   24  O9  MIQ B 502     -19.127   6.072   2.016  1.00148.65    -0.388 OA
HETATM   25  C10 MIQ B 502     -18.433   7.281   2.112  1.00147.44     0.187 C 
HETATM   26  C11 MIQ B 502     -18.290   7.933   3.484  1.00144.08     0.149 C 
ENDBRANCH   5  21
TORSDOF 2
ENDMDL
