MODEL 1
REMARK VINA RESULT:      -6.4      0.000      0.000
REMARK  2 active torsions:
REMARK  status: ('A' for Active; 'I' for Inactive)
REMARK    1  A    between atoms: C5_5  and  N6_21 
REMARK    2  A    between atoms: C18_14  and  N17_19 
ROOT
HETATM    1  O1  MIQ B 502       6.712  14.308 -17.256  1.00142.91    -0.171 OA
HETATM    2  C2  MIQ B 502       5.819  14.348 -16.183  1.00141.17     0.195 A 
HETATM    3  C3  MIQ B 502       4.675  15.392 -15.974  1.00141.71     0.035 A 
HETATM    4  C4  MIQ B 502       4.204  16.558 -16.759  1.00142.86     0.046 A 
HETATM    5  C5  MIQ B 502       3.110  17.335 -16.301  1.00139.53     0.031 A 
HETATM    6  C12 MIQ B 502       2.447  16.984 -15.053  1.00139.38     0.030 A 
HETATM    7  C13 MIQ B 502       2.897  15.866 -14.301  1.00141.18     0.019 A 
HETATM    8  C14 MIQ B 502       4.045  15.052 -14.788  1.00138.77     0.033 A 
HETATM    9  C15 MIQ B 502       4.801  13.790 -14.258  1.00142.10     0.195 A 
HETATM   10  N17 MIQ B 502       5.747  13.532 -15.146  1.00139.42    -0.288 N 
HETATM   11  O16 MIQ B 502       4.529  13.085 -13.085  1.00148.93    -0.171 OA
ENDROOT
BRANCH  10  12
HETATM   12  C18 MIQ B 502       6.668  12.424 -14.971  1.00139.82     0.187 C 
HETATM   13  C19 MIQ B 502       8.093  12.987 -15.024  1.00140.06     0.247 C 
HETATM   14  O25 MIQ B 502       8.376  13.905 -14.340  1.00143.95    -0.271 OA
HETATM   15  N20 MIQ B 502       9.107  12.417 -15.888  1.00140.02    -0.296 N 
HETATM   16  H13 MIQ B 502      10.033  12.798 -15.918  1.00142.77     0.171 HD
HETATM   17  C21 MIQ B 502       8.736  11.303 -16.721  1.00142.22     0.224 C 
HETATM   18  C22 MIQ B 502       7.311  11.286 -17.240  1.00139.52     0.106 C 
HETATM   19  O24 MIQ B 502       9.503  10.443 -16.981  1.00146.13    -0.273 OA
HETATM   20  C23 MIQ B 502       6.407  11.346 -16.022  1.00139.15     0.045 C 
ENDBRANCH  10  12
BRANCH   5  21
HETATM   21  N6  MIQ B 502       2.669  18.483 -17.071  1.00140.95    -0.377 N 
HETATM   22  C7  MIQ B 502       2.239  18.275 -18.443  1.00142.12     0.149 C 
HETATM   23  C8  MIQ B 502       2.428  19.524 -19.294  1.00144.10     0.187 C 
HETATM   24  O9  MIQ B 502       1.934  20.678 -18.683  1.00148.65    -0.388 OA
HETATM   25  C10 MIQ B 502       1.540  20.655 -17.342  1.00147.44     0.187 C 
HETATM   26  C11 MIQ B 502       2.245  19.694 -16.391  1.00144.08     0.149 C 
ENDBRANCH   5  21
TORSDOF 2
ENDMDL
MODEL 2
REMARK VINA RESULT:      -6.3      1.888      7.838
REMARK  2 active torsions:
REMARK  status: ('A' for Active; 'I' for Inactive)
REMARK    1  A    between atoms: C5_5  and  N6_21 
REMARK    2  A    between atoms: C18_14  and  N17_19 
ROOT
HETATM    1  O1  MIQ B 502       5.264  16.392 -17.398  1.00142.91    -0.171 OA
HETATM    2  C2  MIQ B 502       5.143  15.499 -16.331  1.00141.17     0.195 A 
HETATM    3  C3  MIQ B 502       6.147  14.361 -15.962  1.00141.71     0.035 A 
HETATM    4  C4  MIQ B 502       7.425  13.899 -16.552  1.00142.86     0.046 A 
HETATM    5  C5  MIQ B 502       8.128  12.810 -15.977  1.00139.53     0.031 A 
HETATM    6  C12 MIQ B 502       7.590  12.144 -14.800  1.00139.38     0.030 A 
HETATM    7  C13 MIQ B 502       6.364  12.587 -14.233  1.00141.18     0.019 A 
HETATM    8  C14 MIQ B 502       5.632  13.732 -14.840  1.00138.77     0.033 A 
HETATM    9  C15 MIQ B 502       4.302  14.484 -14.510  1.00142.10     0.195 A 
HETATM   10  N17 MIQ B 502       4.181  15.431 -15.426  1.00139.42    -0.288 N 
HETATM   11  O16 MIQ B 502       3.422  14.207 -13.462  1.00148.93    -0.171 OA
ENDROOT
BRANCH  10  12
HETATM   12  C18 MIQ B 502       3.041  16.328 -15.443  1.00139.82     0.187 C 
HETATM   13  C19 MIQ B 502       2.485  16.353 -16.872  1.00140.06     0.247 C 
HETATM   14  O25 MIQ B 502       2.251  15.333 -17.416  1.00143.95    -0.271 OA
HETATM   15  N20 MIQ B 502       2.234  17.596 -17.572  1.00140.02    -0.296 N 
HETATM   16  H13 MIQ B 502       1.878  17.598 -18.508  1.00142.77     0.171 HD
HETATM   17  C21 MIQ B 502       2.538  18.827 -16.891  1.00142.22     0.224 C 
HETATM   18  C22 MIQ B 502       3.721  18.807 -15.942  1.00139.52     0.106 C 
HETATM   19  O24 MIQ B 502       1.892  19.803 -17.060  1.00146.13    -0.273 OA
HETATM   20  C23 MIQ B 502       3.444  17.710 -14.930  1.00139.15     0.045 C 
ENDBRANCH  10  12
BRANCH   5  21
HETATM   21  N6  MIQ B 502       9.372  12.359 -16.574  1.00140.95    -0.377 N 
HETATM   22  C7  MIQ B 502      10.576  13.137 -16.341  1.00142.12     0.149 C 
HETATM   23  C8  MIQ B 502      11.588  12.969 -17.468  1.00144.10     0.187 C 
HETATM   24  O9  MIQ B 502      11.798  11.633 -17.814  1.00148.65    -0.388 OA
HETATM   25  C10 MIQ B 502      10.966  10.631 -17.308  1.00147.44     0.187 C 
HETATM   26  C11 MIQ B 502       9.514  10.977 -16.998  1.00144.08     0.149 C 
ENDBRANCH   5  21
TORSDOF 2
ENDMDL
MODEL 3
REMARK VINA RESULT:      -6.3      2.052      7.841
REMARK  2 active torsions:
REMARK  status: ('A' for Active; 'I' for Inactive)
REMARK    1  A    between atoms: C5_5  and  N6_21 
REMARK    2  A    between atoms: C18_14  and  N17_19 
ROOT
HETATM    1  O1  MIQ B 502       4.628  15.884 -18.675  1.00142.91    -0.171 OA
HETATM    2  C2  MIQ B 502       4.584  15.500 -17.333  1.00141.17     0.195 A 
HETATM    3  C3  MIQ B 502       5.636  14.615 -16.592  1.00141.71     0.035 A 
HETATM    4  C4  MIQ B 502       6.897  13.961 -17.015  1.00142.86     0.046 A 
HETATM    5  C5  MIQ B 502       7.657  13.202 -16.090  1.00139.53     0.031 A 
HETATM    6  C12 MIQ B 502       7.195  13.066 -14.715  1.00139.38     0.030 A 
HETATM    7  C13 MIQ B 502       5.987  13.694 -14.309  1.00141.18     0.019 A 
HETATM    8  C14 MIQ B 502       5.194  14.491 -15.285  1.00138.77     0.033 A 
HETATM    9  C15 MIQ B 502       3.861  15.305 -15.214  1.00142.10     0.195 A 
HETATM   10  N17 MIQ B 502       3.670  15.799 -16.426  1.00139.42    -0.288 N 
HETATM   11  O16 MIQ B 502       3.042  15.471 -14.096  1.00148.93    -0.171 OA
ENDROOT
BRANCH  10  12
HETATM   12  C18 MIQ B 502       2.506  16.606 -16.740  1.00139.82     0.187 C 
HETATM   13  C19 MIQ B 502       1.871  16.036 -18.014  1.00140.06     0.247 C 
HETATM   14  O25 MIQ B 502       1.635  14.881 -18.073  1.00143.95    -0.271 OA
HETATM   15  N20 MIQ B 502       1.546  16.877 -19.148  1.00140.02    -0.296 N 
HETATM   16  H13 MIQ B 502       1.138  16.491 -19.976  1.00142.77     0.171 HD
HETATM   17  C21 MIQ B 502       1.853  18.281 -19.056  1.00142.22     0.224 C 
HETATM   18  C22 MIQ B 502       3.087  18.658 -18.259  1.00139.52     0.106 C 
HETATM   19  O24 MIQ B 502       1.171  19.097 -19.571  1.00146.13    -0.273 OA
HETATM   20  C23 MIQ B 502       2.898  18.077 -16.870  1.00139.15     0.045 C 
ENDBRANCH  10  12
BRANCH   5  21
HETATM   21  N6  MIQ B 502       8.882  12.554 -16.522  1.00140.95    -0.377 N 
HETATM   22  C7  MIQ B 502      10.152  13.171 -16.179  1.00142.12     0.149 C 
HETATM   23  C8  MIQ B 502      11.247  12.808 -17.174  1.00144.10     0.187 C 
HETATM   24  O9  MIQ B 502      11.302  11.440 -17.446  1.00148.65    -0.388 OA
HETATM   25  C10 MIQ B 502      10.286  10.589 -17.005  1.00147.44     0.187 C 
HETATM   26  C11 MIQ B 502       8.872  11.146 -16.878  1.00144.08     0.149 C 
ENDBRANCH   5  21
TORSDOF 2
ENDMDL
MODEL 4
REMARK VINA RESULT:      -6.2      2.059      7.798
REMARK  2 active torsions:
REMARK  status: ('A' for Active; 'I' for Inactive)
REMARK    1  A    between atoms: C5_5  and  N6_21 
REMARK    2  A    between atoms: C18_14  and  N17_19 
ROOT
HETATM    1  O1  MIQ B 502       4.788  15.555 -18.574  1.00142.91    -0.171 OA
HETATM    2  C2  MIQ B 502       4.528  15.387 -17.212  1.00141.17     0.195 A 
HETATM    3  C3  MIQ B 502       5.339  14.491 -16.222  1.00141.71     0.035 A 
HETATM    4  C4  MIQ B 502       6.526  13.618 -16.377  1.00142.86     0.046 A 
HETATM    5  C5  MIQ B 502       7.048  12.913 -15.263  1.00139.53     0.031 A 
HETATM    6  C12 MIQ B 502       6.413  13.049 -13.960  1.00139.38     0.030 A 
HETATM    7  C13 MIQ B 502       5.275  13.887 -13.811  1.00141.18     0.019 A 
HETATM    8  C14 MIQ B 502       4.733  14.626 -14.984  1.00138.77     0.033 A 
HETATM    9  C15 MIQ B 502       3.540  15.612 -15.206  1.00142.10     0.195 A 
HETATM   10  N17 MIQ B 502       3.570  15.939 -16.487  1.00139.42    -0.288 N 
HETATM   11  O16 MIQ B 502       2.630  16.053 -14.243  1.00148.93    -0.171 OA
ENDROOT
BRANCH  10  12
HETATM   12  C18 MIQ B 502       2.587  16.837 -17.063  1.00139.82     0.187 C 
HETATM   13  C19 MIQ B 502       1.951  16.128 -18.265  1.00140.06     0.247 C 
HETATM   14  O25 MIQ B 502       1.524  15.037 -18.129  1.00143.95    -0.271 OA
HETATM   15  N20 MIQ B 502       1.855  16.763 -19.563  1.00140.02    -0.296 N 
HETATM   16  H13 MIQ B 502       1.444  16.287 -20.341  1.00142.77     0.171 HD
HETATM   17  C21 MIQ B 502       2.393  18.091 -19.706  1.00142.22     0.224 C 
HETATM   18  C22 MIQ B 502       3.617  18.424 -18.874  1.00139.52     0.106 C 
HETATM   19  O24 MIQ B 502       1.900  18.883 -20.432  1.00146.13    -0.273 OA
HETATM   20  C23 MIQ B 502       3.236  18.172 -17.427  1.00139.15     0.045 C 
ENDBRANCH  10  12
BRANCH   5  21
HETATM   21  N6  MIQ B 502       8.203  12.049 -15.432  1.00140.95    -0.377 N 
HETATM   22  C7  MIQ B 502       8.922  12.091 -16.694  1.00142.12     0.149 C 
HETATM   23  C8  MIQ B 502       9.634  10.777 -16.986  1.00144.10     0.187 C 
HETATM   24  O9  MIQ B 502      10.367  10.302 -15.897  1.00148.65    -0.388 OA
HETATM   25  C10 MIQ B 502      10.226  10.892 -14.638  1.00147.44     0.187 C 
HETATM   26  C11 MIQ B 502       8.881  11.509 -14.268  1.00144.08     0.149 C 
ENDBRANCH   5  21
TORSDOF 2
ENDMDL
MODEL 5
REMARK VINA RESULT:      -6.1      2.531      3.090
REMARK  2 active torsions:
REMARK  status: ('A' for Active; 'I' for Inactive)
REMARK    1  A    between atoms: C5_5  and  N6_21 
REMARK    2  A    between atoms: C18_14  and  N17_19 
ROOT
HETATM    1  O1  MIQ B 502       6.708  13.657 -17.142  1.00142.91    -0.171 OA
HETATM    2  C2  MIQ B 502       5.784  14.467 -16.479  1.00141.17     0.195 A 
HETATM    3  C3  MIQ B 502       4.588  15.228 -17.133  1.00141.71     0.035 A 
HETATM    4  C4  MIQ B 502       4.085  15.333 -18.524  1.00142.86     0.046 A 
HETATM    5  C5  MIQ B 502       2.943  16.122 -18.816  1.00139.53     0.031 A 
HETATM    6  C12 MIQ B 502       2.262  16.832 -17.743  1.00139.38     0.030 A 
HETATM    7  C13 MIQ B 502       2.743  16.731 -16.409  1.00141.18     0.019 A 
HETATM    8  C14 MIQ B 502       3.941  15.899 -16.109  1.00138.77     0.033 A 
HETATM    9  C15 MIQ B 502       4.739  15.552 -14.810  1.00142.10     0.195 A 
HETATM   10  N17 MIQ B 502       5.722  14.751 -15.189  1.00139.42    -0.288 N 
HETATM   11  O16 MIQ B 502       4.468  16.001 -13.517  1.00148.93    -0.171 OA
ENDROOT
BRANCH  10  12
HETATM   12  C18 MIQ B 502       6.687  14.234 -14.237  1.00139.82     0.187 C 
HETATM   13  C19 MIQ B 502       8.087  14.602 -14.745  1.00140.06     0.247 C 
HETATM   14  O25 MIQ B 502       8.317  15.720 -15.042  1.00143.95    -0.271 OA
HETATM   15  N20 MIQ B 502       9.140  13.614 -14.865  1.00140.02    -0.296 N 
HETATM   16  H13 MIQ B 502      10.048  13.866 -15.203  1.00142.77     0.171 HD
HETATM   17  C21 MIQ B 502       8.832  12.254 -14.506  1.00142.22     0.224 C 
HETATM   18  C22 MIQ B 502       7.418  11.779 -14.782  1.00139.52     0.106 C 
HETATM   19  O24 MIQ B 502       9.642  11.546 -14.016  1.00146.13    -0.273 OA
HETATM   20  C23 MIQ B 502       6.493  12.731 -14.046  1.00139.15     0.045 C 
ENDBRANCH  10  12
BRANCH   5  21
HETATM   21  N6  MIQ B 502       2.471  16.227 -20.184  1.00140.95    -0.377 N 
HETATM   22  C7  MIQ B 502       1.332  15.421 -20.590  1.00142.12     0.149 C 
HETATM   23  C8  MIQ B 502       1.348  15.126 -22.084  1.00144.10     0.187 C 
HETATM   24  O9  MIQ B 502       1.580  16.264 -22.860  1.00148.65    -0.388 OA
HETATM   25  C10 MIQ B 502       1.981  17.460 -22.260  1.00147.44     0.187 C 
HETATM   26  C11 MIQ B 502       2.811  17.392 -20.982  1.00144.08     0.149 C 
ENDBRANCH   5  21
TORSDOF 2
ENDMDL
MODEL 6
REMARK VINA RESULT:      -6.1      3.234      8.673
REMARK  2 active torsions:
REMARK  status: ('A' for Active; 'I' for Inactive)
REMARK    1  A    between atoms: C5_5  and  N6_21 
REMARK    2  A    between atoms: C18_14  and  N17_19 
ROOT
HETATM    1  O1  MIQ B 502       1.855  14.309 -19.637  1.00142.91    -0.171 OA
HETATM    2  C2  MIQ B 502       2.666  15.446 -19.618  1.00141.17     0.195 A 
HETATM    3  C3  MIQ B 502       4.015  15.603 -18.846  1.00141.71     0.035 A 
HETATM    4  C4  MIQ B 502       4.802  14.697 -17.975  1.00142.86     0.046 A 
HETATM    5  C5  MIQ B 502       6.023  15.135 -17.404  1.00139.53     0.031 A 
HETATM    6  C12 MIQ B 502       6.507  16.482 -17.676  1.00139.38     0.030 A 
HETATM    7  C13 MIQ B 502       5.753  17.349 -18.511  1.00141.18     0.019 A 
HETATM    8  C14 MIQ B 502       4.473  16.883 -19.110  1.00138.77     0.033 A 
HETATM    9  C15 MIQ B 502       3.402  17.525 -20.052  1.00142.10     0.195 A 
HETATM   10  N17 MIQ B 502       2.475  16.599 -20.235  1.00139.42    -0.288 N 
HETATM   11  O16 MIQ B 502       3.423  18.815 -20.586  1.00148.93    -0.171 OA
ENDROOT
BRANCH  10  12
HETATM   12  C18 MIQ B 502       1.303  16.852 -21.053  1.00139.82     0.187 C 
HETATM   13  C19 MIQ B 502       1.788  17.278 -22.444  1.00140.06     0.247 C 
HETATM   14  O25 MIQ B 502       2.582  16.612 -23.007  1.00143.95    -0.271 OA
HETATM   15  N20 MIQ B 502       1.292  18.475 -23.092  1.00140.02    -0.296 N 
HETATM   16  H13 MIQ B 502       1.621  18.746 -23.998  1.00142.77     0.171 HD
HETATM   17  C21 MIQ B 502       0.330  19.278 -22.381  1.00142.22     0.224 C 
HETATM   18  C22 MIQ B 502       0.467  19.327 -20.871  1.00139.52     0.106 C 
HETATM   19  O24 MIQ B 502      -0.525  19.864 -22.948  1.00146.13    -0.273 OA
HETATM   20  C23 MIQ B 502       0.403  17.890 -20.386  1.00139.15     0.045 C 
ENDBRANCH  10  12
BRANCH   5  21
HETATM   21  N6  MIQ B 502       6.776  14.244 -16.541  1.00140.95    -0.377 N 
HETATM   22  C7  MIQ B 502       6.768  12.821 -16.835  1.00142.12     0.149 C 
HETATM   23  C8  MIQ B 502       7.007  11.981 -15.588  1.00144.10     0.187 C 
HETATM   24  O9  MIQ B 502       8.093  12.427 -14.832  1.00148.65    -0.388 OA
HETATM   25  C10 MIQ B 502       8.699  13.653 -15.119  1.00147.44     0.187 C 
HETATM   26  C11 MIQ B 502       7.842  14.770 -15.707  1.00144.08     0.149 C 
ENDBRANCH   5  21
TORSDOF 2
ENDMDL
MODEL 7
REMARK VINA RESULT:      -6.0      4.801     10.525
REMARK  2 active torsions:
REMARK  status: ('A' for Active; 'I' for Inactive)
REMARK    1  A    between atoms: C5_5  and  N6_21 
REMARK    2  A    between atoms: C18_14  and  N17_19 
ROOT
HETATM    1  O1  MIQ B 502      10.580   9.183 -15.952  1.00142.91    -0.171 OA
HETATM    2  C2  MIQ B 502      10.676  10.479 -16.464  1.00141.17     0.195 A 
HETATM    3  C3  MIQ B 502      11.824  11.030 -17.369  1.00141.71     0.035 A 
HETATM    4  C4  MIQ B 502      13.058  10.429 -17.929  1.00142.86     0.046 A 
HETATM    5  C5  MIQ B 502      13.928  11.201 -18.740  1.00139.53     0.031 A 
HETATM    6  C12 MIQ B 502      13.605  12.593 -19.023  1.00139.38     0.030 A 
HETATM    7  C13 MIQ B 502      12.422  13.169 -18.487  1.00141.18     0.019 A 
HETATM    8  C14 MIQ B 502      11.512  12.352 -17.639  1.00138.77     0.033 A 
HETATM    9  C15 MIQ B 502      10.162  12.623 -16.898  1.00142.10     0.195 A 
HETATM   10  N17 MIQ B 502       9.838  11.488 -16.302  1.00139.42    -0.288 N 
HETATM   11  O16 MIQ B 502       9.449  13.823 -16.872  1.00148.93    -0.171 OA
ENDROOT
BRANCH  10  12
HETATM   12  C18 MIQ B 502       8.635  11.371 -15.498  1.00139.82     0.187 C 
HETATM   13  C19 MIQ B 502       7.439  11.723 -16.391  1.00140.06     0.247 C 
HETATM   14  O25 MIQ B 502       7.323  11.189 -17.436  1.00143.95    -0.271 OA
HETATM   15  N20 MIQ B 502       6.442  12.692 -15.983  1.00140.02    -0.296 N 
HETATM   16  H13 MIQ B 502       5.669  12.918 -16.578  1.00142.77     0.171 HD
HETATM   17  C21 MIQ B 502       6.611  13.338 -14.708  1.00142.22     0.224 C 
HETATM   18  C22 MIQ B 502       8.036  13.598 -14.259  1.00139.52     0.106 C 
HETATM   19  O24 MIQ B 502       5.683  13.645 -14.043  1.00146.13    -0.273 OA
HETATM   20  C23 MIQ B 502       8.739  12.253 -14.255  1.00139.15     0.045 C 
ENDBRANCH  10  12
BRANCH   5  21
HETATM   21  N6  MIQ B 502      15.140  10.604 -19.269  1.00140.95    -0.377 N 
HETATM   22  C7  MIQ B 502      15.840  11.289 -20.343  1.00142.12     0.149 C 
HETATM   23  C8  MIQ B 502      16.643  10.323 -21.205  1.00144.10     0.187 C 
HETATM   24  O9  MIQ B 502      17.421   9.441 -20.452  1.00148.65    -0.388 OA
HETATM   25  C10 MIQ B 502      17.252   9.352 -19.068  1.00147.44     0.187 C 
HETATM   26  C11 MIQ B 502      15.870   9.625 -18.483  1.00144.08     0.149 C 
ENDBRANCH   5  21
TORSDOF 2
ENDMDL
MODEL 8
REMARK VINA RESULT:      -6.0      2.927      7.880
REMARK  2 active torsions:
REMARK  status: ('A' for Active; 'I' for Inactive)
REMARK    1  A    between atoms: C5_5  and  N6_21 
REMARK    2  A    between atoms: C18_14  and  N17_19 
ROOT
HETATM    1  O1  MIQ B 502       6.368  16.946 -15.020  1.00142.91    -0.171 OA
HETATM    2  C2  MIQ B 502       6.153  15.656 -14.531  1.00141.17     0.195 A 
HETATM    3  C3  MIQ B 502       7.015  14.393 -14.851  1.00141.71     0.035 A 
HETATM    4  C4  MIQ B 502       8.218  14.166 -15.686  1.00142.86     0.046 A 
HETATM    5  C5  MIQ B 502       8.790  12.872 -15.781  1.00139.53     0.031 A 
HETATM    6  C12 MIQ B 502       8.192  11.762 -15.054  1.00139.38     0.030 A 
HETATM    7  C13 MIQ B 502       7.039  11.980 -14.252  1.00141.18     0.019 A 
HETATM    8  C14 MIQ B 502       6.444  13.341 -14.154  1.00138.77     0.033 A 
HETATM    9  C15 MIQ B 502       5.222  13.954 -13.396  1.00142.10     0.195 A 
HETATM   10  N17 MIQ B 502       5.205  15.239 -13.710  1.00139.42    -0.288 N 
HETATM   11  O16 MIQ B 502       4.331  13.277 -12.561  1.00148.93    -0.171 OA
ENDROOT
BRANCH  10  12
HETATM   12  C18 MIQ B 502       4.183  16.131 -13.194  1.00139.82     0.187 C 
HETATM   13  C19 MIQ B 502       3.499  16.801 -14.391  1.00140.06     0.247 C 
HETATM   14  O25 MIQ B 502       3.093  16.130 -15.272  1.00143.95    -0.271 OA
HETATM   15  N20 MIQ B 502       3.331  18.238 -14.469  1.00140.02    -0.296 N 
HETATM   16  H13 MIQ B 502       2.888  18.663 -15.260  1.00142.77     0.171 HD
HETATM   17  C21 MIQ B 502       3.844  19.037 -13.386  1.00142.22     0.224 C 
HETATM   18  C22 MIQ B 502       5.103  18.534 -12.706  1.00139.52     0.106 C 
HETATM   19  O24 MIQ B 502       3.306  20.031 -13.043  1.00146.13    -0.273 OA
HETATM   20  C23 MIQ B 502       4.796  17.131 -12.214  1.00139.15     0.045 C 
ENDBRANCH  10  12
BRANCH   5  21
HETATM   21  N6  MIQ B 502       9.960  12.660 -16.615  1.00140.95    -0.377 N 
HETATM   22  C7  MIQ B 502      10.992  13.683 -16.636  1.00142.12     0.149 C 
HETATM   23  C8  MIQ B 502      11.774  13.674 -17.943  1.00144.10     0.187 C 
HETATM   24  O9  MIQ B 502      12.193  12.395 -18.316  1.00148.65    -0.388 OA
HETATM   25  C10 MIQ B 502      11.711  11.268 -17.646  1.00147.44     0.187 C 
HETATM   26  C11 MIQ B 502      10.308  11.319 -17.050  1.00144.08     0.149 C 
ENDBRANCH   5  21
TORSDOF 2
ENDMDL
MODEL 9
REMARK VINA RESULT:      -6.0      3.202      9.032
REMARK  2 active torsions:
REMARK  status: ('A' for Active; 'I' for Inactive)
REMARK    1  A    between atoms: C5_5  and  N6_21 
REMARK    2  A    between atoms: C18_14  and  N17_19 
ROOT
HETATM    1  O1  MIQ B 502       6.052  11.297 -15.811  1.00142.91    -0.171 OA
HETATM    2  C2  MIQ B 502       6.725  12.263 -15.059  1.00141.17     0.195 A 
HETATM    3  C3  MIQ B 502       8.216  12.199 -14.598  1.00141.71     0.035 A 
HETATM    4  C4  MIQ B 502       9.299  11.204 -14.785  1.00142.86     0.046 A 
HETATM    5  C5  MIQ B 502      10.585  11.433 -14.233  1.00139.53     0.031 A 
HETATM    6  C12 MIQ B 502      10.841  12.651 -13.479  1.00139.38     0.030 A 
HETATM    7  C13 MIQ B 502       9.804  13.605 -13.300  1.00141.18     0.019 A 
HETATM    8  C14 MIQ B 502       8.456  13.362 -13.884  1.00138.77     0.033 A 
HETATM    9  C15 MIQ B 502       7.107  14.152 -13.903  1.00142.10     0.195 A 
HETATM   10  N17 MIQ B 502       6.258  13.409 -14.594  1.00139.42    -0.288 N 
HETATM   11  O16 MIQ B 502       6.855  15.389 -13.308  1.00148.93    -0.171 OA
ENDROOT
BRANCH  10  12
HETATM   12  C18 MIQ B 502       4.885  13.826 -14.806  1.00139.82     0.187 C 
HETATM   13  C19 MIQ B 502       4.913  15.224 -15.436  1.00140.06     0.247 C 
HETATM   14  O25 MIQ B 502       5.583  15.413 -16.388  1.00143.95    -0.271 OA
HETATM   15  N20 MIQ B 502       4.135  16.321 -14.897  1.00140.02    -0.296 N 
HETATM   16  H13 MIQ B 502       4.167  17.230 -15.314  1.00142.77     0.171 HD
HETATM   17  C21 MIQ B 502       3.333  16.068 -13.728  1.00142.22     0.224 C 
HETATM   18  C22 MIQ B 502       3.882  15.067 -12.729  1.00139.52     0.106 C 
HETATM   19  O24 MIQ B 502       2.297  16.612 -13.559  1.00146.13    -0.273 OA
HETATM   20  C23 MIQ B 502       4.105  13.774 -13.493  1.00139.15     0.045 C 
ENDBRANCH  10  12
BRANCH   5  21
HETATM   21  N6  MIQ B 502      11.632  10.443 -14.411  1.00140.95    -0.377 N 
HETATM   22  C7  MIQ B 502      11.354   9.279 -15.235  1.00142.12     0.149 C 
HETATM   23  C8  MIQ B 502      12.209   8.083 -14.836  1.00144.10     0.187 C 
HETATM   24  O9  MIQ B 502      13.560   8.404 -14.692  1.00148.65    -0.388 OA
HETATM   25  C10 MIQ B 502      13.975   9.738 -14.696  1.00147.44     0.187 C 
HETATM   26  C11 MIQ B 502      13.018  10.801 -14.166  1.00144.08     0.149 C 
ENDBRANCH   5  21
TORSDOF 2
ENDMDL
