MODEL 1
REMARK VINA RESULT:      -7.7      0.000      0.000
REMARK  2 active torsions:
REMARK  status: ('A' for Active; 'I' for Inactive)
REMARK    1  A    between atoms: C5_5  and  N6_21 
REMARK    2  A    between atoms: C18_14  and  N17_19 
ROOT
HETATM    1  O1  MIQ B 502     -26.983   0.305  -0.726  1.00142.91    -0.171 OA
HETATM    2  C2  MIQ B 502     -25.803  -0.412  -0.517  1.00141.17     0.195 A 
HETATM    3  C3  MIQ B 502     -24.774  -0.834  -1.614  1.00141.71     0.035 A 
HETATM    4  C4  MIQ B 502     -24.709  -0.635  -3.081  1.00142.86     0.046 A 
HETATM    5  C5  MIQ B 502     -23.618  -1.148  -3.827  1.00139.53     0.031 A 
HETATM    6  C12 MIQ B 502     -22.556  -1.875  -3.146  1.00139.38     0.030 A 
HETATM    7  C13 MIQ B 502     -22.617  -2.065  -1.739  1.00141.18     0.019 A 
HETATM    8  C14 MIQ B 502     -23.764  -1.522  -0.961  1.00138.77     0.033 A 
HETATM    9  C15 MIQ B 502     -24.168  -1.526   0.549  1.00142.10     0.195 A 
HETATM   10  N17 MIQ B 502     -25.315  -0.871   0.622  1.00139.42    -0.288 N 
HETATM   11  O16 MIQ B 502     -23.459  -2.107   1.602  1.00148.93    -0.171 OA
ENDROOT
BRANCH  10  12
HETATM   12  C18 MIQ B 502     -26.004  -0.689   1.886  1.00139.82     0.187 C 
HETATM   13  C19 MIQ B 502     -27.452  -1.159   1.702  1.00140.06     0.247 C 
HETATM   14  O25 MIQ B 502     -27.657  -2.224   1.238  1.00143.95    -0.271 OA
HETATM   15  N20 MIQ B 502     -28.578  -0.333   2.087  1.00140.02    -0.296 N 
HETATM   16  H13 MIQ B 502     -29.519  -0.649   1.955  1.00142.77     0.171 HD
HETATM   17  C21 MIQ B 502     -28.302   0.967   2.641  1.00142.22     0.224 C 
HETATM   18  C22 MIQ B 502     -27.079   1.689   2.110  1.00139.52     0.106 C 
HETATM   19  O24 MIQ B 502     -28.994   1.444   3.472  1.00146.13    -0.273 OA
HETATM   20  C23 MIQ B 502     -25.898   0.765   2.345  1.00139.15     0.045 C 
ENDBRANCH  10  12
BRANCH   5  21
HETATM   21  N6  MIQ B 502     -23.575  -0.958  -5.265  1.00140.95    -0.377 N 
HETATM   22  C7  MIQ B 502     -23.396  -2.123  -6.115  1.00142.12     0.149 C 
HETATM   23  C8  MIQ B 502     -22.742  -1.763  -7.443  1.00144.10     0.187 C 
HETATM   24  O9  MIQ B 502     -23.335  -0.660  -8.059  1.00148.65    -0.388 OA
HETATM   25  C10 MIQ B 502     -24.264   0.122  -7.369  1.00147.44     0.187 C 
HETATM   26  C11 MIQ B 502     -24.129   0.248  -5.855  1.00144.08     0.149 C 
ENDBRANCH   5  21
TORSDOF 2
ENDMDL
MODEL 2
REMARK VINA RESULT:      -7.2      4.498      8.142
REMARK  2 active torsions:
REMARK  status: ('A' for Active; 'I' for Inactive)
REMARK    1  A    between atoms: C5_5  and  N6_21 
REMARK    2  A    between atoms: C18_14  and  N17_19 
ROOT
HETATM    1  O1  MIQ B 502     -23.254  -0.229  -7.316  1.00142.91    -0.171 OA
HETATM    2  C2  MIQ B 502     -23.506  -1.482  -7.879  1.00141.17     0.195 A 
HETATM    3  C3  MIQ B 502     -23.052  -1.965  -9.293  1.00141.71     0.035 A 
HETATM    4  C4  MIQ B 502     -22.286  -1.329 -10.390  1.00142.86     0.046 A 
HETATM    5  C5  MIQ B 502     -22.024  -2.040 -11.589  1.00139.53     0.031 A 
HETATM    6  C12 MIQ B 502     -22.511  -3.403 -11.740  1.00139.38     0.030 A 
HETATM    7  C13 MIQ B 502     -23.245  -4.015 -10.688  1.00141.18     0.019 A 
HETATM    8  C14 MIQ B 502     -23.515  -3.264  -9.432  1.00138.77     0.033 A 
HETATM    9  C15 MIQ B 502     -24.259  -3.589  -8.095  1.00142.10     0.195 A 
HETATM   10  N17 MIQ B 502     -24.158  -2.502  -7.348  1.00139.42    -0.288 N 
HETATM   11  O16 MIQ B 502     -24.899  -4.784  -7.765  1.00148.93    -0.171 OA
ENDROOT
BRANCH  10  12
HETATM   12  C18 MIQ B 502     -24.754  -2.434  -6.027  1.00139.82     0.187 C 
HETATM   13  C19 MIQ B 502     -25.520  -1.110  -5.927  1.00140.06     0.247 C 
HETATM   14  O25 MIQ B 502     -26.292  -0.826  -6.772  1.00143.95    -0.271 OA
HETATM   15  N20 MIQ B 502     -25.328  -0.198  -4.818  1.00140.02    -0.296 N 
HETATM   16  H13 MIQ B 502     -25.830   0.667  -4.767  1.00142.77     0.171 HD
HETATM   17  C21 MIQ B 502     -24.373  -0.562  -3.803  1.00142.22     0.224 C 
HETATM   18  C22 MIQ B 502     -23.157  -1.343  -4.261  1.00139.52     0.106 C 
HETATM   19  O24 MIQ B 502     -24.535  -0.269  -2.669  1.00146.13    -0.273 OA
HETATM   20  C23 MIQ B 502     -23.680  -2.590  -4.951  1.00139.15     0.045 C 
ENDBRANCH  10  12
BRANCH   5  21
HETATM   21  N6  MIQ B 502     -21.285  -1.399 -12.661  1.00140.95    -0.377 N 
HETATM   22  C7  MIQ B 502     -21.983  -1.085 -13.895  1.00142.12     0.149 C 
HETATM   23  C8  MIQ B 502     -21.037  -1.041 -15.089  1.00144.10     0.187 C 
HETATM   24  O9  MIQ B 502     -19.889  -0.285 -14.844  1.00148.65    -0.388 OA
HETATM   25  C10 MIQ B 502     -19.594   0.155 -13.551  1.00147.44     0.187 C 
HETATM   26  C11 MIQ B 502     -20.048  -0.695 -12.369  1.00144.08     0.149 C 
ENDBRANCH   5  21
TORSDOF 2
ENDMDL
MODEL 3
REMARK VINA RESULT:      -7.2      7.149     14.151
REMARK  2 active torsions:
REMARK  status: ('A' for Active; 'I' for Inactive)
REMARK    1  A    between atoms: C5_5  and  N6_21 
REMARK    2  A    between atoms: C18_14  and  N17_19 
ROOT
HETATM    1  O1  MIQ B 502     -25.497  -0.150 -14.515  1.00142.91    -0.171 OA
HETATM    2  C2  MIQ B 502     -24.201  -0.410 -14.064  1.00141.17     0.195 A 
HETATM    3  C3  MIQ B 502     -23.790  -0.769 -12.600  1.00141.71     0.035 A 
HETATM    4  C4  MIQ B 502     -24.551  -0.939 -11.340  1.00142.86     0.046 A 
HETATM    5  C5  MIQ B 502     -23.881  -1.278 -10.138  1.00139.53     0.031 A 
HETATM    6  C12 MIQ B 502     -22.436  -1.460 -10.142  1.00139.38     0.030 A 
HETATM    7  C13 MIQ B 502     -21.706  -1.298 -11.350  1.00141.18     0.019 A 
HETATM    8  C14 MIQ B 502     -22.415  -0.945 -12.610  1.00138.77     0.033 A 
HETATM    9  C15 MIQ B 502     -21.972  -0.694 -14.088  1.00142.10     0.195 A 
HETATM   10  N17 MIQ B 502     -23.077  -0.413 -14.759  1.00139.42    -0.288 N 
HETATM   11  O16 MIQ B 502     -20.671  -0.752 -14.592  1.00148.93    -0.171 OA
ENDROOT
BRANCH  10  12
HETATM   12  C18 MIQ B 502     -23.045  -0.106 -16.177  1.00139.82     0.187 C 
HETATM   13  C19 MIQ B 502     -22.281  -1.233 -16.883  1.00140.06     0.247 C 
HETATM   14  O25 MIQ B 502     -22.592  -2.353 -16.682  1.00143.95    -0.271 OA
HETATM   15  N20 MIQ B 502     -21.190  -0.960 -17.796  1.00140.02    -0.296 N 
HETATM   16  H13 MIQ B 502     -20.695  -1.705 -18.245  1.00142.77     0.171 HD
HETATM   17  C21 MIQ B 502     -20.823   0.415 -18.017  1.00142.22     0.224 C 
HETATM   18  C22 MIQ B 502     -20.978   1.359 -16.840  1.00139.52     0.106 C 
HETATM   19  O24 MIQ B 502     -20.425   0.787 -19.065  1.00146.13    -0.273 OA
HETATM   20  C23 MIQ B 502     -22.431   1.274 -16.408  1.00139.15     0.045 C 
ENDBRANCH  10  12
BRANCH   5  21
HETATM   21  N6  MIQ B 502     -24.637  -1.427  -8.908  1.00140.95    -0.377 N 
HETATM   22  C7  MIQ B 502     -24.767  -2.752  -8.328  1.00142.12     0.149 C 
HETATM   23  C8  MIQ B 502     -26.032  -2.886  -7.491  1.00144.10     0.187 C 
HETATM   24  O9  MIQ B 502     -26.210  -1.825  -6.601  1.00148.65    -0.388 OA
HETATM   25  C10 MIQ B 502     -25.405  -0.686  -6.688  1.00147.44     0.187 C 
HETATM   26  C11 MIQ B 502     -24.869  -0.274  -8.055  1.00144.08     0.149 C 
ENDBRANCH   5  21
TORSDOF 2
ENDMDL
MODEL 4
REMARK VINA RESULT:      -7.2      5.187      9.004
REMARK  2 active torsions:
REMARK  status: ('A' for Active; 'I' for Inactive)
REMARK    1  A    between atoms: C5_5  and  N6_21 
REMARK    2  A    between atoms: C18_14  and  N17_19 
ROOT
HETATM    1  O1  MIQ B 502     -22.533  -1.857  -7.747  1.00142.91    -0.171 OA
HETATM    2  C2  MIQ B 502     -23.526  -2.648  -8.330  1.00141.17     0.195 A 
HETATM    3  C3  MIQ B 502     -23.359  -3.559  -9.587  1.00141.71     0.035 A 
HETATM    4  C4  MIQ B 502     -22.217  -3.860 -10.484  1.00142.86     0.046 A 
HETATM    5  C5  MIQ B 502     -22.376  -4.754 -11.572  1.00139.53     0.031 A 
HETATM    6  C12 MIQ B 502     -23.669  -5.381 -11.809  1.00139.38     0.030 A 
HETATM    7  C13 MIQ B 502     -24.763  -5.094 -10.949  1.00141.18     0.019 A 
HETATM    8  C14 MIQ B 502     -24.589  -4.156  -9.807  1.00138.77     0.033 A 
HETATM    9  C15 MIQ B 502     -25.526  -3.613  -8.678  1.00142.10     0.195 A 
HETATM   10  N17 MIQ B 502     -24.783  -2.796  -7.949  1.00139.42    -0.288 N 
HETATM   11  O16 MIQ B 502     -26.872  -3.927  -8.486  1.00148.93    -0.171 OA
ENDROOT
BRANCH  10  12
HETATM   12  C18 MIQ B 502     -25.333  -2.089  -6.808  1.00139.82     0.187 C 
HETATM   13  C19 MIQ B 502     -24.921  -0.616  -6.928  1.00140.06     0.247 C 
HETATM   14  O25 MIQ B 502     -25.121  -0.043  -7.939  1.00143.95    -0.271 OA
HETATM   15  N20 MIQ B 502     -24.298   0.095  -5.830  1.00140.02    -0.296 N 
HETATM   16  H13 MIQ B 502     -24.028   1.054  -5.924  1.00142.77     0.171 HD
HETATM   17  C21 MIQ B 502     -24.054  -0.630  -4.609  1.00142.22     0.224 C 
HETATM   18  C22 MIQ B 502     -23.718  -2.102  -4.746  1.00139.52     0.106 C 
HETATM   19  O24 MIQ B 502     -24.120  -0.101  -3.554  1.00146.13    -0.273 OA
HETATM   20  C23 MIQ B 502     -24.868  -2.738  -5.505  1.00139.15     0.045 C 
ENDBRANCH  10  12
BRANCH   5  21
HETATM   21  N6  MIQ B 502     -21.254  -5.028 -12.451  1.00140.95    -0.377 N 
HETATM   22  C7  MIQ B 502     -21.029  -4.149 -13.585  1.00142.12     0.149 C 
HETATM   23  C8  MIQ B 502     -20.303  -4.859 -14.720  1.00144.10     0.187 C 
HETATM   24  O9  MIQ B 502     -19.184  -5.572 -14.287  1.00148.65    -0.388 OA
HETATM   25  C10 MIQ B 502     -18.951  -5.764 -12.923  1.00147.44     0.187 C 
HETATM   26  C11 MIQ B 502     -20.150  -5.848 -11.984  1.00144.08     0.149 C 
ENDBRANCH   5  21
TORSDOF 2
ENDMDL
MODEL 5
REMARK VINA RESULT:      -7.0      5.779     12.749
REMARK  2 active torsions:
REMARK  status: ('A' for Active; 'I' for Inactive)
REMARK    1  A    between atoms: C5_5  and  N6_21 
REMARK    2  A    between atoms: C18_14  and  N17_19 
ROOT
HETATM    1  O1  MIQ B 502     -23.874   0.417 -12.706  1.00142.91    -0.171 OA
HETATM    2  C2  MIQ B 502     -23.401  -0.868 -12.428  1.00141.17     0.195 A 
HETATM    3  C3  MIQ B 502     -23.380  -1.559 -11.027  1.00141.71     0.035 A 
HETATM    4  C4  MIQ B 502     -23.810  -1.134  -9.674  1.00142.86     0.046 A 
HETATM    5  C5  MIQ B 502     -23.661  -2.007  -8.567  1.00139.53     0.031 A 
HETATM    6  C12 MIQ B 502     -23.082  -3.329  -8.763  1.00139.38     0.030 A 
HETATM    7  C13 MIQ B 502     -22.671  -3.738 -10.060  1.00141.18     0.019 A 
HETATM    8  C14 MIQ B 502     -22.833  -2.817 -11.219  1.00138.77     0.033 A 
HETATM    9  C15 MIQ B 502     -22.513  -2.908 -12.747  1.00142.10     0.195 A 
HETATM   10  N17 MIQ B 502     -22.889  -1.751 -13.267  1.00139.42    -0.288 N 
HETATM   11  O16 MIQ B 502     -21.942  -3.990 -13.419  1.00148.93    -0.171 OA
ENDROOT
BRANCH  10  12
HETATM   12  C18 MIQ B 502     -22.726  -1.468 -14.681  1.00139.82     0.187 C 
HETATM   13  C19 MIQ B 502     -21.963  -0.144 -14.808  1.00140.06     0.247 C 
HETATM   14  O25 MIQ B 502     -20.956   0.001 -14.210  1.00143.95    -0.271 OA
HETATM   15  N20 MIQ B 502     -22.442   0.936 -15.646  1.00140.02    -0.296 N 
HETATM   16  H13 MIQ B 502     -21.939   1.798 -15.715  1.00142.77     0.171 HD
HETATM   17  C21 MIQ B 502     -23.679   0.740 -16.358  1.00142.22     0.224 C 
HETATM   18  C22 MIQ B 502     -24.732  -0.108 -15.671  1.00139.52     0.106 C 
HETATM   19  O24 MIQ B 502     -23.860   1.213 -17.425  1.00146.13    -0.273 OA
HETATM   20  C23 MIQ B 502     -24.084  -1.449 -15.380  1.00139.15     0.045 C 
ENDBRANCH  10  12
BRANCH   5  21
HETATM   21  N6  MIQ B 502     -24.072  -1.572  -7.245  1.00140.95    -0.377 N 
HETATM   22  C7  MIQ B 502     -24.699  -0.269  -7.107  1.00142.12     0.149 C 
HETATM   23  C8  MIQ B 502     -24.489   0.319  -5.717  1.00144.10     0.187 C 
HETATM   24  O9  MIQ B 502     -24.770  -0.590  -4.695  1.00148.65    -0.388 OA
HETATM   25  C10 MIQ B 502     -24.984  -1.940  -4.987  1.00147.44     0.187 C 
HETATM   26  C11 MIQ B 502     -24.269  -2.549  -6.188  1.00144.08     0.149 C 
ENDBRANCH   5  21
TORSDOF 2
ENDMDL
MODEL 6
REMARK VINA RESULT:      -6.9      5.798     12.856
REMARK  2 active torsions:
REMARK  status: ('A' for Active; 'I' for Inactive)
REMARK    1  A    between atoms: C5_5  and  N6_21 
REMARK    2  A    between atoms: C18_14  and  N17_19 
ROOT
HETATM    1  O1  MIQ B 502     -21.873  -0.438 -12.425  1.00142.91    -0.171 OA
HETATM    2  C2  MIQ B 502     -22.882  -1.395 -12.304  1.00141.17     0.195 A 
HETATM    3  C3  MIQ B 502     -23.637  -1.778 -10.992  1.00141.71     0.035 A 
HETATM    4  C4  MIQ B 502     -23.549  -1.304  -9.590  1.00142.86     0.046 A 
HETATM    5  C5  MIQ B 502     -24.391  -1.857  -8.592  1.00139.53     0.031 A 
HETATM    6  C12 MIQ B 502     -25.347  -2.896  -8.948  1.00139.38     0.030 A 
HETATM    7  C13 MIQ B 502     -25.433  -3.350 -10.292  1.00141.18     0.019 A 
HETATM    8  C14 MIQ B 502     -24.548  -2.764 -11.336  1.00138.77     0.033 A 
HETATM    9  C15 MIQ B 502     -24.357  -2.994 -12.871  1.00142.10     0.195 A 
HETATM   10  N17 MIQ B 502     -23.403  -2.159 -13.249  1.00139.42    -0.288 N 
HETATM   11  O16 MIQ B 502     -25.053  -3.900 -13.673  1.00148.93    -0.171 OA
ENDROOT
BRANCH  10  12
HETATM   12  C18 MIQ B 502     -22.946  -2.106 -14.625  1.00139.82     0.187 C 
HETATM   13  C19 MIQ B 502     -21.420  -2.263 -14.617  1.00140.06     0.247 C 
HETATM   14  O25 MIQ B 502     -20.938  -3.164 -14.027  1.00143.95    -0.271 OA
HETATM   15  N20 MIQ B 502     -20.553  -1.340 -15.320  1.00140.02    -0.296 N 
HETATM   16  H13 MIQ B 502     -19.559  -1.450 -15.301  1.00142.77     0.171 HD
HETATM   17  C21 MIQ B 502     -21.166  -0.243 -16.024  1.00142.22     0.224 C 
HETATM   18  C22 MIQ B 502     -22.429   0.336 -15.417  1.00139.52     0.106 C 
HETATM   19  O24 MIQ B 502     -20.707   0.179 -17.028  1.00146.13    -0.273 OA
HETATM   20  C23 MIQ B 502     -23.413  -0.812 -15.291  1.00139.15     0.045 C 
ENDBRANCH  10  12
BRANCH   5  21
HETATM   21  N6  MIQ B 502     -24.284  -1.394  -7.221  1.00140.95    -0.377 N 
HETATM   22  C7  MIQ B 502     -23.461  -2.152  -6.294  1.00142.12     0.149 C 
HETATM   23  C8  MIQ B 502     -23.923  -1.981  -4.853  1.00144.10     0.187 C 
HETATM   24  O9  MIQ B 502     -24.138  -0.646  -4.506  1.00148.65    -0.388 OA
HETATM   25  C10 MIQ B 502     -24.139   0.349  -5.487  1.00147.44     0.187 C 
HETATM   26  C11 MIQ B 502     -24.601  -0.015  -6.894  1.00144.08     0.149 C 
ENDBRANCH   5  21
TORSDOF 2
ENDMDL
MODEL 7
REMARK VINA RESULT:      -6.9      5.947     13.221
REMARK  2 active torsions:
REMARK  status: ('A' for Active; 'I' for Inactive)
REMARK    1  A    between atoms: C5_5  and  N6_21 
REMARK    2  A    between atoms: C18_14  and  N17_19 
ROOT
HETATM    1  O1  MIQ B 502     -20.131  -0.831 -11.707  1.00142.91    -0.171 OA
HETATM    2  C2  MIQ B 502     -21.424  -1.317 -11.910  1.00141.17     0.195 A 
HETATM    3  C3  MIQ B 502     -22.526  -1.492 -10.817  1.00141.71     0.035 A 
HETATM    4  C4  MIQ B 502     -22.565  -1.228  -9.359  1.00142.86     0.046 A 
HETATM    5  C5  MIQ B 502     -23.742  -1.494  -8.614  1.00139.53     0.031 A 
HETATM    6  C12 MIQ B 502     -24.917  -2.030  -9.286  1.00139.38     0.030 A 
HETATM    7  C13 MIQ B 502     -24.880  -2.282 -10.684  1.00141.18     0.019 A 
HETATM    8  C14 MIQ B 502     -23.643  -1.998 -11.461  1.00138.77     0.033 A 
HETATM    9  C15 MIQ B 502     -23.233  -2.137 -12.964  1.00142.10     0.195 A 
HETATM   10  N17 MIQ B 502     -21.981  -1.717 -13.041  1.00139.42    -0.288 N 
HETATM   11  O16 MIQ B 502     -24.029  -2.612 -14.007  1.00148.93    -0.171 OA
ENDROOT
BRANCH  10  12
HETATM   12  C18 MIQ B 502     -21.257  -1.718 -14.299  1.00139.82     0.187 C 
HETATM   13  C19 MIQ B 502     -22.094  -0.937 -15.320  1.00140.06     0.247 C 
HETATM   14  O25 MIQ B 502     -22.487   0.139 -15.040  1.00143.95    -0.271 OA
HETATM   15  N20 MIQ B 502     -22.410  -1.482 -16.625  1.00140.02    -0.296 N 
HETATM   16  H13 MIQ B 502     -22.962  -0.965 -17.280  1.00142.77     0.171 HD
HETATM   17  C21 MIQ B 502     -21.927  -2.802 -16.940  1.00142.22     0.224 C 
HETATM   18  C22 MIQ B 502     -21.844  -3.789 -15.791  1.00139.52     0.106 C 
HETATM   19  O24 MIQ B 502     -21.607  -3.097 -18.038  1.00146.13    -0.273 OA
HETATM   20  C23 MIQ B 502     -20.957  -3.150 -14.738  1.00139.15     0.045 C 
ENDBRANCH  10  12
BRANCH   5  21
HETATM   21  N6  MIQ B 502     -23.762  -1.245  -7.184  1.00140.95    -0.377 N 
HETATM   22  C7  MIQ B 502     -24.520  -0.110  -6.688  1.00142.12     0.149 C 
HETATM   23  C8  MIQ B 502     -23.967   0.411  -5.367  1.00144.10     0.187 C 
HETATM   24  O9  MIQ B 502     -23.735  -0.605  -4.437  1.00148.65    -0.388 OA
HETATM   25  C10 MIQ B 502     -23.800  -1.946  -4.823  1.00147.44     0.187 C 
HETATM   26  C11 MIQ B 502     -23.429  -2.312  -6.257  1.00144.08     0.149 C 
ENDBRANCH   5  21
TORSDOF 2
ENDMDL
MODEL 8
REMARK VINA RESULT:      -6.9      4.305     11.275
REMARK  2 active torsions:
REMARK  status: ('A' for Active; 'I' for Inactive)
REMARK    1  A    between atoms: C5_5  and  N6_21 
REMARK    2  A    between atoms: C18_14  and  N17_19 
ROOT
HETATM    1  O1  MIQ B 502     -21.918  -1.326 -10.162  1.00142.91    -0.171 OA
HETATM    2  C2  MIQ B 502     -22.804  -2.385  -9.952  1.00141.17     0.195 A 
HETATM    3  C3  MIQ B 502     -23.487  -2.762  -8.599  1.00141.71     0.035 A 
HETATM    4  C4  MIQ B 502     -23.434  -2.183  -7.235  1.00142.86     0.046 A 
HETATM    5  C5  MIQ B 502     -24.188  -2.760  -6.182  1.00139.53     0.031 A 
HETATM    6  C12 MIQ B 502     -25.019  -3.927  -6.443  1.00139.38     0.030 A 
HETATM    7  C13 MIQ B 502     -25.071  -4.480  -7.751  1.00141.18     0.019 A 
HETATM    8  C14 MIQ B 502     -24.279  -3.869  -8.853  1.00138.77     0.033 A 
HETATM    9  C15 MIQ B 502     -24.088  -4.182 -10.373  1.00142.10     0.195 A 
HETATM   10  N17 MIQ B 502     -23.246  -3.269 -10.830  1.00139.42    -0.288 N 
HETATM   11  O16 MIQ B 502     -24.683  -5.217 -11.095  1.00148.93    -0.171 OA
ENDROOT
BRANCH  10  12
HETATM   12  C18 MIQ B 502     -22.820  -3.259 -12.217  1.00139.82     0.187 C 
HETATM   13  C19 MIQ B 502     -21.289  -3.338 -12.237  1.00140.06     0.247 C 
HETATM   14  O25 MIQ B 502     -20.748  -4.183 -11.616  1.00143.95    -0.271 OA
HETATM   15  N20 MIQ B 502     -20.486  -2.406 -13.002  1.00140.02    -0.296 N 
HETATM   16  H13 MIQ B 502     -19.486  -2.464 -13.001  1.00142.77     0.171 HD
HETATM   17  C21 MIQ B 502     -21.169  -1.377 -13.743  1.00142.22     0.224 C 
HETATM   18  C22 MIQ B 502     -22.448  -0.835 -13.135  1.00139.52     0.106 C 
HETATM   19  O24 MIQ B 502     -20.754  -0.981 -14.776  1.00146.13    -0.273 OA
HETATM   20  C23 MIQ B 502     -23.368  -2.025 -12.933  1.00139.15     0.045 C 
ENDBRANCH  10  12
BRANCH   5  21
HETATM   21  N6  MIQ B 502     -24.114  -2.193  -4.848  1.00140.95    -0.377 N 
HETATM   22  C7  MIQ B 502     -22.870  -1.576  -4.423  1.00142.12     0.149 C 
HETATM   23  C8  MIQ B 502     -22.701  -1.619  -2.910  1.00144.10     0.187 C 
HETATM   24  O9  MIQ B 502     -23.842  -1.196  -2.224  1.00148.65    -0.388 OA
HETATM   25  C10 MIQ B 502     -25.045  -0.997  -2.906  1.00147.44     0.187 C 
HETATM   26  C11 MIQ B 502     -25.334  -1.848  -4.138  1.00144.08     0.149 C 
ENDBRANCH   5  21
TORSDOF 2
ENDMDL
MODEL 9
REMARK VINA RESULT:      -6.9      5.026      8.803
REMARK  2 active torsions:
REMARK  status: ('A' for Active; 'I' for Inactive)
REMARK    1  A    between atoms: C5_5  and  N6_21 
REMARK    2  A    between atoms: C18_14  and  N17_19 
ROOT
HETATM    1  O1  MIQ B 502     -24.399  -0.036  -8.158  1.00142.91    -0.171 OA
HETATM    2  C2  MIQ B 502     -24.582  -1.323  -8.670  1.00141.17     0.195 A 
HETATM    3  C3  MIQ B 502     -24.585  -1.723 -10.180  1.00141.71     0.035 A 
HETATM    4  C4  MIQ B 502     -24.412  -0.957 -11.437  1.00142.86     0.046 A 
HETATM    5  C5  MIQ B 502     -24.465  -1.616 -12.691  1.00139.53     0.031 A 
HETATM    6  C12 MIQ B 502     -24.691  -3.054 -12.742  1.00139.38     0.030 A 
HETATM    7  C13 MIQ B 502     -24.857  -3.788 -11.537  1.00141.18     0.019 A 
HETATM    8  C14 MIQ B 502     -24.797  -3.091 -10.224  1.00138.77     0.033 A 
HETATM    9  C15 MIQ B 502     -24.925  -3.543  -8.732  1.00142.10     0.195 A 
HETATM   10  N17 MIQ B 502     -24.780  -2.448  -8.005  1.00139.42    -0.288 N 
HETATM   11  O16 MIQ B 502     -25.150  -4.841  -8.269  1.00148.93    -0.171 OA
ENDROOT
BRANCH  10  12
HETATM   12  C18 MIQ B 502     -24.858  -2.485  -6.556  1.00139.82     0.187 C 
HETATM   13  C19 MIQ B 502     -25.826  -1.382  -6.111  1.00140.06     0.247 C 
HETATM   14  O25 MIQ B 502     -26.894  -1.319  -6.607  1.00143.95    -0.271 OA
HETATM   15  N20 MIQ B 502     -25.467  -0.418  -5.092  1.00140.02    -0.296 N 
HETATM   16  H13 MIQ B 502     -26.106   0.302  -4.814  1.00142.77     0.171 HD
HETATM   17  C21 MIQ B 502     -24.154  -0.509  -4.508  1.00142.22     0.224 C 
HETATM   18  C22 MIQ B 502     -23.037  -0.988  -5.415  1.00139.52     0.106 C 
HETATM   19  O24 MIQ B 502     -23.960  -0.230  -3.376  1.00146.13    -0.273 OA
HETATM   20  C23 MIQ B 502     -23.464  -2.345  -5.946  1.00139.15     0.045 C 
ENDBRANCH  10  12
BRANCH   5  21
HETATM   21  N6  MIQ B 502     -24.308  -0.852 -13.915  1.00140.95    -0.377 N 
HETATM   22  C7  MIQ B 502     -23.017  -0.864 -14.580  1.00142.12     0.149 C 
HETATM   23  C8  MIQ B 502     -22.789   0.399 -15.402  1.00144.10     0.187 C 
HETATM   24  O9  MIQ B 502     -23.878   0.721 -16.216  1.00148.65    -0.388 OA
HETATM   25  C10 MIQ B 502     -25.096   0.053 -16.066  1.00147.44     0.187 C 
HETATM   26  C11 MIQ B 502     -25.478  -0.465 -14.684  1.00144.08     0.149 C 
ENDBRANCH   5  21
TORSDOF 2
ENDMDL
